 vasp.5.4.4.18Apr17-6-g9f103f2a35 (build Jun 19 2019 10:34:07) complex          
  
 executed on               LB-5.4 date 2023.05.19  11:15:23
 running on   96 total cores
 distrk:  each k-point on   24 cores,    4 groups
 distr:  one band on NCORES_PER_BAND=   1 cores,   24 groups


--------------------------------------------------------------------------------------------------------


 INCAR:
 POTCAR:    PAW_PBE Si 05Jan2001                  
 POTCAR:    PAW_PBE B 06Sep2000                   
 POTCAR:    PAW_PBE P 06Sep2000                   

 ----------------------------------------------------------------------------- 
|                                                                             |
|           W    W    AA    RRRRR   N    N  II  N    N   GGGG   !!!           |
|           W    W   A  A   R    R  NN   N  II  NN   N  G    G  !!!           |
|           W    W  A    A  R    R  N N  N  II  N N  N  G       !!!           |
|           W WW W  AAAAAA  RRRRR   N  N N  II  N  N N  G  GGG   !            |
|           WW  WW  A    A  R   R   N   NN  II  N   NN  G    G                |
|           W    W  A    A  R    R  N    N  II  N    N   GGGG   !!!           |
|                                                                             |
|      For optimal performance we recommend to set                            |
|        NCORE= 4 - approx SQRT( number of cores)                             |
|      NCORE specifies how many cores store one orbital (NPAR=cpu/NCORE).     |
|      This setting can  greatly improve the performance of VASP for DFT.     |
|      The default,   NCORE=1            might be grossly inefficient         |
|      on modern multi-core architectures or massively parallel machines.     |
|      Do your own testing !!!!                                               |
|      Unfortunately you need to use the default for GW and RPA calculations. |
|      (for HF NCORE is supported but not extensively tested yet)             |
|                                                                             |
 ----------------------------------------------------------------------------- 


 ----------------------------------------------------------------------------- 
|                                                                             |
|           W    W    AA    RRRRR   N    N  II  N    N   GGGG   !!!           |
|           W    W   A  A   R    R  NN   N  II  NN   N  G    G  !!!           |
|           W    W  A    A  R    R  N N  N  II  N N  N  G       !!!           |
|           W WW W  AAAAAA  RRRRR   N  N N  II  N  N N  G  GGG   !            |
|           WW  WW  A    A  R   R   N   NN  II  N   NN  G    G                |
|           W    W  A    A  R    R  N    N  II  N    N   GGGG   !!!           |
|                                                                             |
|      You have enabled k-point parallelism (KPAR>1).                         |
|      This developmental code was originally  written by Paul Kent at ORNL,  |
|      and carefully double checked in Vienna.                                |
|      GW as well as linear response parallelism added by Martijn Marsman     |
|      and Georg Kresse.                                                      |
|      Carefully verify results versus KPAR=1.                                |
|      Report problems to Paul Kent and Vienna.                               |
|                                                                             |
 ----------------------------------------------------------------------------- 

 POTCAR:    PAW_PBE Si 05Jan2001                  
   VRHFIN =Si: s2p2                                                             
   LEXCH  = PE                                                                  
   EATOM  =   103.0669 eV,    7.5752 Ry                                         
                                                                                
   TITEL  = PAW_PBE Si 05Jan2001                                                
   LULTRA =        F    use ultrasoft PP ?                                      
   IUNSCR =        1    unscreen: 0-lin 1-nonlin 2-no                           
   RPACOR =    1.500    partial core radius                                     
   POMASS =   28.085; ZVAL   =    4.000    mass and valenz                      
   RCORE  =    1.900    outmost cutoff radius                                   
   RWIGS  =    2.480; RWIGS  =    1.312    wigner-seitz radius (au A)           
   ENMAX  =  245.345; ENMIN  =  184.009 eV                                      
   ICORE  =        2    local potential                                         
   LCOR   =        T    correct aug charges                                     
   LPAW   =        T    paw PP                                                  
   EAUG   =  322.069                                                            
   DEXC   =    0.000                                                            
   RMAX   =    1.950    core radius for proj-oper                               
   RAUG   =    1.300    factor for augmentation sphere                          
   RDEP   =    1.993    radius for radial grids                                 
   RDEPT  =    1.837    core radius for aug-charge                              
                                                                                
   Atomic configuration                                                         
    6 entries                                                                   
     n  l   j            E        occ.                                          
     1  0  0.50     -1785.8828   2.0000                                         
     2  0  0.50      -139.4969   2.0000                                         
     2  1  1.50       -95.5546   6.0000                                         
     3  0  0.50       -10.8127   2.0000                                         
     3  1  0.50        -4.0811   2.0000                                         
     3  2  1.50        -4.0817   0.0000                                         
   Description                                                                  
     l       E           TYP  RCUT    TYP  RCUT                                 
     0    -10.8127223     23  1.900                                             
     0     -7.6451159     23  1.900                                             
     1     -4.0811372     23  1.900                                             
     1      2.4879257     23  1.900                                             
     2     -4.0817478      7  1.900                                             
  local pseudopotential read in
  partial core-charges read in
  partial kinetic energy density read in
  atomic valenz-charges read in
  non local Contribution for L=           0  read in
    real space projection operators read in
  non local Contribution for L=           0  read in
    real space projection operators read in
  non local Contribution for L=           1  read in
    real space projection operators read in
  non local Contribution for L=           1  read in
    real space projection operators read in
    PAW grid and wavefunctions read in
 
   number of l-projection  operators is LMAX  =           4
   number of lm-projection operators is LMMAX =           8
 
 POTCAR:    PAW_PBE B 06Sep2000                   
   VRHFIN =B: s2p1                                                              
   LEXCH  = PE                                                                  
   EATOM  =    71.1703 eV,    5.2309 Ry                                         
                                                                                
   TITEL  = PAW_PBE B 06Sep2000                                                 
   LULTRA =        F    use ultrasoft PP ?                                      
   IUNSCR =        1    unscreen: 0-lin 1-nonlin 2-no                           
   RPACOR =    1.200    partial core radius                                     
   POMASS =   10.811; ZVAL   =    3.000    mass and valenz                      
   RCORE  =    1.700    outmost cutoff radius                                   
   RWIGS  =    1.710; RWIGS  =    0.905    wigner-seitz radius (au A)           
   ENMAX  =  318.614; ENMIN  =  238.960 eV                                      
   ICORE  =        2    local potential                                         
   LCOR   =        T    correct aug charges                                     
   LPAW   =        T    paw PP                                                  
   EAUG   =  535.514                                                            
   DEXC   =    0.000                                                            
   RMAX   =    1.732    core radius for proj-oper                               
   RAUG   =    1.300    factor for augmentation sphere                          
   RDEP   =    1.757    radius for radial grids                                 
   RDEPT  =    1.436    core radius for aug-charge                              
                                                                                
   Atomic configuration                                                         
    4 entries                                                                   
     n  l   j            E        occ.                                          
     1  0  0.50      -180.5896   2.0000                                         
     2  0  0.50        -9.4431   2.0000                                         
     2  1  0.50        -3.6068   1.0000                                         
     3  2  1.50        -4.0817   0.0000                                         
   Description                                                                  
     l       E           TYP  RCUT    TYP  RCUT                                 
     0     -9.4430752     23  1.500                                             
     0      0.8675899     23  1.500                                             
     1     -3.6067955     23  1.700                                             
     1      6.1086146     23  1.700                                             
     2     -4.0817478      7  1.700                                             
  local pseudopotential read in
  partial core-charges read in
  partial kinetic energy density read in
  atomic valenz-charges read in
  non local Contribution for L=           0  read in
    real space projection operators read in
  non local Contribution for L=           0  read in
    real space projection operators read in
  non local Contribution for L=           1  read in
    real space projection operators read in
  non local Contribution for L=           1  read in
    real space projection operators read in
    PAW grid and wavefunctions read in
 
   number of l-projection  operators is LMAX  =           4
   number of lm-projection operators is LMMAX =           8
 
 POTCAR:    PAW_PBE P 06Sep2000                   
   VRHFIN =P : s2p3                                                             
   LEXCH  = PE                                                                  
   EATOM  =   176.0430 eV,   12.9388 Ry                                         
                                                                                
   TITEL  = PAW_PBE P 06Sep2000                                                 
   LULTRA =        F    use ultrasoft PP ?                                      
   IUNSCR =        1    unscreen: 0-lin 1-nonlin 2-no                           
   RPACOR =    1.500    partial core radius                                     
   POMASS =   30.974; ZVAL   =    5.000    mass and valenz                      
   RCORE  =    1.900    outmost cutoff radius                                   
   RWIGS  =    2.330; RWIGS  =    1.233    wigner-seitz radius (au A)           
   ENMAX  =  255.040; ENMIN  =  191.280 eV                                      
   ICORE  =        2    local potential                                         
   LCOR   =        T    correct aug charges                                     
   LPAW   =        T    paw PP                                                  
   EAUG   =  342.924                                                            
   DEXC   =    0.000                                                            
   RMAX   =    1.935    core radius for proj-oper                               
   RAUG   =    1.300    factor for augmentation sphere                          
   RDEP   =    1.931    radius for radial grids                                 
   RDEPT  =    1.794    core radius for aug-charge                              
                                                                                
   Atomic configuration                                                         
    6 entries                                                                   
     n  l   j            E        occ.                                          
     1  0  0.50     -2084.0982   2.0000                                         
     2  0  0.50      -173.9859   2.0000                                         
     2  1  1.50      -124.4865   6.0000                                         
     3  0  0.50       -13.9692   2.0000                                         
     3  1  0.50        -5.5067   3.0000                                         
     3  2  1.50        -5.4423   0.0000                                         
   Description                                                                  
     l       E           TYP  RCUT    TYP  RCUT                                 
     0    -13.9691527     23  1.900                                             
     0    -11.7794650     23  1.900                                             
     1     -5.5066937     23  1.900                                             
     1     -0.2556953     23  1.900                                             
     2     -5.4423304     23  1.900                                             
  local pseudopotential read in
  partial core-charges read in
  partial kinetic energy density read in
  atomic valenz-charges read in
  non local Contribution for L=           0  read in
    real space projection operators read in
  non local Contribution for L=           0  read in
    real space projection operators read in
  non local Contribution for L=           1  read in
    real space projection operators read in
  non local Contribution for L=           1  read in
    real space projection operators read in
    PAW grid and wavefunctions read in
 
   number of l-projection  operators is LMAX  =           4
   number of lm-projection operators is LMMAX =           8
 

 ----------------------------------------------------------------------------- 
|                                                                             |
|  ADVICE TO THIS USER RUNNING 'VASP/VAMP'   (HEAR YOUR MASTER'S VOICE ...):  |
|                                                                             |
|      You have a (more or less) 'large supercell' and for larger cells       |
|      it might be more efficient to use real space projection opertators     |
|      So try LREAL= Auto  in the INCAR   file.                               |
|      Mind:          For very  accurate calculation you might also keep the  |
|      reciprocal projection scheme          (i.e. LREAL=.FALSE.)             |
|                                                                             |
 ----------------------------------------------------------------------------- 

  PAW_PBE Si 05Jan2001                  :
 energy of atom  1       EATOM= -103.0669
 kinetic energy error for atom=    0.0004 (will be added to EATOM!!)
  PAW_PBE B 06Sep2000                   :
 energy of atom  2       EATOM=  -71.1703
 kinetic energy error for atom=    0.0009 (will be added to EATOM!!)
  PAW_PBE P 06Sep2000                   :
 energy of atom  3       EATOM= -176.0430
 kinetic energy error for atom=    0.0008 (will be added to EATOM!!)
 
 
 POSCAR: Si52 B1 P1                              
  positions in direct lattice
  velocities in cartesian coordinates
 exchange correlation table for  LEXCH =        8
   RHO(1)=    0.500       N(1)  =     2000
   RHO(2)=  100.500       N(2)  =     4000
 


--------------------------------------------------------------------------------------------------------


 ion  position               nearest neighbor table
   1  0.292  0.292  0.625-  32 2.35  53 2.35  40 2.35  38 2.35
   2  0.292  0.292  0.958-  30 2.35  39 2.35  40 2.35  36 2.35
   3  0.292  0.625  0.292-  34 2.35  41 2.35  42 2.35  53 2.35
   4  0.292  0.625  0.625-  35 2.35  42 2.35  43 2.35  40 2.35
   5  0.292  0.625  0.958-  33 2.35  41 2.35  43 2.35  39 2.35
   6  0.292  0.958  0.292-  28 2.35  36 2.35  37 2.35  42 2.35
   7  0.292  0.958  0.625-  29 2.35  37 2.35  38 2.35  43 2.35
   8  0.292  0.958  0.958-  27 2.35  36 2.35  38 2.35  41 2.35
   9  0.625  0.292  0.292-  53 2.35  47 2.35  48 2.35  45 2.35
  10  0.625  0.292  0.625-  40 2.35  48 2.35  49 2.35  46 2.35
  11  0.625  0.292  0.958-  39 2.35  47 2.35  49 2.35  44 2.35
  12  0.625  0.625  0.292-  42 2.35  50 2.35  51 2.35  48 2.35
  13  0.625  0.625  0.625-  43 2.35  51 2.35  52 2.35  49 2.35
  14  0.625  0.625  0.958-  41 2.35  50 2.35  52 2.35  47 2.35
  15  0.625  0.958  0.292-  37 2.35  44 2.35  45 2.35  51 2.35
  16  0.625  0.958  0.625-  38 2.35  45 2.35  46 2.35  52 2.35
  17  0.625  0.958  0.958-  36 2.35  44 2.35  46 2.35  50 2.35
  18  0.958  0.292  0.292-  48 2.35  31 2.35  30 2.35  28 2.35
  19  0.958  0.292  0.625-  49 2.35  32 2.35  31 2.35  29 2.35
  20  0.958  0.292  0.958-  47 2.35  30 2.35  32 2.35  27 2.35
  21  0.958  0.625  0.292-  51 2.35  34 2.35  33 2.35  31 2.35
  22  0.958  0.625  0.625-  52 2.35  35 2.35  34 2.35  32 2.35
  23  0.958  0.625  0.958-  50 2.35  33 2.35  35 2.35  30 2.35
  24  0.958  0.958  0.292-  45 2.35  28 2.35  27 2.35  34 2.35
  25  0.958  0.958  0.625-  46 2.35  29 2.35  28 2.35  35 2.35
  26  0.958  0.958  0.958-  44 2.35  27 2.35  29 2.35  33 2.35
  27  0.042  0.042  0.042-   8 2.35  26 2.35  24 2.35  20 2.35
  28  0.042  0.042  0.375-   6 2.35  24 2.35  25 2.35  18 2.35
  29  0.042  0.042  0.708-   7 2.35  25 2.35  26 2.35  19 2.35
  30  0.042  0.375  0.042-   2 2.35  20 2.35  18 2.35  23 2.35
  31  0.042  0.375  0.375-  54 2.35  19 2.35  18 2.35  21 2.35
  32  0.042  0.375  0.708-   1 2.35  19 2.35  20 2.35  22 2.35
  33  0.042  0.708  0.042-   5 2.35  23 2.35  21 2.35  26 2.35
  34  0.042  0.708  0.375-   3 2.35  21 2.35  22 2.35  24 2.35
  35  0.042  0.708  0.708-   4 2.35  22 2.35  23 2.35  25 2.35
  36  0.375  0.042  0.042-  17 2.35   8 2.35   6 2.35   2 2.35
  37  0.375  0.042  0.375-  15 2.35   7 2.35   6 2.35  54 2.35
  38  0.375  0.042  0.708-  16 2.35   8 2.35   7 2.35   1 2.35
  39  0.375  0.375  0.042-  11 2.35   2 2.35  54 2.35   5 2.35
  40  0.375  0.375  0.708-  10 2.35   2 2.35   1 2.35   4 2.35
  41  0.375  0.708  0.042-  14 2.35   5 2.35   3 2.35   8 2.35
  42  0.375  0.708  0.375-  12 2.35   4 2.35   3 2.35   6 2.35
  43  0.375  0.708  0.708-  13 2.35   5 2.35   4 2.35   7 2.35
  44  0.708  0.042  0.042-  26 2.35  17 2.35  15 2.35  11 2.35
  45  0.708  0.042  0.375-  24 2.35  16 2.35  15 2.35   9 2.35
  46  0.708  0.042  0.708-  25 2.35  17 2.35  16 2.35  10 2.35
  47  0.708  0.375  0.042-  20 2.35  11 2.35   9 2.35  14 2.35
  48  0.708  0.375  0.375-  18 2.35  10 2.35   9 2.35  12 2.35
  49  0.708  0.375  0.708-  19 2.35  11 2.35  10 2.35  13 2.35
  50  0.708  0.708  0.042-  23 2.35  14 2.35  12 2.35  17 2.35
  51  0.708  0.708  0.375-  21 2.35  13 2.35  12 2.35  15 2.35
  52  0.708  0.708  0.708-  22 2.35  14 2.35  13 2.35  16 2.35
  53  0.375  0.375  0.375-   9 2.35   1 2.35  54 2.35   3 2.35
  54  0.292  0.292  0.292-  31 2.35  39 2.35  53 2.35  37 2.35
 
  LATTYP: Found a face centered cubic cell.
 ALAT       =    16.2915000202
  
  Lattice vectors:
  
 A1 = (   9.9764655300,   0.0000000000,   5.7599150700)
 A2 = (   3.3254885100,   9.4059019200,   5.7599150700)
 A3 = (   0.0000000000,   0.0000000000,  11.5198301400)


Analysis of symmetry for initial positions (statically):
=====================================================================
 Subroutine PRICEL returns:
 Original cell was already a primitive cell.
 

 Routine SETGRP: Setting up the symmetry group for a 
 face centered cubic supercell.


 Subroutine GETGRP returns: Found  6 space group operations
 (whereof  6 operations were pure point group operations)
 out of a pool of 48 trial point group operations.


The static configuration has the point symmetry C_3v.


Analysis of symmetry for dynamics (positions and initial velocities):
=====================================================================
 Subroutine PRICEL returns:
 Original cell was already a primitive cell.
 

 Routine SETGRP: Setting up the symmetry group for a 
 face centered cubic supercell.


 Subroutine GETGRP returns: Found  6 space group operations
 (whereof  6 operations were pure point group operations)
 out of a pool of 48 trial point group operations.


The dynamic configuration has the point symmetry C_3v.


 Subroutine INISYM returns: Found  6 space group operations
 (whereof  6 operations are pure point group operations),
 and found     1 'primitive' translations

 
 
 KPOINTS: pymatgen with grid density = 1000 / numb

Automatic generation of k-mesh.
Space group operators:
 irot       det(A)        alpha          n_x          n_y          n_z        tau_x        tau_y        tau_z
    1     1.000000     0.000000     1.000000     0.000000     0.000000     0.000000     0.000000     0.000000
    2     1.000000   120.000000    -0.471405    -0.333333    -0.816497     0.000000     0.000000     0.000000
    3     1.000000   120.000000     0.471405     0.333333     0.816497     0.000000     0.000000     0.000000
    4    -1.000000   180.000000     0.288675     0.816497    -0.500000     0.000000     0.000000     0.000000
    5    -1.000000   180.000000     0.577350    -0.816497     0.000000     0.000000     0.000000     0.000000
    6    -1.000000   180.000000     0.866025     0.000000    -0.500000     0.000000     0.000000     0.000000
 
 Subroutine IBZKPT returns following result:
 ===========================================
 
 Found     13 irreducible k-points:
 
 Following reciprocal coordinates:
            Coordinates               Weight
  0.000000  0.000000  0.000000      1.000000
  0.250000  0.000000  0.000000      6.000000
  0.500000  0.000000  0.000000      3.000000
  0.250000  0.250000  0.000000      6.000000
  0.500000  0.250000  0.000000     12.000000
 -0.250000  0.250000  0.000000      6.000000
  0.500000  0.500000  0.000000      3.000000
  0.250000  0.250000  0.250000      2.000000
  0.500000  0.250000  0.250000      6.000000
 -0.250000  0.250000  0.250000      6.000000
  0.500000  0.500000  0.250000      6.000000
 -0.250000  0.500000  0.250000      6.000000
  0.500000  0.500000  0.500000      1.000000
 
 Following cartesian coordinates:
            Coordinates               Weight
  0.000000  0.000000  0.000000      1.000000
  0.025059 -0.008860  0.000000      6.000000
  0.050118 -0.017719  0.000000      3.000000
  0.025059  0.017719  0.000000      6.000000
  0.050118  0.008860  0.000000     12.000000
 -0.025059  0.035439  0.000000      6.000000
  0.050118  0.035439  0.000000      3.000000
  0.012529  0.008860  0.021702      2.000000
  0.037588  0.000000  0.021702      6.000000
 -0.037588  0.026579  0.021702      6.000000
  0.037588  0.026579  0.021702      6.000000
 -0.037588  0.053158  0.021702      6.000000
  0.025059  0.017719  0.043403      1.000000
 


--------------------------------------------------------------------------------------------------------




 Dimension of arrays:
   k-points           NKPTS =     13   k-points in BZ     NKDIM =     13   number of bands    NBANDS=    144
   number of dos      NEDOS =    301   number of ions     NIONS =     54
   non local maximal  LDIM  =      4   non local SUM 2l+1 LMDIM =      8
   total plane-waves  NPLWV = 343000
   max r-space proj   IRMAX =      1   max aug-charges    IRDMAX=  10807
   dimension x,y,z NGX =    70 NGY =   70 NGZ =   70
   dimension x,y,z NGXF=   140 NGYF=  140 NGZF=  140
   support grid    NGXF=   140 NGYF=  140 NGZF=  140
   ions per type =              52   1   1
   NGX,Y,Z   is equivalent  to a cutoff of  10.10, 10.10, 10.10 a.u.
   NGXF,Y,Z  is equivalent  to a cutoff of  20.20, 20.20, 20.20 a.u.

 SYSTEM =  Si                                      
 POSCAR =  Si52 B1 P1                              

 Startparameter for this run:
   NWRITE =      2    write-flag & timer
   PREC   = normal    normal or accurate (medium, high low for compatibility)
   ISTART =      1    job   : 0-new  1-cont  2-samecut
   ICHARG =      0    charge: 1-file 2-atom 10-const
   ISPIN  =      1    spin polarized calculation?
   LNONCOLLINEAR =      F non collinear calculations
   LSORBIT =      F    spin-orbit coupling
   INIWAV =      1    electr: 0-lowe 1-rand  2-diag
   LASPH  =      F    aspherical Exc in radial PAW
   METAGGA=      F    non-selfconsistent MetaGGA calc.

 Electronic Relaxation 1
   ENCUT  =  550.0 eV  40.42 Ry    6.36 a.u.  22.03 22.03 22.03*2*pi/ulx,y,z
   ENINI  =  550.0     initial cutoff
   ENAUG  =  535.5 eV  augmentation charge cutoff
   NELM   =    200;   NELMIN=  2; NELMDL=  0     # of ELM steps 
   EDIFF  = 0.1E-04   stopping-criterion for ELM
   LREAL  =      F    real-space projection
   NLSPLINE    = F    spline interpolate recip. space projectors
   LCOMPAT=      F    compatible to vasp.4.4
   GGA_COMPAT  = T    GGA compatible to vasp.4.4-vasp.4.6
   LMAXPAW     = -100 max onsite density
   LMAXMIX     =    2 max onsite mixed and CHGCAR
   VOSKOWN=      0    Vosko Wilk Nusair interpolation
   ROPT   =    0.00000   0.00000   0.00000
 Ionic relaxation
   EDIFFG = -.5E-01   stopping-criterion for IOM
   NSW    =    100    number of steps for IOM
   NBLOCK =      1;   KBLOCK =    100    inner block; outer block 
   IBRION =      2    ionic relax: 0-MD 1-quasi-New 2-CG
   NFREE  =      1    steps in history (QN), initial steepest desc. (CG)
   ISIF   =      2    stress and relaxation
   IWAVPR =     11    prediction:  0-non 1-charg 2-wave 3-comb
   ISYM   =      2    0-nonsym 1-usesym 2-fastsym
   LCORR  =      T    Harris-Foulkes like correction to forces

   POTIM  = 0.5000    time-step for ionic-motion
   TEIN   =    0.0    initial temperature
   TEBEG  =    0.0;   TEEND  =   0.0 temperature during run
   SMASS  =  -3.00    Nose mass-parameter (am)
   estimated Nose-frequenzy (Omega)   =  0.10E-29 period in steps =****** mass=  -0.303E-26a.u.
   SCALEE = 1.0000    scale energy and forces
   NPACO  =    256;   APACO  = 16.0  distance and # of slots for P.C.
   PSTRESS=    0.0 pullay stress

  Mass of Ions in am
   POMASS =  28.09 10.81 30.97
  Ionic Valenz
   ZVAL   =   4.00  3.00  5.00
  Atomic Wigner-Seitz radii
   RWIGS  =  -1.00 -1.00 -1.00
  virtual crystal weights 
   VCA    =   1.00  1.00  1.00
   NELECT =     216.0000    total number of electrons
   NUPDOWN=      -1.0000    fix difference up-down

 DOS related values:
   EMIN   =  10.00;   EMAX   =-10.00  energy-range for DOS
   EFERMI =   0.00
   ISMEAR =     0;   SIGMA  =   0.05  broadening in eV -4-tet -1-fermi 0-gaus

 Electronic relaxation 2 (details)
   IALGO  =     38    algorithm
   LDIAG  =      T    sub-space diagonalisation (order eigenvalues)
   LSUBROT=      F    optimize rotation matrix (better conditioning)
   TURBO    =      0    0=normal 1=particle mesh
   IRESTART =      0    0=no restart 2=restart with 2 vectors
   NREBOOT  =      0    no. of reboots
   NMIN     =      0    reboot dimension
   EREF     =   0.00    reference energy to select bands
   IMIX   =      4    mixing-type and parameters
     AMIX     =   0.20;   BMIX     =  1.00
     AMIX_MAG =   0.80;   BMIX_MAG =  1.00
     AMIN     =   0.10
     WC   =   100.;   INIMIX=   1;  MIXPRE=   1;  MAXMIX= -45

 Intra band minimization:
   WEIMIN = 0.0010     energy-eigenvalue tresh-hold
   EBREAK =  0.17E-07  absolut break condition
   DEPER  =   0.30     relativ break condition  

   TIME   =   0.40     timestep for ELM

  volume/ion in A,a.u.               =      20.02       135.09
  Fermi-wavevector in a.u.,A,eV,Ry     =   0.957088  1.808633 12.463162  0.916017
  Thomas-Fermi vector in A             =   2.086074
 
 Write flags
   LWAVE        =      T    write WAVECAR
   LDOWNSAMPLE  =      F    k-point downsampling of WAVECAR
   LCHARG       =      T    write CHGCAR
   LVTOT        =      F    write LOCPOT, total local potential
   LVHAR        =      F    write LOCPOT, Hartree potential only
   LELF         =      F    write electronic localiz. function (ELF)
   LORBIT       =     10    0 simple, 1 ext, 2 COOP (PROOUT), +10 PAW based schemes


 Dipole corrections
   LMONO  =      F    monopole corrections only (constant potential shift)
   LDIPOL =      F    correct potential (dipole corrections)
   IDIPOL =      0    1-x, 2-y, 3-z, 4-all directions 
   EPSILON=  1.0000000 bulk dielectric constant

 Exchange correlation treatment:
   GGA     =    --    GGA type
   LEXCH   =     8    internal setting for exchange type
   VOSKOWN=      0    Vosko Wilk Nusair interpolation
   LHFCALC =     F    Hartree Fock is set to
   LHFONE  =     F    Hartree Fock one center treatment
   AEXX    =    0.0000 exact exchange contribution

 Linear response parameters
   LEPSILON=     F    determine dielectric tensor
   LRPA    =     F    only Hartree local field effects (RPA)
   LNABLA  =     F    use nabla operator in PAW spheres
   LVEL    =     F    velocity operator in full k-point grid
   LINTERFAST=   F  fast interpolation
   KINTER  =     0    interpolate to denser k-point grid
   CSHIFT  =0.1000    complex shift for real part using Kramers Kronig
   OMEGAMAX=  -1.0    maximum frequency
   DEG_THRESHOLD= 0.2000000E-02 threshold for treating states as degnerate
   RTIME   =   -0.100 relaxation time in fs
  (WPLASMAI=    0.000 imaginary part of plasma frequency in eV, 0.658/RTIME)
   DFIELD  = 0.0000000 0.0000000 0.0000000 field for delta impulse in time
 
 Orbital magnetization related:
   ORBITALMAG=     F  switch on orbital magnetization
   LCHIMAG   =     F  perturbation theory with respect to B field
   DQ        =  0.001000  dq finite difference perturbation B field
   LLRAUG    =     F  two centre corrections for induced B field



--------------------------------------------------------------------------------------------------------


 conjugate gradient relaxation of ions
 charge density and potential will be updated during run
 non-spin polarized calculation
 Variant of blocked Davidson
 Davidson routine will perform the subspace rotation
 perform sub-space diagonalisation
    after iterative eigenvector-optimisation
 modified Broyden-mixing scheme, WC =      100.0
 initial mixing is a Kerker type mixing with AMIX =  0.2000 and BMIX =      1.0000
 Hartree-type preconditioning will be used
 using additional bands           36
 reciprocal scheme for non local part
 use partial core corrections
 calculate Harris-corrections to forces 
   (improved forces if not selfconsistent)
 use gradient corrections 
 use of overlap-Matrix (Vanderbilt PP)
 Gauss-broadening in eV      SIGMA  =   0.05


--------------------------------------------------------------------------------------------------------


  energy-cutoff  :      550.00
  volume of cell :     1080.99
      direct lattice vectors                 reciprocal lattice vectors
     9.976465530  0.000000000  5.759915070     0.100235900 -0.035438742  0.000000000
     3.325488510  9.405901920  5.759915070     0.000000000  0.106316227  0.000000000
     0.000000000  0.000000000 11.519830140    -0.050117950 -0.035438742  0.086806836

  length of vectors
    11.519830124 11.519830136 11.519830140     0.106316227  0.106316227  0.106316227


 
 old parameters found on file WAVECAR:
  energy-cutoff  :      550.00
  volume of cell :     1080.99
      direct lattice vectors                 reciprocal lattice vectors
     9.976465530  0.000000000  5.759915070     0.100235900 -0.035438742  0.000000000
     3.325488510  9.405901920  5.759915070     0.000000000  0.106316227  0.000000000
     0.000000000  0.000000000 11.519830140    -0.050117950 -0.035438742  0.086806836

  length of vectors

 
 k-points in units of 2pi/SCALE and weight: pymatgen with grid density = 1000 / numb
   0.00000000  0.00000000  0.00000000       0.016
   0.02505897 -0.00885969  0.00000000       0.094
   0.05011795 -0.01771937  0.00000000       0.047
   0.02505897  0.01771937  0.00000000       0.094
   0.05011795  0.00885969  0.00000000       0.188
  -0.02505897  0.03543874  0.00000000       0.094
   0.05011795  0.03543874  0.00000000       0.047
   0.01252949  0.00885969  0.02170171       0.031
   0.03758846  0.00000000  0.02170171       0.094
  -0.03758846  0.02657906  0.02170171       0.094
   0.03758846  0.02657906  0.02170171       0.094
  -0.03758846  0.05315811  0.02170171       0.094
   0.02505897  0.01771937  0.04340342       0.016
 
 k-points in reciprocal lattice and weights: pymatgen with grid density = 1000 / numb
   0.00000000  0.00000000  0.00000000       0.016
   0.25000000  0.00000000  0.00000000       0.094
   0.50000000  0.00000000  0.00000000       0.047
   0.25000000  0.25000000  0.00000000       0.094
   0.50000000  0.25000000  0.00000000       0.188
  -0.25000000  0.25000000  0.00000000       0.094
   0.50000000  0.50000000  0.00000000       0.047
   0.25000000  0.25000000  0.25000000       0.031
   0.50000000  0.25000000  0.25000000       0.094
  -0.25000000  0.25000000  0.25000000       0.094
   0.50000000  0.50000000  0.25000000       0.094
  -0.25000000  0.50000000  0.25000000       0.094
   0.50000000  0.50000000  0.50000000       0.016
 
 position of ions in fractional coordinates (direct lattice) 
   0.29166667  0.29166667  0.62500000
   0.29166667  0.29166667  0.95833333
   0.29166667  0.62500000  0.29166667
   0.29166667  0.62500000  0.62500000
   0.29166667  0.62500000  0.95833333
   0.29166667  0.95833333  0.29166667
   0.29166667  0.95833333  0.62500000
   0.29166667  0.95833333  0.95833333
   0.62500000  0.29166667  0.29166667
   0.62500000  0.29166667  0.62500000
   0.62500000  0.29166667  0.95833333
   0.62500000  0.62500000  0.29166667
   0.62500000  0.62500000  0.62500000
   0.62500000  0.62500000  0.95833333
   0.62500000  0.95833333  0.29166667
   0.62500000  0.95833333  0.62500000
   0.62500000  0.95833333  0.95833333
   0.95833333  0.29166667  0.29166667
   0.95833333  0.29166667  0.62500000
   0.95833333  0.29166667  0.95833333
   0.95833333  0.62500000  0.29166667
   0.95833333  0.62500000  0.62500000
   0.95833333  0.62500000  0.95833333
   0.95833333  0.95833333  0.29166667
   0.95833333  0.95833333  0.62500000
   0.95833333  0.95833333  0.95833333
   0.04166667  0.04166667  0.04166667
   0.04166667  0.04166667  0.37500000
   0.04166667  0.04166667  0.70833333
   0.04166667  0.37500000  0.04166667
   0.04166667  0.37500000  0.37500000
   0.04166667  0.37500000  0.70833333
   0.04166667  0.70833333  0.04166667
   0.04166667  0.70833333  0.37500000
   0.04166667  0.70833333  0.70833333
   0.37500000  0.04166667  0.04166667
   0.37500000  0.04166667  0.37500000
   0.37500000  0.04166667  0.70833333
   0.37500000  0.37500000  0.04166667
   0.37500000  0.37500000  0.70833333
   0.37500000  0.70833333  0.04166667
   0.37500000  0.70833333  0.37500000
   0.37500000  0.70833333  0.70833333
   0.70833333  0.04166667  0.04166667
   0.70833333  0.04166667  0.37500000
   0.70833333  0.04166667  0.70833333
   0.70833333  0.37500000  0.04166667
   0.70833333  0.37500000  0.37500000
   0.70833333  0.37500000  0.70833333
   0.70833333  0.70833333  0.04166667
   0.70833333  0.70833333  0.37500000
   0.70833333  0.70833333  0.70833333
   0.37500000  0.37500000  0.37500000
   0.29166667  0.29166667  0.29166667
 
 position of ions in cartesian coordinates  (Angst):
   3.87973659  2.74338806 10.55984429
   3.87973659  2.74338806 14.39978767
   4.98823276  5.87868870  8.63987260
   4.98823276  5.87868870 12.47981598
   4.98823276  5.87868870 16.31975937
   6.09672893  9.01398934 10.55984429
   6.09672893  9.01398934 14.39978767
   6.09672893  9.01398934 18.23973106
   7.20522510  2.74338806  8.63987260
   7.20522510  2.74338806 12.47981598
   7.20522510  2.74338806 16.31975937
   8.31372128  5.87868870 10.55984429
   8.31372128  5.87868870 14.39978767
   8.31372128  5.87868870 18.23973106
   9.42221745  9.01398934 12.47981598
   9.42221745  9.01398934 16.31975937
   9.42221745  9.01398934 20.15970275
  10.53071362  2.74338806 10.55984429
  10.53071362  2.74338806 14.39978767
  10.53071362  2.74338806 18.23973106
  11.63920979  5.87868870 12.47981598
  11.63920979  5.87868870 16.31975937
  11.63920979  5.87868870 20.15970275
  12.74770596  9.01398934 14.39978767
  12.74770596  9.01398934 18.23973106
  12.74770596  9.01398934 22.07967444
   0.55424808  0.39191258  0.95998584
   0.55424808  0.39191258  4.79992922
   0.55424808  0.39191258  8.63987260
   1.66274425  3.52721322  2.87995753
   1.66274425  3.52721322  6.71990091
   1.66274425  3.52721322 10.55984430
   2.77124042  6.66251386  4.79992922
   2.77124042  6.66251386  8.63987261
   2.77124042  6.66251386 12.47981599
   3.87973659  0.39191258  2.87995753
   3.87973659  0.39191258  6.71990091
   3.87973659  0.39191258 10.55984430
   4.98823277  3.52721322  4.79992922
   4.98823277  3.52721322 12.47981599
   6.09672894  6.66251386  6.71990091
   6.09672894  6.66251386 10.55984430
   6.09672894  6.66251386 14.39978768
   7.20522511  0.39191258  4.79992922
   7.20522511  0.39191258  8.63987261
   7.20522511  0.39191258 12.47981599
   8.31372128  3.52721322  6.71990091
   8.31372128  3.52721322 10.55984430
   8.31372128  3.52721322 14.39978768
   9.42221745  6.66251386  8.63987260
   9.42221745  6.66251386 12.47981599
   9.42221745  6.66251386 16.31975937
   4.98823277  3.52721322  8.63987261
   3.87973659  2.74338806  6.71990091
 


--------------------------------------------------------------------------------------------------------


 k-point  1 :   0.0000 0.0000 0.0000  plane waves:   31415
 k-point  2 :   0.2500 0.0000 0.0000  plane waves:   31608
 k-point  3 :   0.5000 0.0000 0.0000  plane waves:   31638
 k-point  4 :   0.2500 0.2500 0.0000  plane waves:   31695
 k-point  5 :   0.5000 0.2500 0.0000  plane waves:   31649
 k-point  6 :  -0.2500 0.2500 0.0000  plane waves:   31674
 k-point  7 :   0.5000 0.5000 0.0000  plane waves:   31716
 k-point  8 :   0.2500 0.2500 0.2500  plane waves:   31608
 k-point  9 :   0.5000 0.2500 0.2500  plane waves:   31674
 k-point 10 :  -0.2500 0.2500 0.2500  plane waves:   31649
 k-point 11 :   0.5000 0.5000 0.2500  plane waves:   31649
 k-point 12 :  -0.2500 0.5000 0.2500  plane waves:   31684
 k-point 13 :   0.5000 0.5000 0.5000  plane waves:   31638

 maximum and minimum number of plane-waves per node :     31716    31415

 maximum number of plane-waves:     31716
 maximum index in each direction: 
   IXMAX=   22   IYMAX=   22   IZMAX=   22
   IXMIN=  -22   IYMIN=  -22   IZMIN=  -22


 serial   3D FFT for wavefunctions
 parallel 3D FFT for charge:
    minimum data exchange during FFTs selected (reduces bandwidth)


 total amount of memory used by VASP MPI-rank0   203693. kBytes
=======================================================================

   base      :      30000. kBytes
   nonl-proj :     106606. kBytes
   fftplans  :       5382. kBytes
   grid      :      21405. kBytes
   one-center:        165. kBytes
   wavefun   :      40135. kBytes
 
     INWAV:  cpu time   17.7070: real time   17.9022
 Broyden mixing: mesh for mixing (old mesh)
   NGX = 45   NGY = 45   NGZ = 45
  (NGX  =140   NGY  =140   NGZ  =140)
  gives a total of  91125 points

 charge density for first step will be calculated from the start-wavefunctions


--------------------------------------------------------------------------------------------------------


 Maximum index for augmentation-charges          503 (set IRDMAX)


--------------------------------------------------------------------------------------------------------


 initial charge from wavefunction
 First call to EWALD:  gamma=   0.173
 Maximum number of real-space cells 3x 3x 3
 Maximum number of reciprocal cells 3x 3x 3

    FEWALD:  cpu time    0.0062: real time    0.0063


--------------------------------------- Iteration      1(   1)  ---------------------------------------


    POTLOK:  cpu time    0.0896: real time    0.0987
    SETDIJ:  cpu time    0.0116: real time    0.0119
     EDDAV:  cpu time    7.5607: real time    7.6421
       DOS:  cpu time    0.0156: real time    0.0172
    CHARGE:  cpu time    0.2162: real time    0.2177
    MIXING:  cpu time    0.0066: real time    0.0070
    --------------------------------------------
      LOOP:  cpu time    7.9003: real time    7.9946

 eigenvalue-minimisations  :  4152
 total energy-change (2. order) :-0.2926391E+03  (-0.4234160E-05)
 number of electron     216.0000000 magnetization 
 augmentation part      -12.4710011 magnetization 

 Broyden mixing:
  rms(total) = 0.65902E-03    rms(broyden)= 0.65902E-03
  rms(prec ) = 0.17934E-02
  weight for this iteration     100.00

 Free energy of the ion-electron system (eV)
  ---------------------------------------------------
  alpha Z        PSCENC =        96.03250935
  Ewald energy   TEWEN  =     -6176.92747578
  -Hartree energ DENC   =      -417.15325716
  -exchange      EXHF   =         0.00000000
  -V(xc)+E(xc)   XCENC  =      -458.03159313
  PAW double counting   =     22900.75927374   -21982.65888281
  entropy T*S    EENTRO =        -0.00000000
  eigenvalues    EBANDS =       138.67236946
  atomic energy  EATOM  =      5606.66798631
  Solvation  Ediel_sol  =         0.00000000
  ---------------------------------------------------
  free energy    TOTEN  =      -292.63907002 eV

  energy without entropy =     -292.63907002  energy(sigma->0) =     -292.63907002


--------------------------------------------------------------------------------------------------------




--------------------------------------- Iteration      1(   2)  ---------------------------------------


    POTLOK:  cpu time    0.0988: real time    0.0995
    SETDIJ:  cpu time    0.0030: real time    0.0030
     EDDAV:  cpu time    5.4598: real time    5.5175
       DOS:  cpu time    0.0075: real time    0.0075
    --------------------------------------------
      LOOP:  cpu time    5.5691: real time    5.6275

 eigenvalue-minimisations  :  3144
 total energy-change (2. order) : 0.3937272E-05  (-0.1187229E-05)
 number of electron     216.0000000 magnetization 
 augmentation part      -12.4710011 magnetization 

 Free energy of the ion-electron system (eV)
  ---------------------------------------------------
  alpha Z        PSCENC =        96.03250935
  Ewald energy   TEWEN  =     -6176.92747578
  -Hartree energ DENC   =      -417.15271418
  -exchange      EXHF   =         0.00000000
  -V(xc)+E(xc)   XCENC  =      -458.03170886
  PAW double counting   =     22900.93385791   -21982.83340914
  entropy T*S    EENTRO =        -0.00000000
  eigenvalues    EBANDS =       138.67188830
  atomic energy  EATOM  =      5606.66798631
  Solvation  Ediel_sol  =         0.00000000
  ---------------------------------------------------
  free energy    TOTEN  =      -292.63906608 eV

  energy without entropy =     -292.63906608  energy(sigma->0) =     -292.63906608


--------------------------------------------------------------------------------------------------------




 average (electrostatic) potential at core
  the test charge radii are     0.9892  0.7672  0.9587
  (the norm of the test charge is              1.0000)
       1 -83.1821       2 -83.4086       3 -83.1821       4 -83.3497       5 -83.4669
       6 -83.4086       7 -83.4669       8 -83.2867       9 -83.1821      10 -83.3497
      11 -83.4669      12 -83.3497      13 -83.4076      14 -83.3065      15 -83.4669
      16 -83.3065      17 -83.3701      18 -83.4086      19 -83.4669      20 -83.2867
      21 -83.4669      22 -83.3065      23 -83.3701      24 -83.2867      25 -83.3701
      26 -83.4095      27 -83.3244      28 -83.3841      29 -83.4168      30 -83.3841
      31 -83.8385      32 -83.2535      33 -83.4168      34 -83.2535      35 -83.3603
      36 -83.3841      37 -83.8385      38 -83.2535      39 -83.8385      40 -83.3440
      41 -83.2535      42 -83.3440      43 -83.4637      44 -83.4168      45 -83.2535
      46 -83.3603      47 -83.2535      48 -83.3440      49 -83.4637      50 -83.3603
      51 -83.4637      52 -83.3145      53 -27.1742      54 -83.5105
 
 
 
 E-fermi :   6.0208     XC(G=0):  -9.3856     alpha+bet :-11.8444


 k-point     1 :       0.0000    0.0000    0.0000
  band No.  band energies     occupation 
      1      -6.4934      2.00000
      2      -5.8298      2.00000
      3      -4.9207      2.00000
      4      -4.9207      2.00000
      5      -4.9038      2.00000
      6      -4.8496      2.00000
      7      -4.8455      2.00000
      8      -4.8455      2.00000
      9      -4.7137      2.00000
     10      -4.5267      2.00000
     11      -4.3599      2.00000
     12      -4.3599      2.00000
     13      -4.3072      2.00000
     14      -4.3072      2.00000
     15      -4.1231      2.00000
     16      -3.4735      2.00000
     17      -3.0889      2.00000
     18      -3.0889      2.00000
     19      -2.9895      2.00000
     20      -2.9895      2.00000
     21      -2.9836      2.00000
     22      -2.9824      2.00000
     23      -2.9737      2.00000
     24      -2.9737      2.00000
     25      -2.8610      2.00000
     26      -2.8610      2.00000
     27      -2.5086      2.00000
     28      -1.3856      2.00000
     29      -1.1941      2.00000
     30      -1.1941      2.00000
     31      -1.0670      2.00000
     32      -1.0670      2.00000
     33      -1.0522      2.00000
     34      -1.0517      2.00000
     35      -1.0448      2.00000
     36      -1.0448      2.00000
     37      -0.9145      2.00000
     38      -0.9145      2.00000
     39      -0.6942      2.00000
     40       0.2240      2.00000
     41       0.2677      2.00000
     42       0.2677      2.00000
     43       0.3457      2.00000
     44       0.4062      2.00000
     45       0.4191      2.00000
     46       0.4191      2.00000
     47       0.4452      2.00000
     48       0.6264      2.00000
     49       0.6778      2.00000
     50       0.6778      2.00000
     51       0.7768      2.00000
     52       0.7768      2.00000
     53       0.8399      2.00000
     54       1.1164      2.00000
     55       1.1164      2.00000
     56       1.2972      2.00000
     57       1.2981      2.00000
     58       1.3024      2.00000
     59       1.3024      2.00000
     60       1.3037      2.00000
     61       1.3198      2.00000
     62       1.3198      2.00000
     63       1.4021      2.00000
     64       1.5250      2.00000
     65       1.5250      2.00000
     66       2.9149      2.00000
     67       2.9149      2.00000
     68       3.2239      2.00000
     69       3.2561      2.00000
     70       3.2643      2.00000
     71       3.2643      2.00000
     72       3.2960      2.00000
     73       3.3219      2.00000
     74       3.3219      2.00000
     75       3.3484      2.00000
     76       3.3658      2.00000
     77       3.3658      2.00000
     78       3.5195      2.00000
     79       3.5195      2.00000
     80       3.5734      2.00000
     81       3.5805      2.00000
     82       3.5805      2.00000
     83       3.5836      2.00000
     84       3.6071      2.00000
     85       3.6437      2.00000
     86       3.6437      2.00000
     87       3.6496      2.00000
     88       3.8237      2.00000
     89       3.8237      2.00000
     90       4.4899      2.00000
     91       4.4899      2.00000
     92       4.6269      2.00000
     93       4.6935      2.00000
     94       4.6935      2.00000
     95       4.7011      2.00000
     96       4.7025      2.00000
     97       4.7025      2.00000
     98       4.7220      2.00000
     99       4.7325      2.00000
    100       4.7325      2.00000
    101       4.7412      2.00000
    102       4.7412      2.00000
    103       4.7499      2.00000
    104       5.0415      2.00000
    105       5.0415      2.00000
    106       5.6953      2.00000
    107       5.7681      2.00000
    108       5.7681      2.00000
    109       6.2838      0.00000
    110       6.4262      0.00000
    111       6.4262      0.00000
    112       6.4469      0.00000
    113       6.4780      0.00000
    114       6.4780      0.00000
    115       6.8368      0.00000
    116       7.2210      0.00000
    117       7.2210      0.00000
    118       7.2247      0.00000
    119       7.2725      0.00000
    120       7.2725      0.00000
    121       7.2767      0.00000
    122       7.3116      0.00000
    123       7.3167      0.00000
    124       7.3167      0.00000
    125       7.3552      0.00000
    126       7.3552      0.00000
    127       7.3662      0.00000
    128       7.4141      0.00000
    129       7.4774      0.00000
    130       7.4774      0.00000
    131       7.4895      0.00000
    132       7.5516      0.00000
    133       7.5516      0.00000
    134       7.5733      0.00000
    135       7.6953      0.00000
    136       7.7457      0.00000
    137       7.7772      0.00000
    138       7.7772      0.00000
    139       7.8153      0.00000
    140       7.8153      0.00000
    141       8.2503      0.00000
    142       8.2503      0.00000
    143       8.3016      0.00000
    144       9.0030      0.00000

 k-point     2 :       0.2500    0.0000    0.0000
  band No.  band energies     occupation 
      1      -6.4447      2.00000
      2      -5.8509      2.00000
      3      -5.3466      2.00000
      4      -5.0208      2.00000
      5      -4.9582      2.00000
      6      -4.8569      2.00000
      7      -4.7093      2.00000
      8      -4.6806      2.00000
      9      -4.6457      2.00000
     10      -4.5873      2.00000
     11      -4.4502      2.00000
     12      -4.3022      2.00000
     13      -3.9947      2.00000
     14      -3.8051      2.00000
     15      -3.7534      2.00000
     16      -3.6680      2.00000
     17      -3.5905      2.00000
     18      -3.4909      2.00000
     19      -3.1867      2.00000
     20      -3.0178      2.00000
     21      -2.9783      2.00000
     22      -2.9778      2.00000
     23      -2.9215      2.00000
     24      -2.8030      2.00000
     25      -2.7546      2.00000
     26      -2.6962      2.00000
     27      -2.4770      2.00000
     28      -1.4944      2.00000
     29      -1.3533      2.00000
     30      -1.2900      2.00000
     31      -1.2334      2.00000
     32      -1.1627      2.00000
     33      -1.0906      2.00000
     34      -1.0903      2.00000
     35      -1.0393      2.00000
     36      -0.9307      2.00000
     37      -0.7364      2.00000
     38      -0.6215      2.00000
     39      -0.5675      2.00000
     40      -0.4629      2.00000
     41      -0.1980      2.00000
     42      -0.1380      2.00000
     43      -0.0447      2.00000
     44       0.0041      2.00000
     45       0.0796      2.00000
     46       0.1736      2.00000
     47       0.7687      2.00000
     48       0.7955      2.00000
     49       0.8647      2.00000
     50       1.1792      2.00000
     51       1.2430      2.00000
     52       1.2724      2.00000
     53       1.3585      2.00000
     54       1.3731      2.00000
     55       1.4760      2.00000
     56       1.4793      2.00000
     57       1.5007      2.00000
     58       1.5050      2.00000
     59       1.5304      2.00000
     60       1.5641      2.00000
     61       1.5652      2.00000
     62       1.6479      2.00000
     63       1.7546      2.00000
     64       1.7928      2.00000
     65       1.9119      2.00000
     66       2.6290      2.00000
     67       2.7217      2.00000
     68       2.8239      2.00000
     69       2.9627      2.00000
     70       3.0422      2.00000
     71       3.1515      2.00000
     72       3.1658      2.00000
     73       3.2173      2.00000
     74       3.2634      2.00000
     75       3.2749      2.00000
     76       3.2977      2.00000
     77       3.3009      2.00000
     78       3.3227      2.00000
     79       3.3396      2.00000
     80       3.3739      2.00000
     81       3.3833      2.00000
     82       3.4540      2.00000
     83       3.5077      2.00000
     84       3.5093      2.00000
     85       3.6118      2.00000
     86       3.6306      2.00000
     87       3.7867      2.00000
     88       3.8874      2.00000
     89       3.9503      2.00000
     90       3.9519      2.00000
     91       4.0300      2.00000
     92       4.0752      2.00000
     93       4.2916      2.00000
     94       4.3561      2.00000
     95       4.3887      2.00000
     96       4.4180      2.00000
     97       4.4645      2.00000
     98       4.5293      2.00000
     99       4.5911      2.00000
    100       4.6041      2.00000
    101       4.6959      2.00000
    102       4.7186      2.00000
    103       4.8229      2.00000
    104       4.9308      2.00000
    105       4.9770      2.00000
    106       5.0658      2.00000
    107       5.5613      2.00000
    108       5.6296      2.00000
    109       6.5218      0.00000
    110       6.6024      0.00000
    111       6.6191      0.00000
    112       6.7875      0.00000
    113       6.9318      0.00000
    114       6.9364      0.00000
    115       6.9447      0.00000
    116       6.9822      0.00000
    117       6.9957      0.00000
    118       7.2413      0.00000
    119       7.4162      0.00000
    120       7.5747      0.00000
    121       7.5880      0.00000
    122       7.6259      0.00000
    123       7.7152      0.00000
    124       7.7487      0.00000
    125       7.7626      0.00000
    126       7.7925      0.00000
    127       7.7941      0.00000
    128       7.8582      0.00000
    129       7.8669      0.00000
    130       7.8809      0.00000
    131       7.8891      0.00000
    132       7.9074      0.00000
    133       7.9461      0.00000
    134       7.9763      0.00000
    135       8.0075      0.00000
    136       8.0646      0.00000
    137       8.0989      0.00000
    138       8.2845      0.00000
    139       8.4381      0.00000
    140       8.4779      0.00000
    141       8.5046      0.00000
    142       8.5492      0.00000
    143       8.5580      0.00000
    144       8.8811      0.00000

 k-point     3 :       0.5000    0.0000    0.0000
  band No.  band energies     occupation 
      1      -6.3818      2.00000
      2      -5.8852      2.00000
      3      -5.5367      2.00000
      4      -5.0304      2.00000
      5      -4.9636      2.00000
      6      -4.9391      2.00000
      7      -4.8696      2.00000
      8      -4.7796      2.00000
      9      -4.4986      2.00000
     10      -4.1824      2.00000
     11      -4.1818      2.00000
     12      -4.1148      2.00000
     13      -4.1129      2.00000
     14      -3.9947      2.00000
     15      -3.9221      2.00000
     16      -3.5019      2.00000
     17      -3.2191      2.00000
     18      -3.2176      2.00000
     19      -3.1693      2.00000
     20      -3.1591      2.00000
     21      -3.1138      2.00000
     22      -3.0029      2.00000
     23      -2.9919      2.00000
     24      -2.9701      2.00000
     25      -2.9679      2.00000
     26      -2.8943      2.00000
     27      -2.5386      2.00000
     28      -1.4140      2.00000
     29      -1.2871      2.00000
     30      -1.2209      2.00000
     31      -1.1256      2.00000
     32      -1.1251      2.00000
     33      -1.0866      2.00000
     34      -1.0688      2.00000
     35      -0.9412      2.00000
     36      -0.8759      2.00000
     37      -0.8672      2.00000
     38      -0.8116      2.00000
     39      -0.7781      2.00000
     40      -0.6066      2.00000
     41      -0.3452      2.00000
     42      -0.3348      2.00000
     43      -0.2870      2.00000
     44      -0.2407      2.00000
     45      -0.1744      2.00000
     46      -0.1138      2.00000
     47       1.1085      2.00000
     48       1.1113      2.00000
     49       1.2615      2.00000
     50       1.2955      2.00000
     51       1.3205      2.00000
     52       1.3622      2.00000
     53       1.6440      2.00000
     54       1.6595      2.00000
     55       1.6879      2.00000
     56       1.7017      2.00000
     57       1.7445      2.00000
     58       1.7454      2.00000
     59       1.8902      2.00000
     60       2.0195      2.00000
     61       2.0727      2.00000
     62       2.0941      2.00000
     63       2.1305      2.00000
     64       2.1443      2.00000
     65       2.4080      2.00000
     66       2.6043      2.00000
     67       2.6410      2.00000
     68       2.6714      2.00000
     69       2.6987      2.00000
     70       2.7309      2.00000
     71       2.8632      2.00000
     72       2.8729      2.00000
     73       2.9616      2.00000
     74       2.9659      2.00000
     75       2.9829      2.00000
     76       3.0254      2.00000
     77       3.0633      2.00000
     78       3.1487      2.00000
     79       3.1623      2.00000
     80       3.1818      2.00000
     81       3.2036      2.00000
     82       3.2969      2.00000
     83       3.3304      2.00000
     84       3.3850      2.00000
     85       3.6201      2.00000
     86       3.6430      2.00000
     87       3.7147      2.00000
     88       3.7505      2.00000
     89       3.7910      2.00000
     90       3.8148      2.00000
     91       3.8875      2.00000
     92       3.9448      2.00000
     93       3.9966      2.00000
     94       4.0016      2.00000
     95       4.0519      2.00000
     96       4.1493      2.00000
     97       4.3201      2.00000
     98       4.3933      2.00000
     99       4.4041      2.00000
    100       4.4346      2.00000
    101       4.4407      2.00000
    102       4.4819      2.00000
    103       4.5278      2.00000
    104       4.6979      2.00000
    105       5.2424      2.00000
    106       5.2698      2.00000
    107       5.2734      2.00000
    108       5.3810      2.00000
    109       6.6134      0.00000
    110       6.7497      0.00000
    111       6.7743      0.00000
    112       6.8027      0.00000
    113       6.8387      0.00000
    114       6.8829      0.00000
    115       7.1978      0.00000
    116       7.4879      0.00000
    117       7.6422      0.00000
    118       7.6768      0.00000
    119       7.6787      0.00000
    120       7.7140      0.00000
    121       7.7211      0.00000
    122       7.9163      0.00000
    123       8.0406      0.00000
    124       8.1100      0.00000
    125       8.1413      0.00000
    126       8.1599      0.00000
    127       8.1669      0.00000
    128       8.1963      0.00000
    129       8.2398      0.00000
    130       8.3240      0.00000
    131       8.3889      0.00000
    132       8.4187      0.00000
    133       8.4225      0.00000
    134       8.4633      0.00000
    135       8.5042      0.00000
    136       8.8124      0.00000
    137       8.8960      0.00000
    138       8.9109      0.00000
    139       8.9156      0.00000
    140       8.9319      0.00000
    141       9.0256      0.00000
    142       9.0461      0.00000
    143       9.0497      0.00000
    144       9.0721      0.00000

 k-point     4 :       0.2500    0.2500    0.0000
  band No.  band energies     occupation 
      1      -6.4326      2.00000
      2      -5.8330      2.00000
      3      -5.2217      2.00000
      4      -5.1984      2.00000
      5      -5.1639      2.00000
      6      -5.0812      2.00000
      7      -4.7497      2.00000
      8      -4.4091      2.00000
      9      -4.3792      2.00000
     10      -4.3359      2.00000
     11      -4.2935      2.00000
     12      -4.2549      2.00000
     13      -4.1961      2.00000
     14      -4.0851      2.00000
     15      -3.7350      2.00000
     16      -3.5468      2.00000
     17      -3.4890      2.00000
     18      -3.4475      2.00000
     19      -3.3516      2.00000
     20      -3.2669      2.00000
     21      -3.1889      2.00000
     22      -3.1756      2.00000
     23      -2.9903      2.00000
     24      -2.5724      2.00000
     25      -2.4794      2.00000
     26      -2.4175      2.00000
     27      -2.2747      2.00000
     28      -1.6744      2.00000
     29      -1.5802      2.00000
     30      -1.5052      2.00000
     31      -1.4432      2.00000
     32      -1.1535      2.00000
     33      -1.0852      2.00000
     34      -1.0842      2.00000
     35      -0.9997      2.00000
     36      -0.7576      2.00000
     37      -0.5950      2.00000
     38      -0.5512      2.00000
     39      -0.4685      2.00000
     40      -0.4615      2.00000
     41      -0.3826      2.00000
     42      -0.3579      2.00000
     43      -0.3297      2.00000
     44      -0.2222      2.00000
     45       0.4514      2.00000
     46       0.4768      2.00000
     47       0.5821      2.00000
     48       0.6101      2.00000
     49       1.1381      2.00000
     50       1.2317      2.00000
     51       1.3073      2.00000
     52       1.3230      2.00000
     53       1.3921      2.00000
     54       1.3965      2.00000
     55       1.4825      2.00000
     56       1.4854      2.00000
     57       1.5552      2.00000
     58       1.5793      2.00000
     59       1.6123      2.00000
     60       1.6356      2.00000
     61       1.7893      2.00000
     62       1.8264      2.00000
     63       1.8687      2.00000
     64       1.9221      2.00000
     65       2.2238      2.00000
     66       2.6479      2.00000
     67       2.6839      2.00000
     68       2.8536      2.00000
     69       2.8789      2.00000
     70       2.9102      2.00000
     71       2.9381      2.00000
     72       2.9511      2.00000
     73       2.9566      2.00000
     74       3.0269      2.00000
     75       3.0320      2.00000
     76       3.2342      2.00000
     77       3.2635      2.00000
     78       3.3398      2.00000
     79       3.3402      2.00000
     80       3.4993      2.00000
     81       3.5704      2.00000
     82       3.6239      2.00000
     83       3.6371      2.00000
     84       3.6697      2.00000
     85       3.7004      2.00000
     86       3.7261      2.00000
     87       3.7344      2.00000
     88       3.8445      2.00000
     89       3.8822      2.00000
     90       3.9024      2.00000
     91       4.0291      2.00000
     92       4.0587      2.00000
     93       4.0614      2.00000
     94       4.1159      2.00000
     95       4.1464      2.00000
     96       4.1641      2.00000
     97       4.2317      2.00000
     98       4.2554      2.00000
     99       4.3134      2.00000
    100       4.4523      2.00000
    101       4.4673      2.00000
    102       4.9523      2.00000
    103       4.9982      2.00000
    104       5.0372      2.00000
    105       5.0867      2.00000
    106       5.1189      2.00000
    107       5.3006      2.00000
    108       5.4152      2.00000
    109       6.2852      0.00000
    110       6.7320      0.00000
    111       6.8916      0.00000
    112       7.0121      0.00000
    113       7.0737      0.00000
    114       7.1013      0.00000
    115       7.1355      0.00000
    116       7.2747      0.00000
    117       7.3775      0.00000
    118       7.4120      0.00000
    119       7.4493      0.00000
    120       7.4744      0.00000
    121       7.4770      0.00000
    122       7.5051      0.00000
    123       7.5098      0.00000
    124       7.6708      0.00000
    125       7.7973      0.00000
    126       7.8554      0.00000
    127       7.8846      0.00000
    128       7.9919      0.00000
    129       8.0354      0.00000
    130       8.1087      0.00000
    131       8.1298      0.00000
    132       8.1604      0.00000
    133       8.1904      0.00000
    134       8.2092      0.00000
    135       8.2145      0.00000
    136       8.2270      0.00000
    137       8.2551      0.00000
    138       8.3051      0.00000
    139       8.3320      0.00000
    140       8.3540      0.00000
    141       8.7823      0.00000
    142       8.7950      0.00000
    143       8.8470      0.00000
    144       8.9684      0.00000

 k-point     5 :       0.5000    0.2500    0.0000
  band No.  band energies     occupation 
      1      -6.3734      2.00000
      2      -5.8081      2.00000
      3      -5.5704      2.00000
      4      -5.3247      2.00000
      5      -5.1362      2.00000
      6      -4.9513      2.00000
      7      -4.6938      2.00000
      8      -4.4995      2.00000
      9      -4.3839      2.00000
     10      -4.2441      2.00000
     11      -4.1139      2.00000
     12      -4.0555      2.00000
     13      -3.9499      2.00000
     14      -3.8988      2.00000
     15      -3.7756      2.00000
     16      -3.6491      2.00000
     17      -3.5951      2.00000
     18      -3.5287      2.00000
     19      -3.4255      2.00000
     20      -3.3578      2.00000
     21      -3.3419      2.00000
     22      -3.1376      2.00000
     23      -2.7584      2.00000
     24      -2.6627      2.00000
     25      -2.5837      2.00000
     26      -2.4961      2.00000
     27      -2.2994      2.00000
     28      -1.6408      2.00000
     29      -1.5003      2.00000
     30      -1.4353      2.00000
     31      -1.3871      2.00000
     32      -1.3210      2.00000
     33      -1.1332      2.00000
     34      -1.0593      2.00000
     35      -1.0365      2.00000
     36      -0.9609      2.00000
     37      -0.7822      2.00000
     38      -0.6791      2.00000
     39      -0.6544      2.00000
     40      -0.5924      2.00000
     41      -0.5431      2.00000
     42      -0.3508      2.00000
     43      -0.1757      2.00000
     44      -0.0142      2.00000
     45       0.0541      2.00000
     46       0.1314      2.00000
     47       0.7054      2.00000
     48       0.7815      2.00000
     49       0.8643      2.00000
     50       1.5167      2.00000
     51       1.6184      2.00000
     52       1.6783      2.00000
     53       1.7235      2.00000
     54       1.7498      2.00000
     55       1.7984      2.00000
     56       1.8763      2.00000
     57       1.9821      2.00000
     58       2.0193      2.00000
     59       2.1596      2.00000
     60       2.2054      2.00000
     61       2.2281      2.00000
     62       2.2543      2.00000
     63       2.2784      2.00000
     64       2.2941      2.00000
     65       2.3520      2.00000
     66       2.4681      2.00000
     67       2.4982      2.00000
     68       2.5938      2.00000
     69       2.6574      2.00000
     70       2.7013      2.00000
     71       2.7394      2.00000
     72       2.7720      2.00000
     73       2.7885      2.00000
     74       2.8528      2.00000
     75       2.9189      2.00000
     76       2.9523      2.00000
     77       3.0359      2.00000
     78       3.0727      2.00000
     79       3.0978      2.00000
     80       3.1402      2.00000
     81       3.1695      2.00000
     82       3.2057      2.00000
     83       3.3751      2.00000
     84       3.4582      2.00000
     85       3.4916      2.00000
     86       3.5309      2.00000
     87       3.5926      2.00000
     88       3.6390      2.00000
     89       3.7393      2.00000
     90       3.7838      2.00000
     91       3.8466      2.00000
     92       3.9237      2.00000
     93       3.9454      2.00000
     94       4.0109      2.00000
     95       4.0691      2.00000
     96       4.1001      2.00000
     97       4.1497      2.00000
     98       4.1718      2.00000
     99       4.2401      2.00000
    100       4.2753      2.00000
    101       4.3420      2.00000
    102       4.4796      2.00000
    103       4.6832      2.00000
    104       4.7958      2.00000
    105       4.8742      2.00000
    106       4.9391      2.00000
    107       5.1976      2.00000
    108       5.3644      2.00000
    109       6.5009      0.00000
    110       6.9896      0.00000
    111       7.1374      0.00000
    112       7.2262      0.00000
    113       7.2537      0.00000
    114       7.3928      0.00000
    115       7.4459      0.00000
    116       7.4763      0.00000
    117       7.6555      0.00000
    118       7.7423      0.00000
    119       7.7995      0.00000
    120       7.8432      0.00000
    121       7.8748      0.00000
    122       7.9239      0.00000
    123       8.0311      0.00000
    124       8.1332      0.00000
    125       8.1945      0.00000
    126       8.2589      0.00000
    127       8.3079      0.00000
    128       8.3469      0.00000
    129       8.3659      0.00000
    130       8.3911      0.00000
    131       8.4347      0.00000
    132       8.4908      0.00000
    133       8.6374      0.00000
    134       8.6619      0.00000
    135       8.6911      0.00000
    136       8.7244      0.00000
    137       8.7330      0.00000
    138       8.7694      0.00000
    139       8.8439      0.00000
    140       8.8743      0.00000
    141       8.9045      0.00000
    142       8.9417      0.00000
    143       8.9634      0.00000
    144       8.9874      0.00000

 k-point     6 :      -0.2500    0.2500    0.0000
  band No.  band energies     occupation 
      1      -6.3881      2.00000
      2      -5.8451      2.00000
      3      -5.5215      2.00000
      4      -5.2812      2.00000
      5      -4.9947      2.00000
      6      -4.9150      2.00000
      7      -4.6498      2.00000
      8      -4.6464      2.00000
      9      -4.4939      2.00000
     10      -4.3479      2.00000
     11      -4.1882      2.00000
     12      -4.1066      2.00000
     13      -4.0674      2.00000
     14      -3.9896      2.00000
     15      -3.7267      2.00000
     16      -3.5628      2.00000
     17      -3.4956      2.00000
     18      -3.3733      2.00000
     19      -3.3393      2.00000
     20      -3.1839      2.00000
     21      -3.1748      2.00000
     22      -3.0516      2.00000
     23      -3.0046      2.00000
     24      -2.9204      2.00000
     25      -2.7389      2.00000
     26      -2.5238      2.00000
     27      -2.2777      2.00000
     28      -1.7896      2.00000
     29      -1.3901      2.00000
     30      -1.2281      2.00000
     31      -1.1488      2.00000
     32      -1.1063      2.00000
     33      -1.0437      2.00000
     34      -0.9784      2.00000
     35      -0.9437      2.00000
     36      -0.9022      2.00000
     37      -0.8883      2.00000
     38      -0.8410      2.00000
     39      -0.8005      2.00000
     40      -0.7638      2.00000
     41      -0.6676      2.00000
     42      -0.5177      2.00000
     43       0.1729      2.00000
     44       0.2237      2.00000
     45       0.2566      2.00000
     46       0.3970      2.00000
     47       0.4615      2.00000
     48       0.5201      2.00000
     49       0.5431      2.00000
     50       1.4520      2.00000
     51       1.5174      2.00000
     52       1.5606      2.00000
     53       1.6773      2.00000
     54       1.7385      2.00000
     55       1.7720      2.00000
     56       1.7903      2.00000
     57       1.8098      2.00000
     58       1.8140      2.00000
     59       1.9958      2.00000
     60       2.0236      2.00000
     61       2.0926      2.00000
     62       2.1123      2.00000
     63       2.1985      2.00000
     64       2.3045      2.00000
     65       2.3409      2.00000
     66       2.4344      2.00000
     67       2.4989      2.00000
     68       2.6184      2.00000
     69       2.6427      2.00000
     70       2.7196      2.00000
     71       2.7449      2.00000
     72       2.7652      2.00000
     73       2.8326      2.00000
     74       3.0100      2.00000
     75       3.0504      2.00000
     76       3.0699      2.00000
     77       3.1135      2.00000
     78       3.1528      2.00000
     79       3.1937      2.00000
     80       3.2662      2.00000
     81       3.3002      2.00000
     82       3.3460      2.00000
     83       3.3776      2.00000
     84       3.4497      2.00000
     85       3.4983      2.00000
     86       3.5402      2.00000
     87       3.6455      2.00000
     88       3.7246      2.00000
     89       3.7484      2.00000
     90       3.7919      2.00000
     91       3.8883      2.00000
     92       3.8929      2.00000
     93       4.0561      2.00000
     94       4.1153      2.00000
     95       4.2422      2.00000
     96       4.3172      2.00000
     97       4.3571      2.00000
     98       4.3962      2.00000
     99       4.4174      2.00000
    100       4.4654      2.00000
    101       4.4942      2.00000
    102       4.5414      2.00000
    103       4.6208      2.00000
    104       4.6485      2.00000
    105       4.8171      2.00000
    106       4.8510      2.00000
    107       4.9992      2.00000
    108       5.5991      2.00000
    109       6.6555      0.00000
    110       6.8947      0.00000
    111       6.9343      0.00000
    112       7.0854      0.00000
    113       7.1687      0.00000
    114       7.2844      0.00000
    115       7.4213      0.00000
    116       7.4884      0.00000
    117       7.5258      0.00000
    118       7.5639      0.00000
    119       7.6009      0.00000
    120       7.6286      0.00000
    121       7.6373      0.00000
    122       7.7446      0.00000
    123       7.8304      0.00000
    124       8.0333      0.00000
    125       8.1330      0.00000
    126       8.1611      0.00000
    127       8.1815      0.00000
    128       8.2517      0.00000
    129       8.3084      0.00000
    130       8.3315      0.00000
    131       8.3537      0.00000
    132       8.3587      0.00000
    133       8.3692      0.00000
    134       8.3807      0.00000
    135       8.4110      0.00000
    136       8.5598      0.00000
    137       8.5991      0.00000
    138       8.6465      0.00000
    139       8.7718      0.00000
    140       8.8614      0.00000
    141       8.9269      0.00000
    142       8.9443      0.00000
    143       9.0256      0.00000
    144       9.0625      0.00000

 k-point     7 :       0.5000    0.5000    0.0000
  band No.  band energies     occupation 
      1      -6.3618      2.00000
      2      -5.7507      2.00000
      3      -5.5648      2.00000
      4      -5.3053      2.00000
      5      -5.3010      2.00000
      6      -5.2064      2.00000
      7      -4.6935      2.00000
      8      -4.0584      2.00000
      9      -4.0051      2.00000
     10      -3.9840      2.00000
     11      -3.9675      2.00000
     12      -3.9624      2.00000
     13      -3.8885      2.00000
     14      -3.8799      2.00000
     15      -3.8442      2.00000
     16      -3.8033      2.00000
     17      -3.7744      2.00000
     18      -3.7527      2.00000
     19      -3.7329      2.00000
     20      -3.6952      2.00000
     21      -3.6444      2.00000
     22      -3.3157      2.00000
     23      -2.3702      2.00000
     24      -2.1379      2.00000
     25      -2.0638      2.00000
     26      -2.0508      2.00000
     27      -2.0122      2.00000
     28      -2.0015      2.00000
     29      -1.9660      2.00000
     30      -1.9085      2.00000
     31      -1.9026      2.00000
     32      -1.6442      2.00000
     33      -1.0096      2.00000
     34      -0.9821      2.00000
     35      -0.8997      2.00000
     36      -0.8984      2.00000
     37      -0.8864      2.00000
     38      -0.8696      2.00000
     39      -0.7792      2.00000
     40      -0.7087      2.00000
     41      -0.1008      2.00000
     42      -0.0375      2.00000
     43       0.0511      2.00000
     44       0.0643      2.00000
     45       0.0835      2.00000
     46       0.1112      2.00000
     47       0.2040      2.00000
     48       0.2891      2.00000
     49       1.6769      2.00000
     50       1.6903      2.00000
     51       1.8783      2.00000
     52       1.9750      2.00000
     53       2.0093      2.00000
     54       2.0138      2.00000
     55       2.0467      2.00000
     56       2.0646      2.00000
     57       2.0662      2.00000
     58       2.0723      2.00000
     59       2.0824      2.00000
     60       2.0830      2.00000
     61       2.1225      2.00000
     62       2.1326      2.00000
     63       2.1562      2.00000
     64       2.1767      2.00000
     65       2.1855      2.00000
     66       2.2190      2.00000
     67       2.2545      2.00000
     68       2.3566      2.00000
     69       2.7654      2.00000
     70       2.7778      2.00000
     71       2.8473      2.00000
     72       2.8661      2.00000
     73       2.9145      2.00000
     74       2.9269      2.00000
     75       2.9644      2.00000
     76       2.9709      2.00000
     77       3.0047      2.00000
     78       3.0292      2.00000
     79       3.2038      2.00000
     80       3.2150      2.00000
     81       3.3174      2.00000
     82       3.3259      2.00000
     83       3.3740      2.00000
     84       3.3929      2.00000
     85       3.4073      2.00000
     86       3.4119      2.00000
     87       3.4314      2.00000
     88       3.4684      2.00000
     89       3.5474      2.00000
     90       3.5806      2.00000
     91       3.6694      2.00000
     92       3.7179      2.00000
     93       3.7622      2.00000
     94       3.9118      2.00000
     95       3.9246      2.00000
     96       3.9351      2.00000
     97       3.9451      2.00000
     98       3.9774      2.00000
     99       4.1257      2.00000
    100       4.1408      2.00000
    101       4.4667      2.00000
    102       4.5288      2.00000
    103       4.5699      2.00000
    104       4.6374      2.00000
    105       5.1027      2.00000
    106       5.1430      2.00000
    107       5.1571      2.00000
    108       5.3267      2.00000
    109       6.4063      0.00000
    110       6.4419      0.00000
    111       7.2807      0.00000
    112       7.4139      0.00000
    113       7.5636      0.00000
    114       7.6812      0.00000
    115       7.7341      0.00000
    116       7.7584      0.00000
    117       7.7630      0.00000
    118       7.7716      0.00000
    119       7.7773      0.00000
    120       7.9446      0.00000
    121       8.2663      0.00000
    122       8.3030      0.00000
    123       8.3358      0.00000
    124       8.4220      0.00000
    125       8.4298      0.00000
    126       8.4576      0.00000
    127       8.4652      0.00000
    128       8.4996      0.00000
    129       8.5179      0.00000
    130       8.5326      0.00000
    131       8.5474      0.00000
    132       8.5784      0.00000
    133       8.5804      0.00000
    134       8.5881      0.00000
    135       8.6335      0.00000
    136       8.6840      0.00000
    137       8.6880      0.00000
    138       8.7303      0.00000
    139       8.7613      0.00000
    140       8.8589      0.00000
    141       9.1415      0.00000
    142       9.1600      0.00000
    143       9.2758      0.00000
[...]
   50        0.751   0.940   0.000   1.691
   51        0.752   0.934   0.000   1.685
   52        0.751   0.943   0.000   1.694
   53        0.653   1.086   0.000   1.739
   54        1.019   1.435   0.000   2.454
--------------------------------------------------
tot         40.734  50.958   0.000  91.692
 
    CHARGE:  cpu time    0.2136: real time    0.2152
    FORLOC:  cpu time    0.0354: real time    0.0356
    FORNL :  cpu time    3.0399: real time    3.0674
    STRESS:  cpu time    9.9271: real time   10.0134
    FORCOR:  cpu time    0.1075: real time    0.1082
    FORHAR:  cpu time    0.0479: real time    0.0482
    MIXING:  cpu time    0.0133: real time    0.0134
    OFIELD:  cpu time    0.0001: real time    0.0001

  FORCE on cell =-STRESS in cart. coord.  units (eV):
  Direction    XX          YY          ZZ          XY          YZ          ZX
  --------------------------------------------------------------------------------------
  Alpha Z    96.03251    96.03251    96.03251
  Ewald   -2058.43869 -2058.93774 -2056.44251     0.70575     1.22241     1.72874
  Hartree   140.83529   140.44318   142.40373     0.55453     0.96047     1.35831
  E(xc)    -683.47989  -683.48329  -683.46629     0.00481     0.00833     0.01178
  Local    -798.25008  -797.36270  -801.79963    -1.25495    -2.17364    -3.07400
  n-local  2059.30829  2074.57269  2080.95625    -2.26069    -3.58232    -0.35942
  augment  -313.08893  -313.06314  -313.19208    -0.03647    -0.06317    -0.08933
  Kinetic  1526.90383  1551.82599  1559.58052    -2.64338    -6.33812    -2.22328
  Fock        0.00000     0.00000     0.00000     0.00000     0.00000     0.00000
  -------------------------------------------------------------------------------------
  Total       1.28463     1.26182     1.37588     0.03226     0.05588     0.07903
  in kB       1.90399     1.87018     2.03924     0.04782     0.08282     0.11713
  external pressure =        1.94 kB  Pullay stress =        0.00 kB


 VOLUME and BASIS-vectors are now :
 -----------------------------------------------------------------------------
  energy-cutoff  :      550.00
  volume of cell :     1080.99
      direct lattice vectors                 reciprocal lattice vectors
     9.976465530  0.000000000  5.759915070     0.100235900 -0.035438742  0.000000000
     3.325488510  9.405901920  5.759915070     0.000000000  0.106316227  0.000000000
     0.000000000  0.000000000 11.519830140    -0.050117950 -0.035438742  0.086806836

  length of vectors
    11.519830124 11.519830136 11.519830140     0.106316227  0.106316227  0.106316227


 FORCES acting on ions
    electron-ion (+dipol)            ewald-force                    non-local-force                 convergence-correction
 -----------------------------------------------------------------------------------------------
   0.273E+01 0.193E+01 -.116E+02   -.294E+01 -.208E+01 0.112E+02   0.220E+00 0.156E+00 0.450E+00   -.140E-02 -.990E-03 -.375E-02
   -.248E+01 -.176E+01 0.203E+01   0.155E+01 0.110E+01 -.234E+01   0.932E+00 0.659E+00 0.303E+00   -.158E-02 -.112E-02 0.185E-02
   -.199E+01 -.114E+02 -.344E+01   0.175E+01 0.112E+02 0.303E+01   0.240E+00 0.212E+00 0.416E+00   -.178E-02 -.207E-02 -.308E-02
   -.192E+00 -.154E+01 -.262E+01   0.208E+00 0.139E+01 0.239E+01   -.194E-01 0.151E+00 0.235E+00   0.250E-03 0.645E-03 0.120E-02
   -.143E+01 -.276E+01 0.529E+01   0.131E+01 0.314E+01 -.472E+01   0.113E+00 -.367E+00 -.580E+00   -.553E-03 -.225E-03 0.863E-03
   -.655E+00 0.341E+01 -.113E+01   0.101E+00 -.301E+01 0.175E+00   0.553E+00 -.412E+00 0.958E+00   -.257E-03 0.262E-02 -.445E-03
   0.164E+01 0.592E+01 -.195E-01   -.175E+01 -.552E+01 0.584E+00   0.994E-01 -.405E+00 -.557E+00   -.106E-03 0.104E-02 0.887E-04
   -.661E+00 0.806E+00 0.934E+00   0.394E+00 -.480E+00 -.557E+00   0.261E+00 -.317E+00 -.366E+00   -.844E-03 0.944E-03 0.105E-02
   -.114E+02 0.193E+01 -.344E+01   0.111E+02 -.208E+01 0.303E+01   0.280E+00 0.156E+00 0.416E+00   -.254E-02 -.990E-03 -.308E-02
   -.151E+01 0.332E+00 -.262E+01   0.138E+01 -.267E+00 0.239E+01   0.136E+00 -.686E-01 0.235E+00   0.692E-03 0.209E-04 0.120E-02
   -.308E+01 -.425E+00 0.529E+01   0.340E+01 0.192E+00 -.472E+01   -.308E+00 0.229E+00 -.580E+00   -.396E-03 -.447E-03 0.863E-03
   -.218E+01 -.154E+01 -.148E+01   0.197E+01 0.139E+01 0.138E+01   0.213E+00 0.151E+00 0.101E+00   0.912E-03 0.645E-03 0.816E-03
   0.101E+00 0.716E-01 0.175E+00   -.647E-01 -.458E-01 -.112E+00   -.364E-01 -.258E-01 -.631E-01   -.401E-03 -.284E-03 -.695E-03
   -.261E+01 -.185E+01 0.146E+01   0.245E+01 0.173E+01 -.140E+01   0.169E+00 0.120E+00 -.637E-01   0.116E-03 0.820E-04 0.258E-03
   -.837E+00 0.592E+01 0.141E+01   0.138E+01 -.552E+01 -.122E+01   -.532E+00 -.405E+00 -.193E+00   0.130E-03 0.104E-02 -.473E-04
   -.886E+00 0.304E+01 -.154E+01   0.823E+00 -.287E+01 0.143E+01   0.663E-01 -.172E+00 0.115E+00   0.132E-03 0.129E-03 0.229E-03
   0.251E-01 0.114E+00 0.200E+00   -.150E-01 -.160E+00 -.270E+00   -.110E-01 0.446E-01 0.665E-01   -.197E-02 0.525E-03 -.280E-03
   0.300E+01 -.176E+01 -.113E+01   -.280E+01 0.110E+01 0.175E+00   -.204E+00 0.659E+00 0.958E+00   0.239E-02 -.112E-02 -.445E-03
   0.612E+01 -.425E+00 -.195E-01   -.579E+01 0.192E+00 0.584E+00   -.348E+00 0.229E+00 -.557E+00   0.946E-03 -.447E-03 0.887E-04
   0.539E+00 -.892E+00 0.934E+00   -.322E+00 0.532E+00 -.557E+00   -.211E+00 0.352E+00 -.366E+00   0.609E-03 -.111E-02 0.105E-02
   0.530E+01 -.276E+01 0.141E+01   -.474E+01 0.314E+01 -.122E+01   -.559E+00 -.367E+00 -.193E+00   0.102E-02 -.225E-03 -.473E-04
   0.257E+01 -.185E+01 -.154E+01   -.243E+01 0.173E+01 0.143E+01   -.140E+00 0.120E+00 0.115E+00   0.166E-03 0.820E-04 0.229E-03
   0.116E+00 -.143E-01 0.200E+00   -.156E+00 0.393E-01 -.270E+00   0.384E-01 -.252E-01 0.665E-01   -.162E-03 -.203E-02 -.280E-03
   0.114E+01 0.806E+00 -.106E+00   -.679E+00 -.480E+00 0.629E-01   -.448E+00 -.317E+00 0.433E-01   0.134E-02 0.944E-03 -.204E-03
   0.161E+00 0.114E+00 0.122E+00   -.227E+00 -.160E+00 -.148E+00   0.631E-01 0.446E-01 0.237E-01   0.743E-03 0.525E-03 -.185E-02
   -.182E-01 -.128E-01 -.315E-01   0.544E-01 0.385E-01 0.942E-01   -.345E-01 -.244E-01 -.598E-01   0.861E-03 0.609E-03 0.149E-02
   -.505E+00 -.357E+00 -.875E+00   0.538E+00 0.381E+00 0.933E+00   -.338E-01 -.239E-01 -.585E-01   0.733E-03 0.518E-03 0.127E-02
   0.570E+00 0.403E+00 0.719E+00   -.614E+00 -.434E+00 -.769E+00   0.559E-01 0.395E-01 0.575E-01   0.726E-03 0.513E-03 -.105E-02
   0.212E+01 0.150E+01 0.178E+00   -.212E+01 -.150E+01 -.182E+00   -.138E-02 -.976E-03 0.522E-02   0.165E-02 0.116E-02 0.530E-03
   0.493E+00 0.184E+00 0.853E+00   -.529E+00 -.193E+00 -.916E+00   0.445E-01 0.742E-02 0.772E-01   0.609E-04 -.137E-02 0.105E-03
   0.873E+01 0.625E+00 0.606E+01   -.119E+02 0.813E+00 -.555E+01   0.316E+01 -.143E+01 -.511E+00   0.321E-02 -.119E-02 -.943E-04
   0.214E+01 0.202E+01 -.691E+01   -.195E+01 -.164E+01 0.633E+01   -.184E+00 -.377E+00 0.581E+00   -.513E-04 -.671E-03 -.769E-03
   0.111E+01 -.135E+01 0.193E+01   -.111E+01 0.135E+01 -.193E+01   0.818E-03 0.524E-02 0.142E-02   0.976E-03 -.732E-03 0.169E-02
   -.116E+01 -.732E+01 -.119E+01   0.974E+00 0.664E+01 0.127E+01   0.193E+00 0.687E+00 -.703E-01   0.518E-04 -.380E-03 -.947E-03
   0.842E-01 -.502E+00 -.771E+00   -.876E-01 0.459E+00 0.699E+00   0.261E-02 0.449E-01 0.748E-01   0.632E-04 -.663E-03 -.105E-02
   0.337E+00 0.403E+00 0.853E+00   -.359E+00 -.434E+00 -.916E+00   0.218E-01 0.395E-01 0.772E-01   -.127E-02 0.513E-03 0.105E-03
   0.350E+01 0.802E+01 0.606E+01   -.320E+01 -.115E+02 -.555E+01   -.295E+00 0.346E+01 -.511E+00   -.545E-04 0.342E-02 -.943E-04
   0.262E+01 0.135E+01 -.691E+01   -.219E+01 -.129E+01 0.633E+01   -.417E+00 -.475E-01 0.581E+00   -.650E-03 0.175E-03 -.769E-03
   0.883E+00 0.625E+00 0.106E+02   0.115E+01 0.813E+00 -.131E+02   -.202E+01 -.143E+01 0.248E+01   -.169E-02 -.119E-02 0.273E-02
   0.434E+01 0.307E+01 -.413E+01   -.341E+01 -.241E+01 0.367E+01   -.935E+00 -.661E+00 0.437E+00   0.474E-03 0.335E-03 0.155E-02
   -.450E+00 -.732E+01 -.160E+01   0.610E+00 0.664E+01 0.148E+01   -.157E+00 0.687E+00 0.132E+00   -.846E-03 -.380E-03 -.429E-03
   0.978E+00 -.644E+01 0.169E+01   -.646E+00 0.541E+01 -.112E+01   -.341E+00 0.102E+01 -.591E+00   0.684E-03 0.929E-03 0.119E-02
   0.789E+00 -.441E+00 -.265E+00   -.580E+00 0.101E+00 -.170E+00   -.203E+00 0.344E+00 0.444E+00   -.151E-02 0.418E-03 -.190E-03
   -.906E+00 0.150E+01 0.193E+01   0.903E+00 -.150E+01 -.193E+01   0.522E-02 -.976E-03 0.142E-02   -.364E-03 0.116E-02 0.169E-02
   -.729E+01 0.135E+01 -.119E+01   0.658E+01 -.129E+01 0.127E+01   0.712E+00 -.475E-01 -.703E-01   -.341E-03 0.175E-03 -.947E-03
   -.445E+00 0.247E+00 -.771E+00   0.403E+00 -.236E+00 0.699E+00   0.432E-01 -.125E-01 0.748E-01   -.604E-03 0.281E-03 -.105E-02
   -.706E+01 0.202E+01 -.160E+01   0.646E+01 -.164E+01 0.148E+01   0.595E+00 -.377E+00 0.132E+00   -.640E-03 -.671E-03 -.429E-03
   -.575E+01 0.307E+01 0.169E+01   0.489E+01 -.241E+01 -.112E+01   0.846E+00 -.661E+00 -.591E+00   0.110E-02 0.335E-03 0.119E-02
   -.153E+00 0.891E+00 -.265E+00   -.983E-01 -.581E+00 -.170E+00   0.256E+00 -.306E+00 0.444E+00   -.109E-03 -.156E-02 -.190E-03
   -.710E+00 -.502E+00 -.313E+00   0.649E+00 0.459E+00 0.274E+00   0.635E-01 0.449E-01 0.396E-01   -.938E-03 -.663E-03 -.469E-03
   -.624E+00 -.441E+00 0.551E+00   0.143E+00 0.101E+00 -.588E+00   0.486E+00 0.344E+00 0.457E-01   0.592E-03 0.418E-03 -.140E-02
   -.170E+00 -.120E+00 -.294E+00   0.206E+00 0.145E+00 0.356E+00   -.369E-01 -.261E-01 -.639E-01   0.961E-03 0.680E-03 0.166E-02
   -.389E+01 -.275E+01 -.673E+01   0.488E+01 0.345E+01 0.846E+01   -.101E+01 -.711E+00 -.174E+01   -.261E-02 -.184E-02 -.452E-02
   0.575E+01 0.407E+01 0.996E+01   -.555E+01 -.392E+01 -.961E+01   -.217E+00 -.154E+00 -.376E+00   0.187E-02 0.132E-02 0.324E-02
 -----------------------------------------------------------------------------------------------
   -.117E+01 -.827E+00 -.203E+01   0.320E-13 -.142E-13 -.107E-13   0.117E+01 0.828E+00 0.203E+01   -.212E-03 -.150E-03 -.368E-03
 
 
 POSITION                                       TOTAL-FORCE (eV/Angst)
 -----------------------------------------------------------------------------------
      3.98697      2.81921     10.35305         0.003830      0.002708     -0.011344
      3.87219      2.73805     14.40035        -0.001339     -0.000947     -0.001357
      4.98215      5.63401      8.62934        -0.001360     -0.011971     -0.002356
      4.99245      5.87371     12.47412        -0.002697      0.003086      0.003483
      4.99073      5.88552     16.34196        -0.001148      0.011322     -0.003146
      6.09312      9.01979     10.55359        -0.001061     -0.000161     -0.001838
      6.10200      9.02866     14.41719        -0.007202     -0.005802      0.007340
      6.09720      9.00915     18.23211        -0.006568      0.009625      0.011925
      6.97252      2.81921      8.62934        -0.011739      0.002708     -0.002356
      7.20194      2.74902     12.47412         0.002011     -0.003571      0.003483
      7.21250      2.74347     16.34196         0.010292     -0.004856     -0.003146
      8.30668      5.87371     10.56065         0.004365      0.003086     -0.000594
      8.31668      5.88078     14.40491        -0.000364     -0.000257     -0.000630
      8.30569      5.87301     18.23449         0.006970      0.004928     -0.000177
      9.43465      9.02866     12.49308         0.009958     -0.005802     -0.002567
      9.41669      9.01539     16.31018         0.003434     -0.005073      0.005947
      9.42341      9.01153     20.15638        -0.002893     -0.001322     -0.003829
     10.53498      2.73805     10.55359        -0.000506     -0.000947     -0.001838
     10.54630      2.74347     14.41719        -0.007871     -0.004856      0.007340
     10.52631      2.74545     18.23211         0.006885     -0.009401      0.011925
     11.65718      5.88552     12.49308        -0.002151      0.011322     -0.002567
     11.63868      5.87301     16.31018        -0.003638      0.004928      0.005947
     11.63729      5.88063     20.15638        -0.002211     -0.002287     -0.003829
     12.74087      9.00915     14.39639         0.013611      0.009625      0.000274
     12.74423      9.01153     18.23910        -0.001870     -0.001322     -0.004420
     12.75038      9.01588     22.08431         0.002571      0.001818      0.004454
      0.55779      0.39442      0.96612         0.000208      0.000147      0.000360
      0.54855      0.38788      4.79539         0.012546      0.008871      0.006612
      0.55292      0.39097      8.63855        -0.000436     -0.000308      0.001710
      1.65858      3.52754      2.87275         0.008182     -0.003472      0.014171
      1.71689      3.51974      6.73897        -0.016136      0.005847      0.000232
      1.71798      3.52119     10.55526         0.005764      0.001351      0.003215
      2.77019      6.66237      4.79812         0.000276      0.001705      0.000477
      2.81879      6.63474      8.64861         0.005095     -0.000543      0.004374
      2.77255      6.65795     12.47312        -0.000744      0.001100      0.001366
      3.87866      0.38788      2.87275        -0.000547      0.008871      0.014171
      3.89074      0.44545      6.73897         0.000134     -0.017162      0.000232
      3.89247      0.44600     10.55526         0.003195      0.004984      0.003215
      4.97767      3.51974      4.85635         0.008269      0.005847     -0.013859
      4.98174      3.52263     12.42704        -0.005392     -0.003813     -0.018536
      6.08052      6.63474      6.76544         0.001241     -0.000543      0.006599
      6.07825      6.62401     10.52784        -0.008047     -0.011322     -0.013938
      6.09818      6.65793     14.39315         0.004228      0.003641      0.008387
      7.20475      0.39097      4.79812         0.001699     -0.000308      0.000477
      7.19488      0.44600      8.64861         0.001187      0.004984      0.004374
      7.20136      0.39467     12.47312         0.000789     -0.001068      0.001366
      8.28213      3.52119      6.76544        -0.000098      0.001351      0.006599
      8.27126      3.52263     10.52784        -0.013357     -0.003813     -0.013938
      8.30989      3.53011     14.39315         0.004842      0.002772      0.008387
      9.41577      6.65795      8.63766         0.001555      0.001100      0.000039
      9.41574      6.65793     12.47775         0.005149      0.003641      0.007855
      9.42475      6.66431     16.32415        -0.000010     -0.000007     -0.000018
      4.97149      3.51537      8.61087        -0.013991     -0.009893     -0.024234
      3.98446      2.81744      6.90129        -0.014906     -0.010540     -0.025818
 -----------------------------------------------------------------------------------
    total drift:                                0.000677      0.000478      0.001172


--------------------------------------------------------------------------------------------------------



  FREE ENERGIE OF THE ION-ELECTRON SYSTEM (eV)
  ---------------------------------------------------
  free  energy   TOTEN  =      -293.78438369 eV

  energy  without entropy=     -293.78438369  energy(sigma->0) =     -293.78438369
 
 d Force = 0.1132491E-02[ 0.646E-03, 0.162E-02]  d Energy = 0.1123757E-02 0.873E-05
 d Force =-0.1385507E+00[-0.140E+00,-0.137E+00]  d Ewald  =-0.1385560E+00 0.530E-05


--------------------------------------------------------------------------------------------------------


    POTLOK:  cpu time    0.0886: real time    0.0925


--------------------------------------------------------------------------------------------------------


 Conjugate gradient step on ions:
 trial-energy change:   -0.001124  1 .order   -0.001132   -0.001619   -0.000646
  (g-gl).g = 0.115E-02      g.g   = 0.118E-02  gl.gl    = 0.412E-02
 g(Force)  = 0.118E-02   g(Stress)= 0.000E+00 ortho     = 0.486E-04
 gamma     =   0.27916
 trial     =   1.35348
 opt step  =   2.25205  (harmonic =   2.25205) maximal distance =0.00237489
 next E    =  -293.784607   (d E  =  -0.00135)


--------------------------------------------------------------------------------------------------------


  
 reached required accuracy - stopping structural energy minimisation
 writing wavefunctions
     LOOP+:  cpu time   49.5487: real time   50.0749
    4ORBIT:  cpu time    0.0000: real time    0.0000
 


 total charge     
 
# of ion       s       p       d       tot
------------------------------------------
    1        0.749   0.901   0.000   1.650
    2        0.752   0.924   0.000   1.676
    3        0.748   0.901   0.000   1.649
    4        0.751   0.942   0.000   1.693
    5        0.752   0.936   0.000   1.687
    6        0.751   0.925   0.000   1.676
    7        0.752   0.936   0.000   1.688
    8        0.751   0.931   0.000   1.682
    9        0.749   0.901   0.000   1.650
   10        0.751   0.942   0.000   1.694
   11        0.751   0.936   0.000   1.687
   12        0.751   0.943   0.000   1.694
   13        0.751   0.944   0.000   1.695
   14        0.751   0.941   0.000   1.692
   15        0.752   0.936   0.000   1.688
   16        0.751   0.941   0.000   1.692
   17        0.751   0.941   0.000   1.692
   18        0.751   0.925   0.000   1.676
   19        0.752   0.936   0.000   1.687
   20        0.750   0.932   0.000   1.683
   21        0.752   0.936   0.000   1.688
   22        0.751   0.941   0.000   1.693
   23        0.751   0.941   0.000   1.692
   24        0.751   0.931   0.000   1.682
   25        0.751   0.941   0.000   1.692
   26        0.751   0.941   0.000   1.692
   27        0.751   0.943   0.000   1.694
   28        0.751   0.943   0.000   1.694
   29        0.751   0.941   0.000   1.693
   30        0.751   0.943   0.000   1.694
   31        0.753   0.894   0.000   1.647
   32        0.752   0.932   0.000   1.684
   33        0.751   0.942   0.000   1.693
   34        0.751   0.932   0.000   1.683
   35        0.751   0.940   0.000   1.691
   36        0.751   0.943   0.000   1.694
   37        0.754   0.891   0.000   1.645
   38        0.751   0.932   0.000   1.683
   39        0.754   0.889   0.000   1.644
   40        0.752   0.922   0.000   1.674
   41        0.751   0.932   0.000   1.683
   42        0.751   0.922   0.000   1.673
   43        0.751   0.934   0.000   1.685
   44        0.751   0.941   0.000   1.692
   45        0.751   0.932   0.000   1.684
   46        0.751   0.940   0.000   1.691
   47        0.752   0.933   0.000   1.684
   48        0.751   0.922   0.000   1.673
   49        0.751   0.933   0.000   1.684
   50        0.751   0.940   0.000   1.691
   51        0.752   0.934   0.000   1.685
   52        0.751   0.943   0.000   1.694
   53        0.653   1.086   0.000   1.739
   54        1.019   1.435   0.000   2.454
--------------------------------------------------
tot         40.734  50.958   0.000  91.692
 

 total amount of memory used by VASP MPI-rank0   203693. kBytes
=======================================================================

   base      :      30000. kBytes
   nonl-proj :     106606. kBytes
   fftplans  :       5382. kBytes
   grid      :      21405. kBytes
   one-center:        165. kBytes
   wavefun   :      40135. kBytes
 
  
  
 General timing and accounting informations for this job:
 ========================================================
  
                  Total CPU time used (sec):      571.451
                            User time (sec):      564.693
                          System time (sec):        6.758
                         Elapsed time (sec):      581.967
  
                   Maximum memory used (kb):      518696.
                   Average memory used (kb):           0.
  
                          Minor page faults:        38242
                          Major page faults:            0
                 Voluntary context switches:         6611
