 vasp.6.3.0 20Jan22 (build Mar 07 2022 09:35:52) complex                        
  
 executed on             LinuxIFC date 2025.10.02  15:43:31
 running on   64 total cores
 distrk:  each k-point on   64 cores,    1 groups
 distr:  one band on NCORE=   1 cores,   64 groups


--------------------------------------------------------------------------------------------------------


 INCAR:
   ALGO = Normal
   AMIX = 0.2
   EDIFF = 1e-06
   EDIFFG = -0.05
   ENCUT = 550
   IBRION = 2
   ISIF = 2
   ISMEAR = 0
   ISPIN = 1
   ISYM = 2
   LCHARG = .FALSE.
   LORBIT = 11
   LREAL = .FALSE.
   LVTOT = True
   LWAVE = .FALSE.
   NELECT = 384.0
   NELM = 200
   NSW = 0
   SIGMA = 0.05
   SYSTEM = SiO2

 POTCAR:    PAW_PBE Si 05Jan2001                  
 POTCAR:    PAW_PBE P 06Sep2000                   
 POTCAR:    PAW_PBE O 08Apr2002                   
 WARNING: For LVTOT=.TRUE., VASP.5.x writes the TOTAL local potential to the
     file LOCPOT. If you want only the Hartree contributions, use LVHAR=.TRUE.
     instead. 

 -----------------------------------------------------------------------------
|                                                                             |
|           W    W    AA    RRRRR   N    N  II  N    N   GGGG   !!!           |
|           W    W   A  A   R    R  NN   N  II  NN   N  G    G  !!!           |
|           W    W  A    A  R    R  N N  N  II  N N  N  G       !!!           |
|           W WW W  AAAAAA  RRRRR   N  N N  II  N  N N  G  GGG   !            |
|           WW  WW  A    A  R   R   N   NN  II  N   NN  G    G                |
|           W    W  A    A  R    R  N    N  II  N    N   GGGG   !!!           |
|                                                                             |
|     For optimal performance we recommend to set                             |
|       NCORE = 2 up to number-of-cores-per-socket                            |
|     NCORE specifies how many cores store one orbital (NPAR=cpu/NCORE).      |
|     This setting can greatly improve the performance of VASP for DFT.       |
|     The default, NCORE=1 might be grossly inefficient on modern             |
|     multi-core architectures or massively parallel machines. Do your        |
|     own testing! More info at https://www.vasp.at/wiki/index.php/NCORE      |
|     Unfortunately you need to use the default for GW and RPA                |
|     calculations (for HF NCORE is supported but not extensively tested      |
|     yet).                                                                   |
|                                                                             |
 -----------------------------------------------------------------------------

 POTCAR:    PAW_PBE Si 05Jan2001                  
   VRHFIN =Si: s2p2                                                                                 
   LEXCH  = PE                                                                                      
   EATOM  =   103.0669 eV,    7.5752 Ry                                                             
                                                                                                    
   TITEL  = PAW_PBE Si 05Jan2001                                                                    
   LULTRA =        F    use ultrasoft PP ?                                                          
   IUNSCR =        1    unscreen: 0-lin 1-nonlin 2-no                                               
   RPACOR =    1.500    partial core radius                                                         
   POMASS =   28.085; ZVAL   =    4.000    mass and valenz                                          
   RCORE  =    1.900    outmost cutoff radius                                                       
   RWIGS  =    2.480; RWIGS  =    1.312    wigner-seitz radius (au A)                               
   ENMAX  =  245.345; ENMIN  =  184.009 eV                                                          
   ICORE  =        2    local potential                                                             
   LCOR   =        T    correct aug charges                                                         
   LPAW   =        T    paw PP                                                                      
   EAUG   =  322.069                                                                                
   DEXC   =    0.000                                                                                
   RMAX   =    1.950    core radius for proj-oper                                                   
   RAUG   =    1.300    factor for augmentation sphere                                              
   RDEP   =    1.993    radius for radial grids                                                     
   RDEPT  =    1.837    core radius for aug-charge                                                  
                                                                                                    
   Atomic configuration                                                                             
    6 entries                                                                                       
     n  l   j            E        occ.                                                              
     1  0  0.50     -1785.8828   2.0000                                                             
     2  0  0.50      -139.4969   2.0000                                                             
     2  1  1.50       -95.5546   6.0000                                                             
     3  0  0.50       -10.8127   2.0000                                                             
     3  1  0.50        -4.0811   2.0000                                                             
     3  2  1.50        -4.0817   0.0000                                                             
   Description                                                                                      
     l       E           TYP  RCUT    TYP  RCUT                                                     
     0    -10.8127223     23  1.900                                                                 
     0     -7.6451159     23  1.900                                                                 
     1     -4.0811372     23  1.900                                                                 
     1      2.4879257     23  1.900                                                                 
     2     -4.0817478      7  1.900                                                                 
  local pseudopotential read in
  partial core-charges read in
  partial kinetic energy density read in
  atomic valenz-charges read in
  non local Contribution for L=           0  read in
    real space projection operators read in
  non local Contribution for L=           0  read in
    real space projection operators read in
  non local Contribution for L=           1  read in
    real space projection operators read in
  non local Contribution for L=           1  read in
    real space projection operators read in
    PAW grid and wavefunctions read in
 
   number of l-projection  operators is LMAX  =           4
   number of lm-projection operators is LMMAX =           8
 
 POTCAR:    PAW_PBE P 06Sep2000                   
   VRHFIN =P : s2p3                                                                                 
   LEXCH  = PE                                                                                      
   EATOM  =   176.0430 eV,   12.9388 Ry                                                             
                                                                                                    
   TITEL  = PAW_PBE P 06Sep2000                                                                     
   LULTRA =        F    use ultrasoft PP ?                                                          
   IUNSCR =        1    unscreen: 0-lin 1-nonlin 2-no                                               
   RPACOR =    1.500    partial core radius                                                         
   POMASS =   30.974; ZVAL   =    5.000    mass and valenz                                          
   RCORE  =    1.900    outmost cutoff radius                                                       
   RWIGS  =    2.330; RWIGS  =    1.233    wigner-seitz radius (au A)                               
   ENMAX  =  255.040; ENMIN  =  191.280 eV                                                          
   ICORE  =        2    local potential                                                             
   LCOR   =        T    correct aug charges                                                         
   LPAW   =        T    paw PP                                                                      
   EAUG   =  342.924                                                                                
   DEXC   =    0.000                                                                                
   RMAX   =    1.935    core radius for proj-oper                                                   
   RAUG   =    1.300    factor for augmentation sphere                                              
   RDEP   =    1.931    radius for radial grids                                                     
   RDEPT  =    1.794    core radius for aug-charge                                                  
                                                                                                    
   Atomic configuration                                                                             
    6 entries                                                                                       
     n  l   j            E        occ.                                                              
     1  0  0.50     -2084.0982   2.0000                                                             
     2  0  0.50      -173.9859   2.0000                                                             
     2  1  1.50      -124.4865   6.0000                                                             
     3  0  0.50       -13.9692   2.0000                                                             
     3  1  0.50        -5.5067   3.0000                                                             
     3  2  1.50        -5.4423   0.0000                                                             
   Description                                                                                      
     l       E           TYP  RCUT    TYP  RCUT                                                     
     0    -13.9691527     23  1.900                                                                 
     0    -11.7794650     23  1.900                                                                 
     1     -5.5066937     23  1.900                                                                 
     1     -0.2556953     23  1.900                                                                 
     2     -5.4423304     23  1.900                                                                 
  local pseudopotential read in
  partial core-charges read in
  partial kinetic energy density read in
  atomic valenz-charges read in
  non local Contribution for L=           0  read in
    real space projection operators read in
  non local Contribution for L=           0  read in
    real space projection operators read in
  non local Contribution for L=           1  read in
    real space projection operators read in
  non local Contribution for L=           1  read in
    real space projection operators read in
    PAW grid and wavefunctions read in
 
   number of l-projection  operators is LMAX  =           4
   number of lm-projection operators is LMMAX =           8
 
 POTCAR:    PAW_PBE O 08Apr2002                   
   VRHFIN =O: s2p4                                                                                  
   LEXCH  = PE                                                                                      
   EATOM  =   432.3788 eV,   31.7789 Ry                                                             
                                                                                                    
   TITEL  = PAW_PBE O 08Apr2002                                                                     
   LULTRA =        F    use ultrasoft PP ?                                                          
   IUNSCR =        1    unscreen: 0-lin 1-nonlin 2-no                                               
   RPACOR =    1.200    partial core radius                                                         
   POMASS =   16.000; ZVAL   =    6.000    mass and valenz                                          
   RCORE  =    1.520    outmost cutoff radius                                                       
   RWIGS  =    1.550; RWIGS  =    0.820    wigner-seitz radius (au A)                               
   ENMAX  =  400.000; ENMIN  =  300.000 eV                                                          
   ICORE  =        2    local potential                                                             
   LCOR   =        T    correct aug charges                                                         
   LPAW   =        T    paw PP                                                                      
   EAUG   =  605.392                                                                                
   DEXC   =    0.000                                                                                
   RMAX   =    1.553    core radius for proj-oper                                                   
   RAUG   =    1.300    factor for augmentation sphere                                              
   RDEP   =    1.550    radius for radial grids                                                     
   RDEPT  =    1.329    core radius for aug-charge                                                  
                                                                                                    
   Atomic configuration                                                                             
    4 entries                                                                                       
     n  l   j            E        occ.                                                              
     1  0  0.50      -514.6923   2.0000                                                             
     2  0  0.50       -23.9615   2.0000                                                             
     2  1  0.50        -9.0305   4.0000                                                             
     3  2  1.50        -9.5241   0.0000                                                             
   Description                                                                                      
     l       E           TYP  RCUT    TYP  RCUT                                                     
     0    -23.9615318     23  1.200                                                                 
     0     -9.5240782     23  1.200                                                                 
     1     -9.0304911     23  1.520                                                                 
     1      8.1634956     23  1.520                                                                 
     2     -9.5240782      7  1.500                                                                 
  local pseudopotential read in
  partial core-charges read in
  partial kinetic energy density read in
  kinetic energy density of atom read in
  atomic valenz-charges read in
  non local Contribution for L=           0  read in
    real space projection operators read in
  non local Contribution for L=           0  read in
    real space projection operators read in
  non local Contribution for L=           1  read in
    real space projection operators read in
  non local Contribution for L=           1  read in
    real space projection operators read in
    PAW grid and wavefunctions read in
 
   number of l-projection  operators is LMAX  =           4
   number of lm-projection operators is LMMAX =           8
 
 -----------------------------------------------------------------------------
|                                                                             |
|               ----> ADVICE to this user running VASP <----                  |
|                                                                             |
|     You have a (more or less) 'large supercell' and for larger cells it     |
|     might be more efficient to use real-space projection operators.         |
|     Therefore, try LREAL= Auto in the INCAR file.                           |
|     Mind: For very accurate calculation, you might also keep the            |
|     reciprocal projection scheme (i.e. LREAL=.FALSE.).                      |
|                                                                             |
 -----------------------------------------------------------------------------

  PAW_PBE Si 05Jan2001                  :
 energy of atom  1       EATOM= -103.0669
 kinetic energy error for atom=    0.0004 (will be added to EATOM!!)
  PAW_PBE P 06Sep2000                   :
 energy of atom  2       EATOM= -176.0430
 kinetic energy error for atom=    0.0008 (will be added to EATOM!!)
  PAW_PBE O 08Apr2002                   :
 energy of atom  3       EATOM= -432.3788
 kinetic energy error for atom=    0.0194 (will be added to EATOM!!)
 
 
 POSCAR: Si23 P1 O48
  positions in direct lattice
  No initial velocities read in
 exchange correlation table for  LEXCH =        8
   RHO(1)=    0.500       N(1)  =     2000
   RHO(2)=  100.500       N(2)  =     4000

 VTST: version 4.2, (08/11/21)

 CHAIN: initializing optimizer
 
 OPT: Using VASP Conjugate-Gradient optimizer
 CHAIN: Read ICHAIN            0
 
 POSCAR: Si23 P1 O48
  positions in direct lattice
  No initial velocities read in
 


--------------------------------------------------------------------------------------------------------


 ion  position               nearest neighbor table
   1  0.266  0.266  0.500-  65 1.61  34 1.61  50 1.62  25 1.62  12 3.06  19 3.06  17 3.06   8 3.06

   2  0.266  0.766  0.000-  68 1.61  35 1.61  51 1.62  28 1.62  15 3.06  16 3.06  11 3.06  18 3.06

   3  0.266  0.766  0.500-  67 1.61  36 1.61  52 1.62  27 1.62  14 3.06  17 3.06  10 3.06  19 3.06

   4  0.766  0.266  0.000-  70 1.61  37 1.61  53 1.62  30 1.62   9 3.06  22 3.06  20 3.06  13 3.06

   5  0.766  0.266  0.500-  69 1.61  38 1.61  54 1.62  29 1.62   8 3.06  23 3.06  21 3.06  12 3.06

   6  0.766  0.766  0.000-  72 1.61  39 1.61  55 1.62  32 1.62  11 3.06  20 3.06  15 3.06  22 3.06

   7  0.766  0.766  0.500-  71 1.61  40 1.61  56 1.62  31 1.62  10 3.06  21 3.06  14 3.06  23 3.06

   8  0.000  0.234  0.333-  25 1.61  61 1.61  41 1.62  69 1.62   5 3.06   1 3.06  18 3.06  20 3.06

   9  0.000  0.234  0.833-  26 1.61  62 1.61  42 1.62  70 1.62   4 3.06  19 3.06  21 3.06
  10  0.000  0.734  0.333-  27 1.61  63 1.61  43 1.62  71 1.62   7 3.06   3 3.06  16 3.06  22 3.06

  11  0.000  0.734  0.833-  28 1.61  64 1.61  44 1.62  72 1.62   6 3.06   2 3.06  17 3.06  23 3.06

  12  0.500  0.234  0.333-  29 1.61  57 1.61  45 1.62  65 1.62   1 3.06   5 3.06  16 3.06  22 3.06

  13  0.500  0.234  0.833-  30 1.61  58 1.61  46 1.62  66 1.62   4 3.06  17 3.06  23 3.06
  14  0.500  0.734  0.333-  31 1.61  59 1.61  47 1.62  67 1.62   3 3.06   7 3.06  18 3.06  20 3.06

  15  0.500  0.734  0.833-  32 1.61  60 1.61  48 1.62  68 1.62   2 3.06   6 3.06  19 3.06  21 3.06

  16  0.234  0.000  0.167-  49 1.61  43 1.61  35 1.62  57 1.62   2 3.06  10 3.06  12 3.06
  17  0.234  0.000  0.667-  50 1.61  44 1.61  36 1.62  58 1.62   3 3.06   1 3.06  11 3.06  13 3.06

  18  0.234  0.500  0.167-  51 1.61  41 1.61  33 1.62  59 1.62   2 3.06   8 3.06  14 3.06
  19  0.234  0.500  0.667-  52 1.61  42 1.61  34 1.62  60 1.62   1 3.06   3 3.06   9 3.06  15 3.06

  20  0.734  0.000  0.167-  53 1.61  47 1.61  39 1.62  61 1.62   6 3.06   4 3.06   8 3.06  14 3.06

  21  0.734  0.000  0.667-  54 1.61  48 1.61  40 1.62  62 1.62   7 3.06   5 3.06   9 3.06  15 3.06

  22  0.734  0.500  0.167-  55 1.61  45 1.61  37 1.62  63 1.62   4 3.06   6 3.06  10 3.06  12 3.06

  23  0.734  0.500  0.667-  56 1.61  46 1.61  38 1.62  64 1.62   5 3.06   7 3.06  11 3.06  13 3.06

  24  0.266  0.266  0.000-  66 1.61  33 1.61  49 1.62  26 1.62
  25  0.135  0.207  0.392-   8 1.61   1 1.62
  26  0.135  0.207  0.892-   9 1.61  24 1.62
  27  0.135  0.707  0.392-  10 1.61   3 1.62
  28  0.135  0.707  0.892-  11 1.61   2 1.62
  29  0.635  0.207  0.392-  12 1.61   5 1.62
  30  0.635  0.207  0.892-  13 1.61   4 1.62
  31  0.635  0.707  0.392-  14 1.61   7 1.62
  32  0.635  0.707  0.892-  15 1.61   6 1.62
  33  0.293  0.428  0.059-  24 1.61  18 1.62
  34  0.293  0.428  0.559-   1 1.61  19 1.62
  35  0.293  0.928  0.059-   2 1.61  16 1.62
  36  0.293  0.928  0.559-   3 1.61  17 1.62
  37  0.793  0.428  0.059-   4 1.61  22 1.62
  38  0.793  0.428  0.559-   5 1.61  23 1.62
  39  0.793  0.928  0.059-   6 1.61  20 1.62
  40  0.793  0.928  0.559-   7 1.61  21 1.62
  41  0.072  0.365  0.226-  18 1.61   8 1.62
  42  0.072  0.365  0.726-  19 1.61   9 1.62
  43  0.072  0.865  0.226-  16 1.61  10 1.62
  44  0.072  0.865  0.726-  17 1.61  11 1.62
  45  0.572  0.365  0.226-  22 1.61  12 1.62
  46  0.572  0.365  0.726-  23 1.61  13 1.62
  47  0.572  0.865  0.226-  20 1.61  14 1.62
  48  0.572  0.865  0.726-  21 1.61  15 1.62
  49  0.207  0.135  0.108-  16 1.61  24 1.62
  50  0.207  0.135  0.608-  17 1.61   1 1.62
  51  0.207  0.635  0.108-  18 1.61   2 1.62
  52  0.207  0.635  0.608-  19 1.61   3 1.62
  53  0.707  0.135  0.108-  20 1.61   4 1.62
  54  0.707  0.135  0.608-  21 1.61   5 1.62
  55  0.707  0.635  0.108-  22 1.61   6 1.62
  56  0.707  0.635  0.608-  23 1.61   7 1.62
  57  0.365  0.072  0.274-  12 1.61  16 1.62
  58  0.365  0.072  0.774-  13 1.61  17 1.62
  59  0.365  0.572  0.274-  14 1.61  18 1.62
  60  0.365  0.572  0.774-  15 1.61  19 1.62
  61  0.865  0.072  0.274-   8 1.61  20 1.62
  62  0.865  0.072  0.774-   9 1.61  21 1.62
  63  0.865  0.572  0.274-  10 1.61  22 1.62
  64  0.865  0.572  0.774-  11 1.61  23 1.62
  65  0.428  0.293  0.441-   1 1.61  12 1.62
  66  0.428  0.293  0.941-  24 1.61  13 1.62
  67  0.428  0.793  0.441-   3 1.61  14 1.62
  68  0.428  0.793  0.941-   2 1.61  15 1.62
  69  0.928  0.293  0.441-   5 1.61   8 1.62
  70  0.928  0.293  0.941-   4 1.61   9 1.62
  71  0.928  0.793  0.441-   7 1.61  10 1.62
  72  0.928  0.793  0.941-   6 1.61  11 1.62
 
  LATTYP: Found a hexagonal cell.
 ALAT       =     9.8299323535
 C/A-ratio  =     1.1050536148
  
  Lattice vectors:
  
 A1 = (   4.9149661767,  -8.5129711356,   0.0000000000)
 A2 = (   4.9149661767,   8.5129711356,   0.0000000000)
 A3 = (   0.0000000000,   0.0000000000,  10.8626022800)


Analysis of symmetry for initial positions (statically):
=====================================================================
 Subroutine PRICEL returns:
 Original cell was already a primitive cell.
 

 Routine SETGRP: Setting up the symmetry group for a 
 hexagonal supercell.


 Subroutine GETGRP returns: Found  2 space group operations
 (whereof  2 operations were pure point group operations)
 out of a pool of 24 trial point group operations.


The static configuration has the point symmetry C_2 .


Analysis of symmetry for dynamics (positions and initial velocities):
=====================================================================
 Subroutine PRICEL returns:
 Original cell was already a primitive cell.
 

 Routine SETGRP: Setting up the symmetry group for a 
 hexagonal supercell.


 Subroutine GETGRP returns: Found  2 space group operations
 (whereof  2 operations were pure point group operations)
 out of a pool of 24 trial point group operations.


The dynamic configuration has the point symmetry C_2 .


 Subroutine INISYM returns: Found  2 space group operations
 (whereof  2 operations are pure point group operations),
 and found     1 'primitive' translations


----------------------------------------------------------------------------------------

                                     Primitive cell                                     

  volume of cell :     909.0035

  direct lattice vectors                    reciprocal lattice vectors
     4.914966177 -8.512971136  0.000000000     0.101730100 -0.058733901  0.000000000
     4.914966177  8.512971136  0.000000000     0.101730100  0.058733901  0.000000000
     0.000000000  0.000000000 10.862602280     0.000000000  0.000000000  0.092058972

  length of vectors
     9.829932353  9.829932353 10.862602280     0.117467801  0.117467801  0.092058972

  position of ions in fractional coordinates (direct lattice)
     0.265544295  0.265544295  0.500000000
     0.265544295  0.765544295  0.000000000
     0.265544295  0.765544295  0.500000000
     0.765544295  0.265544295  0.000000000
     0.765544295  0.265544295  0.500000000
     0.765544295  0.765544295  0.000000000
     0.765544295  0.765544295  0.500000000
     1.000000000  0.234455705  0.333333333
     1.000000000  0.234455705  0.833333333
     1.000000000  0.734455705  0.333333333
     1.000000000  0.734455705  0.833333333
     0.500000000  0.234455705  0.333333333
     0.500000000  0.234455705  0.833333333
     0.500000000  0.734455705  0.333333333
     0.500000000  0.734455705  0.833333333
     0.234455705  1.000000000  0.166666667
     0.234455705  1.000000000  0.666666667
     0.234455705  0.500000000  0.166666667
     0.234455705  0.500000000  0.666666667
     0.734455705  1.000000000  0.166666667
     0.734455705  1.000000000  0.666666667
     0.734455705  0.500000000  0.166666667
     0.734455705  0.500000000  0.666666667
     0.265544295  0.265544295  0.000000000
     0.134611555  0.206697145  0.392445490
     0.134611555  0.206697145  0.892445490
     0.134611555  0.706697145  0.392445490
     0.134611555  0.706697145  0.892445490
     0.634611555  0.206697145  0.392445490
     0.634611555  0.206697145  0.892445490
     0.634611555  0.706697145  0.392445490
     0.634611555  0.706697145  0.892445490
     0.293302855  0.427914410  0.059112157
     0.293302855  0.427914410  0.559112157
     0.293302855  0.927914410  0.059112157
     0.293302855  0.927914410  0.559112157
     0.793302855  0.427914410  0.059112157
     0.793302855  0.427914410  0.559112157
     0.793302855  0.927914410  0.059112157
     0.793302855  0.927914410  0.559112157
     0.072085590  0.365388445  0.225778823
     0.072085590  0.365388445  0.725778823
     0.072085590  0.865388445  0.225778823
     0.072085590  0.865388445  0.725778823
     0.572085590  0.365388445  0.225778823
     0.572085590  0.365388445  0.725778823
     0.572085590  0.865388445  0.225778823
     0.572085590  0.865388445  0.725778823
     0.206697145  0.134611555  0.107554510
     0.206697145  0.134611555  0.607554510
     0.206697145  0.634611555  0.107554510
     0.206697145  0.634611555  0.607554510
     0.706697145  0.134611555  0.107554510
     0.706697145  0.134611555  0.607554510
     0.706697145  0.634611555  0.107554510
     0.706697145  0.634611555  0.607554510
     0.365388445  0.072085590  0.274221177
     0.365388445  0.072085590  0.774221177
     0.365388445  0.572085590  0.274221177
     0.365388445  0.572085590  0.774221177
     0.865388445  0.072085590  0.274221177
     0.865388445  0.072085590  0.774221177
     0.865388445  0.572085590  0.274221177
     0.865388445  0.572085590  0.774221177
     0.427914410  0.293302855  0.440887843
     0.427914410  0.293302855  0.940887843
     0.427914410  0.793302855  0.440887843
     0.427914410  0.793302855  0.940887843
     0.927914410  0.293302855  0.440887843
     0.927914410  0.293302855  0.940887843
     0.927914410  0.793302855  0.440887843
     0.927914410  0.793302855  0.940887843

  ion indices of the primitive-cell ions
   primitive index   ion index
                 1           1
                 2           2
                 3           3
                 4           4
                 5           5
                 6           6
                 7           7
                 8           8
                 9           9
                10          10
                11          11
                12          12
                13          13
                14          14
                15          15
                16          16
                17          17
                18          18
                19          19
                20          20
                21          21
                22          22
                23          23
                24          24
                25          25
                26          26
                27          27
                28          28
                29          29
                30          30
                31          31
                32          32
                33          33
                34          34
                35          35
                36          36
                37          37
                38          38
                39          39
                40          40
                41          41
                42          42
                43          43
                44          44
                45          45
                46          46
                47          47
                48          48
                49          49
                50          50
                51          51
                52          52
                53          53
                54          54
                55          55
                56          56
                57          57
                58          58
                59          59
                60          60
                61          61
                62          62
                63          63
                64          64
                65          65
                66          66
                67          67
                68          68
                69          69
                70          70
                71          71
                72          72

----------------------------------------------------------------------------------------

 
 
 KPOINTS: pymatgen with grid density = 1000 / numb

Automatic generation of k-mesh.
 Grid dimensions read from file:
 generate k-points for:    2    2    2

 Generating k-lattice:

  Cartesian coordinates                     Fractional coordinates (reciprocal lattice)
     0.050865050 -0.029366950  0.000000000     0.500000000 -0.000000000  0.000000000
     0.050865050  0.029366950  0.000000000    -0.000000000  0.500000000  0.000000000
     0.000000000  0.000000000  0.046029486     0.000000000  0.000000000  0.500000000

  Length of vectors
     0.058733901  0.058733901  0.046029486

  Shift w.r.t. Gamma in fractional coordinates (k-lattice)
     0.000000000  0.000000000  0.000000000

 
 Subroutine IBZKPT returns following result:
 ===========================================
 
 Found      6 irreducible k-points:
 
 Following reciprocal coordinates:
            Coordinates               Weight
  0.000000  0.000000  0.000000      1.000000
  0.500000  0.000000  0.000000      2.000000
  0.500000  0.500000  0.000000      1.000000
  0.000000  0.000000  0.500000      1.000000
  0.500000  0.000000  0.500000      2.000000
  0.500000  0.500000  0.500000      1.000000
 
 Following cartesian coordinates:
            Coordinates               Weight
  0.000000  0.000000  0.000000      1.000000
  0.050865 -0.029367  0.000000      2.000000
  0.101730  0.000000  0.000000      1.000000
  0.000000  0.000000  0.046029      1.000000
  0.050865 -0.029367  0.046029      2.000000
  0.101730  0.000000  0.046029      1.000000
 


--------------------------------------------------------------------------------------------------------




 Dimension of arrays:
   k-points           NKPTS =      6   k-points in BZ     NKDIM =      6   number of bands    NBANDS=    256
   number of dos      NEDOS =    301   number of ions     NIONS =     72
   non local maximal  LDIM  =      4   non local SUM 2l+1 LMDIM =      8
   total plane-waves  NPLWV = 200704
   max r-space proj   IRMAX =      1   max aug-charges    IRDMAX=   7581
   dimension x,y,z NGX =    56 NGY =   56 NGZ =   64
   dimension x,y,z NGXF=   112 NGYF=  112 NGZF=  128
   support grid    NGXF=   112 NGYF=  112 NGZF=  128
   ions per type =              23   1  48
   NGX,Y,Z   is equivalent  to a cutoff of   9.47,  9.47,  9.79 a.u.
   NGXF,Y,Z  is equivalent  to a cutoff of  18.94, 18.94, 19.59 a.u.

 SYSTEM =  SiO2                                    
 POSCAR =  Si23 P1 O48                             

 Startparameter for this run:
   NWRITE =      2    write-flag & timer
   PREC   = normal    normal or accurate (medium, high low for compatibility)
   ISTART =      0    job   : 0-new  1-cont  2-samecut
   ICHARG =      2    charge: 1-file 2-atom 10-const
   ISPIN  =      1    spin polarized calculation?
   LNONCOLLINEAR =      F non collinear calculations
   LSORBIT =      F    spin-orbit coupling
   INIWAV =      1    electr: 0-lowe 1-rand  2-diag
   LASPH  =      F    aspherical Exc in radial PAW
 Electronic Relaxation 1
   ENCUT  =  550.0 eV  40.42 Ry    6.36 a.u.  18.80 18.80 20.77*2*pi/ulx,y,z
   ENINI  =  550.0     initial cutoff
   ENAUG  =  605.4 eV  augmentation charge cutoff
   NELM   =    200;   NELMIN=  2; NELMDL= -5     # of ELM steps 
   EDIFF  = 0.1E-05   stopping-criterion for ELM
   LREAL  =      F    real-space projection
   NLSPLINE    = F    spline interpolate recip. space projectors
   LCOMPAT=      F    compatible to vasp.4.4
   GGA_COMPAT  = T    GGA compatible to vasp.4.4-vasp.4.6
   LMAXPAW     = -100 max onsite density
   LMAXMIX     =    2 max onsite mixed and CHGCAR
   VOSKOWN=      0    Vosko Wilk Nusair interpolation
   ROPT   =    0.00000   0.00000   0.00000
 Ionic relaxation
   EDIFFG = -.5E-01   stopping-criterion for IOM
   NSW    =      0    number of steps for IOM
   NBLOCK =      1;   KBLOCK =      1    inner block; outer block 
   IBRION =     -1    ionic relax: 0-MD 1-quasi-New 2-CG
   NFREE  =      1    steps in history (QN), initial steepest desc. (CG)
   ISIF   =      2    stress and relaxation
   IWAVPR =     10    prediction:  0-non 1-charg 2-wave 3-comb
   ISYM   =      2    0-nonsym 1-usesym 2-fastsym
   LCORR  =      T    Harris-Foulkes like correction to forces

   POTIM  = 0.5000    time-step for ionic-motion
   TEIN   =    0.0    initial temperature
   TEBEG  =    0.0;   TEEND  =   0.0 temperature during run
   SMASS  =  -3.00    Nose mass-parameter (am)
   estimated Nose-frequenzy (Omega)   =  0.10E-29 period in steps = 0.13E+47 mass=  -0.221E-26a.u.
   SCALEE = 1.0000    scale energy and forces
   NPACO  =    256;   APACO  = 10.0  distance and # of slots for P.C.
   PSTRESS=    0.0 pullay stress

  Mass of Ions in am
   POMASS =  28.09 30.97 16.00
  Ionic Valenz
   ZVAL   =   4.00  5.00  6.00
  Atomic Wigner-Seitz radii
   RWIGS  =  -1.00 -1.00 -1.00
  virtual crystal weights 
   VCA    =   1.00  1.00  1.00
   NELECT =     384.0000    total number of electrons
   NUPDOWN=      -1.0000    fix difference up-down

 DOS related values:
   EMIN   =  10.00;   EMAX   =-10.00  energy-range for DOS
   EFERMI =   0.00
   ISMEAR =     0;   SIGMA  =   0.05  broadening in eV -4-tet -1-fermi 0-gaus

 Electronic relaxation 2 (details)
   IALGO  =     38    algorithm
   LDIAG  =      T    sub-space diagonalisation (order eigenvalues)
   LSUBROT=      F    optimize rotation matrix (better conditioning)
   TURBO    =      0    0=normal 1=particle mesh
   IRESTART =      0    0=no restart 2=restart with 2 vectors
   NREBOOT  =      0    no. of reboots
   NMIN     =      0    reboot dimension
   EREF     =   0.00    reference energy to select bands
   IMIX   =      4    mixing-type and parameters
     AMIX     =   0.20;   BMIX     =  1.00
     AMIX_MAG =   0.80;   BMIX_MAG =  1.00
     AMIN     =   0.10
     WC   =   100.;   INIMIX=   1;  MIXPRE=   1;  MAXMIX= -45

 Intra band minimization:
   WEIMIN = 0.0000     energy-eigenvalue tresh-hold
   EBREAK =  0.98E-09  absolut break condition
   DEPER  =   0.30     relativ break condition  

   TIME   =   0.40     timestep for ELM

  volume/ion in A,a.u.               =      12.63        85.20
  Fermi-wavevector in a.u.,A,eV,Ry     =   1.228372  2.321287 20.529814  1.508899
  Thomas-Fermi vector in A             =   2.363300
 
 Write flags
   LWAVE        =      F    write WAVECAR
   LDOWNSAMPLE  =      F    k-point downsampling of WAVECAR
   LCHARG       =      F    write CHGCAR
   LVTOT        =      T    write LOCPOT, total local potential
   LVHAR        =      F    write LOCPOT, Hartree potential only
   LELF         =      F    write electronic localiz. function (ELF)
   LORBIT       =     11    0 simple, 1 ext, 2 COOP (PROOUT), +10 PAW based schemes


 Dipole corrections
   LMONO  =      F    monopole corrections only (constant potential shift)
   LDIPOL =      F    correct potential (dipole corrections)
   IDIPOL =      0    1-x, 2-y, 3-z, 4-all directions 
   EPSILON=  1.0000000 bulk dielectric constant

 Exchange correlation treatment:
   GGA     =    --    GGA type
   LEXCH   =     8    internal setting for exchange type
   LIBXC   =     F    Libxc                    
   VOSKOWN =     0    Vosko Wilk Nusair interpolation
   LHFCALC =     F    Hartree Fock is set to
   LHFONE  =     F    Hartree Fock one center treatment
   AEXX    =    0.0000 exact exchange contribution

 Linear response parameters
   LEPSILON=     F    determine dielectric tensor
   LRPA    =     F    only Hartree local field effects (RPA)
   LNABLA  =     F    use nabla operator in PAW spheres
   LVEL    =     F    velocity operator in full k-point grid
   CSHIFT  =0.1000    complex shift for real part using Kramers Kronig
   OMEGAMAX=  -1.0    maximum frequency
   DEG_THRESHOLD= 0.2000000E-02 threshold for treating states as degnerate
   RTIME   =   -0.100 relaxation time in fs
  (WPLASMAI=    0.000 imaginary part of plasma frequency in eV, 0.658/RTIME)
   DFIELD  = 0.0000000 0.0000000 0.0000000 field for delta impulse in time
 
  Optional k-point grid parameters
   LKPOINTS_OPT  =     F    use optional k-point grid
   KPOINTS_OPT_MODE=     1    mode for optional k-point grid
 
 Orbital magnetization related:
   ORBITALMAG=     F  switch on orbital magnetization
   LCHIMAG   =     F  perturbation theory with respect to B field
   DQ        =  0.001000  dq finite difference perturbation B field
   LLRAUG    =     F  two centre corrections for induced B field



--------------------------------------------------------------------------------------------------------


 Static calculation
 charge density and potential will be updated during run
 non-spin polarized calculation
 Variant of blocked Davidson
 Davidson routine will perform the subspace rotation
 perform sub-space diagonalisation
    after iterative eigenvector-optimisation
 modified Broyden-mixing scheme, WC =      100.0
 initial mixing is a Kerker type mixing with AMIX =  0.2000 and BMIX =      1.0000
 Hartree-type preconditioning will be used
 using additional bands           64
 reciprocal scheme for non local part
 use partial core corrections
 calculate Harris-corrections to forces 
   (improved forces if not selfconsistent)
 use gradient corrections 
 use of overlap-Matrix (Vanderbilt PP)
 Gauss-broadening in eV      SIGMA  =   0.05


--------------------------------------------------------------------------------------------------------


  energy-cutoff  :      550.00
  volume of cell :      909.00
      direct lattice vectors                 reciprocal lattice vectors
     4.914966177 -8.512971136  0.000000000     0.101730100 -0.058733901  0.000000000
     4.914966177  8.512971136  0.000000000     0.101730100  0.058733901  0.000000000
     0.000000000  0.000000000 10.862602280     0.000000000  0.000000000  0.092058972

  length of vectors
     9.829932353  9.829932353 10.862602280     0.117467801  0.117467801  0.092058972


 
 k-points in units of 2pi/SCALE and weight: pymatgen with grid density = 1000 / numb
   0.00000000  0.00000000  0.00000000       0.125
   0.05086505 -0.02936695  0.00000000       0.250
   0.10173010  0.00000000  0.00000000       0.125
   0.00000000  0.00000000  0.04602949       0.125
   0.05086505 -0.02936695  0.04602949       0.250
   0.10173010  0.00000000  0.04602949       0.125
 
 k-points in reciprocal lattice and weights: pymatgen with grid density = 1000 / numb
   0.00000000  0.00000000  0.00000000       0.125
   0.50000000  0.00000000  0.00000000       0.250
   0.50000000  0.50000000  0.00000000       0.125
   0.00000000  0.00000000  0.50000000       0.125
   0.50000000  0.00000000  0.50000000       0.250
   0.50000000  0.50000000  0.50000000       0.125
 
 position of ions in fractional coordinates (direct lattice) 
   0.26554429  0.26554429  0.50000000
   0.26554429  0.76554429  0.00000000
   0.26554429  0.76554429  0.50000000
   0.76554429  0.26554429  0.00000000
   0.76554429  0.26554429  0.50000000
   0.76554429  0.76554429  0.00000000
   0.76554429  0.76554429  0.50000000
   0.00000000  0.23445571  0.33333333
   0.00000000  0.23445571  0.83333333
   0.00000000  0.73445571  0.33333333
   0.00000000  0.73445571  0.83333333
   0.50000000  0.23445571  0.33333333
   0.50000000  0.23445571  0.83333333
   0.50000000  0.73445571  0.33333333
   0.50000000  0.73445571  0.83333333
   0.23445571  0.00000000  0.16666667
   0.23445571  0.00000000  0.66666667
   0.23445571  0.50000000  0.16666667
   0.23445571  0.50000000  0.66666667
   0.73445571  0.00000000  0.16666667
   0.73445571  0.00000000  0.66666667
   0.73445571  0.50000000  0.16666667
   0.73445571  0.50000000  0.66666667
   0.26554429  0.26554429  0.00000000
   0.13461155  0.20669714  0.39244549
   0.13461155  0.20669714  0.89244549
   0.13461155  0.70669714  0.39244549
   0.13461155  0.70669714  0.89244549
   0.63461155  0.20669714  0.39244549
   0.63461155  0.20669714  0.89244549
   0.63461155  0.70669714  0.39244549
   0.63461155  0.70669714  0.89244549
   0.29330286  0.42791441  0.05911216
   0.29330286  0.42791441  0.55911216
   0.29330286  0.92791441  0.05911216
   0.29330286  0.92791441  0.55911216
   0.79330286  0.42791441  0.05911216
   0.79330286  0.42791441  0.55911216
   0.79330286  0.92791441  0.05911216
   0.79330286  0.92791441  0.55911216
   0.07208559  0.36538845  0.22577882
   0.07208559  0.36538845  0.72577882
   0.07208559  0.86538845  0.22577882
   0.07208559  0.86538845  0.72577882
   0.57208559  0.36538845  0.22577882
   0.57208559  0.36538845  0.72577882
   0.57208559  0.86538845  0.22577882
   0.57208559  0.86538845  0.72577882
   0.20669714  0.13461155  0.10755451
   0.20669714  0.13461155  0.60755451
   0.20669714  0.63461155  0.10755451
   0.20669714  0.63461155  0.60755451
   0.70669714  0.13461155  0.10755451
   0.70669714  0.13461155  0.60755451
   0.70669714  0.63461155  0.10755451
   0.70669714  0.63461155  0.60755451
   0.36538845  0.07208559  0.27422118
   0.36538845  0.07208559  0.77422118
   0.36538845  0.57208559  0.27422118
   0.36538845  0.57208559  0.77422118
   0.86538845  0.07208559  0.27422118
   0.86538845  0.07208559  0.77422118
   0.86538845  0.57208559  0.27422118
   0.86538845  0.57208559  0.77422118
   0.42791441  0.29330286  0.44088784
   0.42791441  0.29330286  0.94088784
   0.42791441  0.79330286  0.44088784
   0.42791441  0.79330286  0.94088784
   0.92791441  0.29330286  0.44088784
   0.92791441  0.29330286  0.94088784
   0.92791441  0.79330286  0.44088784
   0.92791441  0.79330286  0.94088784
 
 position of ions in cartesian coordinates  (Angst):
   2.61028246 -0.00000000  5.43130114
   5.06776555  4.25648557  0.00000000
   5.06776555  4.25648557  5.43130114
   5.06776555 -4.25648557  0.00000000
   5.06776555 -4.25648557  5.43130114
   7.52524863  0.00000000  0.00000000
   7.52524863  0.00000000  5.43130114
   1.15234186  1.99591465  3.62086743
   1.15234186  1.99591465  9.05216857
   3.60982495  6.25240022  3.62086743
   3.60982495  6.25240022  9.05216857
   3.60982495 -2.26057092  3.62086743
   3.60982495 -2.26057092  9.05216857
   6.06730804  1.99591465  3.62086743
   6.06730804  1.99591465  9.05216857
   1.15234186 -1.99591465  1.81043371
   1.15234186 -1.99591465  7.24173485
   3.60982495  2.26057092  1.81043371
   3.60982495  2.26057092  7.24173485
   3.60982495 -6.25240022  1.81043371
   3.60982495 -6.25240022  7.24173485
   6.06730804 -1.99591465  1.81043371
   6.06730804 -1.99591465  7.24173485
   2.61028246 -0.00000000  0.00000000
   1.67752072  0.61366255  4.26297927
   1.67752072  0.61366255  9.69428041
   4.13500380  4.87014811  4.26297927
   4.13500380  4.87014811  9.69428041
   4.13500380 -3.64282302  4.26297927
   4.13500380 -3.64282302  9.69428041
   6.59248689  0.61366255  4.26297927
   6.59248689  0.61366255  9.69428041
   3.54475846  1.14594428  0.64211185
   3.54475846  1.14594428  6.07341299
   6.00224155  5.40242985  0.64211185
   6.00224155  5.40242985  6.07341299
   6.00224155 -3.11054129  0.64211185
   6.00224155 -3.11054129  6.07341299
   8.45972464  1.14594428  0.64211185
   8.45972464  1.14594428  6.07341299
   2.15017009  2.49687874  2.45254556
   2.15017009  2.49687874  7.88384670
   4.60765317  6.75336431  2.45254556
   4.60765317  6.75336431  7.88384670
   4.60765317 -1.75960683  2.45254556
   4.60765317 -1.75960683  7.88384670
   7.06513626  2.49687874  2.45254556
   7.06513626  2.49687874  7.88384670
   1.67752072 -0.61366255  1.16832187
   1.67752072 -0.61366255  6.59962301
   4.13500380  3.64282302  1.16832187
   4.13500380  3.64282302  6.59962301
   4.13500380 -4.87014811  1.16832187
   4.13500380 -4.87014811  6.59962301
   6.59248689 -0.61366255  1.16832187
   6.59248689 -0.61366255  6.59962301
   2.15017009 -2.49687874  2.97875558
   2.15017009 -2.49687874  8.41005672
   4.60765317  1.75960683  2.97875558
   4.60765317  1.75960683  8.41005672
   4.60765317 -6.75336431  2.97875558
   4.60765317 -6.75336431  8.41005672
   7.06513626 -2.49687874  2.97875558
   7.06513626 -2.49687874  8.41005672
   3.54475846 -1.14594428  4.78918929
   3.54475846 -1.14594428 10.22049043
   6.00224155  3.11054129  4.78918929
   6.00224155  3.11054129 10.22049043
   6.00224155 -5.40242985  4.78918929
   6.00224155 -5.40242985 10.22049043
   8.45972464 -1.14594428  4.78918929
   8.45972464 -1.14594428 10.22049043
 


--------------------------------------------------------------------------------------------------------


 k-point   1 :   0.0000 0.0000 0.0000  plane waves:   26579
 k-point   2 :   0.5000 0.0000 0.0000  plane waves:   26614
 k-point   3 :   0.5000 0.5000 0.0000  plane waves:   26614
 k-point   4 :   0.0000 0.0000 0.5000  plane waves:   26718
 k-point   5 :   0.5000 0.0000 0.5000  plane waves:   26636
 k-point   6 :   0.5000 0.5000 0.5000  plane waves:   26636

 maximum and minimum number of plane-waves per node :     26718    26579

 maximum number of plane-waves:     26718
 maximum index in each direction: 
   IXMAX=   18   IYMAX=   18   IZMAX=   20
   IXMIN=  -19   IYMIN=  -19   IZMIN=  -21


 serial   3D FFT for wavefunctions
 parallel 3D FFT for charge:
    minimum data exchange during FFTs selected (reduces bandwidth)


 total amount of memory used by VASP MPI-rank0   114071. kBytes
=======================================================================

   base      :      30000. kBytes
   nonl-proj :      61636. kBytes
   fftplans  :       1787. kBytes
   grid      :       9934. kBytes
   one-center:        221. kBytes
   wavefun   :      10493. kBytes
 
     INWAV:  cpu time      0.0000: real time      0.0001
 Broyden mixing: mesh for mixing (old mesh)
   NGX = 37   NGY = 37   NGZ = 41
  (NGX  =112   NGY  =112   NGZ  =128)
  gives a total of  56129 points

 initial charge density was supplied:
 charge density of overlapping atoms calculated
 number of electron     385.0000000 magnetization 
 keeping initial charge density in first step


--------------------------------------------------------------------------------------------------------


 Maximum index for augmentation-charges          412 (set IRDMAX)


--------------------------------------------------------------------------------------------------------


 First call to EWALD:  gamma=   0.183
 Maximum number of real-space cells 3x 3x 3
 Maximum number of reciprocal cells 3x 3x 3

    FEWALD:  cpu time      0.0018: real time      0.0018


--------------------------------------- Iteration      1(   1)  ---------------------------------------


    POTLOK:  cpu time      0.0238: real time      0.0244
    SETDIJ:  cpu time      0.0021: real time      0.0021
     EDDAV:  cpu time      3.5120: real time      3.5359
       DOS:  cpu time      0.0011: real time      0.0011
    --------------------------------------------
      LOOP:  cpu time      3.5390: real time      3.5635

 eigenvalue-minimisations  :  3072
 total energy-change (2. order) : 0.2302467E+04  (-0.2101759E+05)
 number of electron     385.0000000 magnetization 
 augmentation part      385.0000000 magnetization 

 Free energy of the ion-electron system (eV)
  ---------------------------------------------------
  alpha Z        PSCENC =       561.29760740
  Ewald energy   TEWEN  =    -15179.19602506
  -Hartree energ DENC   =     -7505.73190397
  -exchange      EXHF   =         0.00000000
  -V(xc)+E(xc)   XCENC  =      1145.24165978
  PAW double counting   =     18800.98231178   -18474.51157198
  entropy T*S    EENTRO =        -0.01576874
  eigenvalues    EBANDS =      -345.42203583
  atomic energy  EATOM  =     23299.82317458
  Solvation  Ediel_sol  =         0.00000000
  ---------------------------------------------------
  free energy    TOTEN  =      2302.46744795 eV

  energy without entropy =     2302.48321669  energy(sigma->0) =     2302.47533232


--------------------------------------------------------------------------------------------------------




--------------------------------------- Iteration      1(   2)  ---------------------------------------


     EDDAV:  cpu time      4.2568: real time      4.2835
       DOS:  cpu time      0.0004: real time      0.5912
    --------------------------------------------
      LOOP:  cpu time      4.2573: real time      4.8747

 eigenvalue-minimisations  :  4224
 total energy-change (2. order) :-0.2804994E+04  (-0.2734496E+04)
 number of electron     385.0000000 magnetization 
 augmentation part      385.0000000 magnetization 

 Free energy of the ion-electron system (eV)
  ---------------------------------------------------
  alpha Z        PSCENC =       561.29760740
  Ewald energy   TEWEN  =    -15179.19602506
  -Hartree energ DENC   =     -7505.73190397
  -exchange      EXHF   =         0.00000000
  -V(xc)+E(xc)   XCENC  =      1145.24165978
  PAW double counting   =     18800.98231178   -18474.51157198
  entropy T*S    EENTRO =        -0.00000000
  eigenvalues    EBANDS =     -3150.43177515
  atomic energy  EATOM  =     23299.82317458
  Solvation  Ediel_sol  =         0.00000000
  ---------------------------------------------------
  free energy    TOTEN  =      -502.52652263 eV

  energy without entropy =     -502.52652263  energy(sigma->0) =     -502.52652263


--------------------------------------------------------------------------------------------------------




--------------------------------------- Iteration      1(   3)  ---------------------------------------


     EDDAV:  cpu time      4.0774: real time      4.1021
       DOS:  cpu time      0.0003: real time      0.0003
    --------------------------------------------
      LOOP:  cpu time      4.0777: real time      4.1023

 eigenvalue-minimisations  :  3840
 total energy-change (2. order) :-0.1401764E+03  (-0.1396731E+03)
 number of electron     385.0000000 magnetization 
 augmentation part      385.0000000 magnetization 

 Free energy of the ion-electron system (eV)
  ---------------------------------------------------
  alpha Z        PSCENC =       561.29760740
  Ewald energy   TEWEN  =    -15179.19602506
  -Hartree energ DENC   =     -7505.73190397
  -exchange      EXHF   =         0.00000000
  -V(xc)+E(xc)   XCENC  =      1145.24165978
  PAW double counting   =     18800.98231178   -18474.51157198
  entropy T*S    EENTRO =        -0.00000000
  eigenvalues    EBANDS =     -3290.60813059
  atomic energy  EATOM  =     23299.82317458
  Solvation  Ediel_sol  =         0.00000000
  ---------------------------------------------------
  free energy    TOTEN  =      -642.70287807 eV

  energy without entropy =     -642.70287807  energy(sigma->0) =     -642.70287807


--------------------------------------------------------------------------------------------------------




--------------------------------------- Iteration      1(   4)  ---------------------------------------


     EDDAV:  cpu time      3.8716: real time      3.8961
       DOS:  cpu time      0.0003: real time      0.0003
    --------------------------------------------
      LOOP:  cpu time      3.8719: real time      3.8964

 eigenvalue-minimisations  :  3840
 total energy-change (2. order) :-0.1552199E+01  (-0.1550554E+01)
 number of electron     385.0000000 magnetization 
 augmentation part      385.0000000 magnetization 

 Free energy of the ion-electron system (eV)
  ---------------------------------------------------
  alpha Z        PSCENC =       561.29760740
  Ewald energy   TEWEN  =    -15179.19602506
  -Hartree energ DENC   =     -7505.73190397
  -exchange      EXHF   =         0.00000000
  -V(xc)+E(xc)   XCENC  =      1145.24165978
  PAW double counting   =     18800.98231178   -18474.51157198
  entropy T*S    EENTRO =        -0.00000000
  eigenvalues    EBANDS =     -3292.16032911
  atomic energy  EATOM  =     23299.82317458
  Solvation  Ediel_sol  =         0.00000000
  ---------------------------------------------------
  free energy    TOTEN  =      -644.25507659 eV

  energy without entropy =     -644.25507659  energy(sigma->0) =     -644.25507659


--------------------------------------------------------------------------------------------------------




--------------------------------------- Iteration      1(   5)  ---------------------------------------


     EDDAV:  cpu time      3.7943: real time      3.8182
       DOS:  cpu time      0.0003: real time      0.0003
    CHARGE:  cpu time      0.0490: real time      0.0498
    MIXING:  cpu time      0.0014: real time      0.0017
    --------------------------------------------
      LOOP:  cpu time      3.8450: real time      3.8700

 eigenvalue-minimisations  :  3776
 total energy-change (2. order) :-0.2445986E-01  (-0.2445524E-01)
 number of electron     384.0000061 magnetization 
 augmentation part       35.4344586 magnetization 

 Broyden mixing:
  rms(total) = 0.72487E+01    rms(broyden)= 0.72478E+01
  rms(prec ) = 0.83455E+01
  weight for this iteration     100.00

 Free energy of the ion-electron system (eV)
  ---------------------------------------------------
  alpha Z        PSCENC =       561.29760740
  Ewald energy   TEWEN  =    -15179.19602506
  -Hartree energ DENC   =     -7505.73190397
  -exchange      EXHF   =         0.00000000
  -V(xc)+E(xc)   XCENC  =      1145.24165978
  PAW double counting   =     18800.98231178   -18474.51157198
  entropy T*S    EENTRO =        -0.00000000
  eigenvalues    EBANDS =     -3292.18478897
  atomic energy  EATOM  =     23299.82317458
  Solvation  Ediel_sol  =         0.00000000
  ---------------------------------------------------
  free energy    TOTEN  =      -644.27953645 eV

  energy without entropy =     -644.27953645  energy(sigma->0) =     -644.27953645


--------------------------------------------------------------------------------------------------------




--------------------------------------- Iteration      1(   6)  ---------------------------------------


    POTLOK:  cpu time      0.0137: real time      0.0138
    SETDIJ:  cpu time      0.0018: real time      0.0019
     EDDAV:  cpu time      3.8983: real time      3.9242
       DOS:  cpu time      0.0005: real time      0.0005
    CHARGE:  cpu time      0.0466: real time      0.0470
    MIXING:  cpu time      0.0006: real time      0.0006
    --------------------------------------------
      LOOP:  cpu time      3.9616: real time      3.9880

 eigenvalue-minimisations  :  3840
 total energy-change (2. order) : 0.5425546E+02  (-0.7291181E+01)
 number of electron     384.0000057 magnetization 
 augmentation part       31.9983313 magnetization 

 Broyden mixing:
  rms(total) = 0.49453E+01    rms(broyden)= 0.49452E+01
  rms(prec ) = 0.54754E+01
  weight for this iteration     100.00

 eigenvalues of (default mixing * dielectric matrix)
  average eigenvalue GAMMA=   2.3654
  2.3654

 Free energy of the ion-electron system (eV)
  ---------------------------------------------------
  alpha Z        PSCENC =       561.29760740
  Ewald energy   TEWEN  =    -15179.19602506
  -Hartree energ DENC   =     -7921.14893788
  -exchange      EXHF   =         0.00000000
  -V(xc)+E(xc)   XCENC  =      1170.24671869
  PAW double counting   =     24843.17988186   -24525.06252179
  entropy T*S    EENTRO =        -0.00000000
  eigenvalues    EBANDS =     -2839.16397662
  atomic energy  EATOM  =     23299.82317458
  Solvation  Ediel_sol  =         0.00000000
  ---------------------------------------------------
  free energy    TOTEN  =      -590.02407882 eV

  energy without entropy =     -590.02407882  energy(sigma->0) =     -590.02407882


--------------------------------------------------------------------------------------------------------




--------------------------------------- Iteration      1(   7)  ---------------------------------------


    POTLOK:  cpu time      0.0132: real time      0.0134
    SETDIJ:  cpu time      0.0020: real time      0.0020
     EDDAV:  cpu time      6.2750: real time      6.3073
       DOS:  cpu time      0.0005: real time      0.0005
    CHARGE:  cpu time      0.0468: real time      0.0471
    MIXING:  cpu time      0.0006: real time      0.0006
    --------------------------------------------
      LOOP:  cpu time      6.3381: real time      6.3710

 eigenvalue-minimisations  :  3840
 total energy-change (2. order) : 0.2097667E+02  (-0.1197908E+02)
 number of electron     384.0000051 magnetization 
 augmentation part       27.6387552 magnetization 

 Broyden mixing:
  rms(total) = 0.21345E+01    rms(broyden)= 0.21338E+01
  rms(prec ) = 0.22287E+01
  weight for this iteration     100.00

 eigenvalues of (default mixing * dielectric matrix)
  average eigenvalue GAMMA=   2.4634
  2.4634  2.4634

 Free energy of the ion-electron system (eV)
  ---------------------------------------------------
  alpha Z        PSCENC =       561.29760740
  Ewald energy   TEWEN  =    -15179.19602506
  -Hartree energ DENC   =     -8475.37818178
  -exchange      EXHF   =         0.00000000
  -V(xc)+E(xc)   XCENC  =      1207.75418365
  PAW double counting   =     42923.88983441   -42616.00010508
  entropy T*S    EENTRO =        -0.00000000
  eigenvalues    EBANDS =     -2291.23790061
  atomic energy  EATOM  =     23299.82317458
  Solvation  Ediel_sol  =         0.00000000
  ---------------------------------------------------
  free energy    TOTEN  =      -569.04741248 eV

  energy without entropy =     -569.04741248  energy(sigma->0) =     -569.04741248


--------------------------------------------------------------------------------------------------------




--------------------------------------- Iteration      1(   8)  ---------------------------------------


    POTLOK:  cpu time      0.0130: real time      0.0133
    SETDIJ:  cpu time      0.0018: real time      0.0018
     EDDAV:  cpu time      3.9123: real time      3.9361
       DOS:  cpu time      0.0005: real time      0.0005
    CHARGE:  cpu time      0.0463: real time      0.0468
    MIXING:  cpu time      0.0006: real time      0.0009
    --------------------------------------------
      LOOP:  cpu time      3.9746: real time      3.9994

 eigenvalue-minimisations  :  3840
 total energy-change (2. order) : 0.4658614E-01  (-0.6826947E+00)
 number of electron     384.0000052 magnetization 
 augmentation part       28.4451019 magnetization 

 Broyden mixing:
  rms(total) = 0.75377E+00    rms(broyden)= 0.75376E+00
  rms(prec ) = 0.84131E+00
  weight for this iteration     100.00

 eigenvalues of (default mixing * dielectric matrix)
  average eigenvalue GAMMA=   2.3589
  1.1433  3.8200  2.1135

 Free energy of the ion-electron system (eV)
  ---------------------------------------------------
  alpha Z        PSCENC =       561.29760740
  Ewald energy   TEWEN  =    -15179.19602506
  -Hartree energ DENC   =     -8427.38805201
  -exchange      EXHF   =         0.00000000
  -V(xc)+E(xc)   XCENC  =      1204.94496793
  PAW double counting   =     54270.41737810   -53960.40001197
  entropy T*S    EENTRO =        -0.00000000
  eigenvalues    EBANDS =     -2338.49986531
  atomic energy  EATOM  =     23299.82317458
  Solvation  Ediel_sol  =         0.00000000
  ---------------------------------------------------
  free energy    TOTEN  =      -569.00082634 eV

  energy without entropy =     -569.00082634  energy(sigma->0) =     -569.00082634


--------------------------------------------------------------------------------------------------------




--------------------------------------- Iteration      1(   9)  ---------------------------------------


    POTLOK:  cpu time      0.0126: real time      0.0128
    SETDIJ:  cpu time      0.0018: real time      0.0018
     EDDAV:  cpu time      3.9347: real time      3.9599
       DOS:  cpu time      0.0005: real time      0.0005
    CHARGE:  cpu time      0.0469: real time      0.0473
    MIXING:  cpu time      0.0006: real time      0.0006
    --------------------------------------------
      LOOP:  cpu time      3.9971: real time      4.0230

 eigenvalue-minimisations  :  3840
 total energy-change (2. order) : 0.1488780E+00  (-0.8031395E-01)
 number of electron     384.0000052 magnetization 
 augmentation part       28.1513740 magnetization 

 Broyden mixing:
  rms(total) = 0.27664E+00    rms(broyden)= 0.27663E+00
  rms(prec ) = 0.30608E+00
  weight for this iteration     100.00

 eigenvalues of (default mixing * dielectric matrix)
  average eigenvalue GAMMA=   2.5486
  5.1188  0.9963  2.0396  2.0396

 Free energy of the ion-electron system (eV)
  ---------------------------------------------------
  alpha Z        PSCENC =       561.29760740
  Ewald energy   TEWEN  =    -15179.19602506
  -Hartree energ DENC   =     -8502.54612582
  -exchange      EXHF   =         0.00000000
  -V(xc)+E(xc)   XCENC  =      1210.36060688
  PAW double counting   =     62445.21653007   -62136.36390329
  entropy T*S    EENTRO =        -0.00000000
  eigenvalues    EBANDS =     -2267.44381312
  atomic energy  EATOM  =     23299.82317458
  Solvation  Ediel_sol  =         0.00000000
  ---------------------------------------------------
  free energy    TOTEN  =      -568.85194838 eV

  energy without entropy =     -568.85194838  energy(sigma->0) =     -568.85194838


--------------------------------------------------------------------------------------------------------




--------------------------------------- Iteration      1(  10)  ---------------------------------------


    POTLOK:  cpu time      0.0128: real time      0.0131
    SETDIJ:  cpu time      0.0019: real time      0.0020
     EDDAV:  cpu time      3.8935: real time      3.9183
       DOS:  cpu time      0.0005: real time      0.0005
    CHARGE:  cpu time      0.0462: real time      0.0467
    MIXING:  cpu time      0.0006: real time      0.0006
    --------------------------------------------
      LOOP:  cpu time      3.9556: real time      3.9812

 eigenvalue-minimisations  :  3840
 total energy-change (2. order) :-0.5528684E-01  (-0.1957758E-01)
 number of electron     384.0000051 magnetization 
 augmentation part       28.0381033 magnetization 

 Broyden mixing:
  rms(total) = 0.23711E+00    rms(broyden)= 0.23711E+00
  rms(prec ) = 0.24177E+00
  weight for this iteration     100.00

 eigenvalues of (default mixing * dielectric matrix)
  average eigenvalue GAMMA=   2.5240
  4.9785  3.5968  2.0142  1.0293  1.0012

 Free energy of the ion-electron system (eV)
  ---------------------------------------------------
  alpha Z        PSCENC =       561.29760740
  Ewald energy   TEWEN  =    -15179.19602506
  -Hartree energ DENC   =     -8537.94243983
  -exchange      EXHF   =         0.00000000
  -V(xc)+E(xc)   XCENC  =      1212.98228751
  PAW double counting   =     65815.04192948   -65506.77593558
  entropy T*S    EENTRO =        -0.00000000
  eigenvalues    EBANDS =     -2234.13783370
  atomic energy  EATOM  =     23299.82317458
  Solvation  Ediel_sol  =         0.00000000
  ---------------------------------------------------
  free energy    TOTEN  =      -568.90723521 eV

  energy without entropy =     -568.90723521  energy(sigma->0) =     -568.90723521


--------------------------------------------------------------------------------------------------------




--------------------------------------- Iteration      1(  11)  ---------------------------------------


    POTLOK:  cpu time      0.0130: real time      0.0133
    SETDIJ:  cpu time      0.0018: real time      0.0018
     EDDAV:  cpu time      3.8462: real time      3.8699
       DOS:  cpu time      0.0004: real time      0.0004
    CHARGE:  cpu time      0.0466: real time      0.0471
    MIXING:  cpu time      0.0006: real time      0.0006
    --------------------------------------------
      LOOP:  cpu time      3.9086: real time      3.9331

 eigenvalue-minimisations  :  3840
 total energy-change (2. order) :-0.3739734E-02  (-0.2770207E-02)
 number of electron     384.0000051 magnetization 
 augmentation part       28.0963649 magnetization 

 Broyden mixing:
  rms(total) = 0.67723E-01    rms(broyden)= 0.67721E-01
  rms(prec ) = 0.70012E-01
  weight for this iteration     100.00

 eigenvalues of (default mixing * dielectric matrix)
  average eigenvalue GAMMA=   2.5551
  5.2236  4.5620  1.9996  1.4733  1.0361  1.0361

 Free energy of the ion-electron system (eV)
  ---------------------------------------------------
  alpha Z        PSCENC =       561.29760740
  Ewald energy   TEWEN  =    -15179.19602506
  -Hartree energ DENC   =     -8532.62467253
  -exchange      EXHF   =         0.00000000
  -V(xc)+E(xc)   XCENC  =      1212.56833764
  PAW double counting   =     63894.32523625   -63586.08190084
  entropy T*S    EENTRO =        -0.00000000
  eigenvalues    EBANDS =     -2239.02273239
  atomic energy  EATOM  =     23299.82317458
  Solvation  Ediel_sol  =         0.00000000
  ---------------------------------------------------
  free energy    TOTEN  =      -568.91097495 eV

  energy without entropy =     -568.91097495  energy(sigma->0) =     -568.91097495


--------------------------------------------------------------------------------------------------------




--------------------------------------- Iteration      1(  12)  ---------------------------------------


    POTLOK:  cpu time      0.0125: real time      0.0128
    SETDIJ:  cpu time      0.0019: real time      0.0020
     EDDAV:  cpu time      3.8467: real time      3.8701
       DOS:  cpu time      0.0004: real time      0.0004
    CHARGE:  cpu time      0.0466: real time      0.0471
    MIXING:  cpu time      0.0008: real time      0.0008
    --------------------------------------------
      LOOP:  cpu time      3.9089: real time      3.9332

 eigenvalue-minimisations  :  3840
 total energy-change (2. order) :-0.4154165E-02  (-0.5283759E-03)
 number of electron     384.0000051 magnetization 
 augmentation part       28.1055100 magnetization 

 Broyden mixing:
  rms(total) = 0.21446E-01    rms(broyden)= 0.21444E-01
  rms(prec ) = 0.23944E-01
  weight for this iteration     100.00

 eigenvalues of (default mixing * dielectric matrix)
  average eigenvalue GAMMA=   2.4462
  5.2295  4.5874  2.3806  1.9952  1.1186  0.9060  0.9060

 Free energy of the ion-electron system (eV)
  ---------------------------------------------------
  alpha Z        PSCENC =       561.29760740
  Ewald energy   TEWEN  =    -15179.19602506
  -Hartree energ DENC   =     -8533.73652362
  -exchange      EXHF   =         0.00000000
  -V(xc)+E(xc)   XCENC  =      1212.62567587
  PAW double counting   =     63117.28292451   -62809.09933671
  entropy T*S    EENTRO =        -0.00000000
  eigenvalues    EBANDS =     -2237.91262608
  atomic energy  EATOM  =     23299.82317458
  Solvation  Ediel_sol  =         0.00000000
  ---------------------------------------------------
  free energy    TOTEN  =      -568.91512911 eV

  energy without entropy =     -568.91512911  energy(sigma->0) =     -568.91512911


--------------------------------------------------------------------------------------------------------




--------------------------------------- Iteration      1(  13)  ---------------------------------------


    POTLOK:  cpu time      0.0139: real time      0.0142
    SETDIJ:  cpu time      0.0019: real time      0.0019
     EDDAV:  cpu time      3.8449: real time      3.8682
       DOS:  cpu time      0.0004: real time      0.0004
    CHARGE:  cpu time      0.0470: real time      0.0475
    MIXING:  cpu time      0.0007: real time      0.0007
    --------------------------------------------
      LOOP:  cpu time      3.9089: real time      3.9329

 eigenvalue-minimisations  :  3840
 total energy-change (2. order) :-0.9242547E-04  (-0.1447330E-03)
 number of electron     384.0000051 magnetization 
 augmentation part       28.1037417 magnetization 

 Broyden mixing:
  rms(total) = 0.13532E-01    rms(broyden)= 0.13531E-01
  rms(prec ) = 0.14371E-01
  weight for this iteration     100.00

 eigenvalues of (default mixing * dielectric matrix)
  average eigenvalue GAMMA=   2.3016
  5.0754  4.6898  2.1707  2.1707  1.1785  1.1785  0.8929  1.0561

 Free energy of the ion-electron system (eV)
  ---------------------------------------------------
  alpha Z        PSCENC =       561.29760740
  Ewald energy   TEWEN  =    -15179.19602506
  -Hartree energ DENC   =     -8534.29028495
  -exchange      EXHF   =         0.00000000
  -V(xc)+E(xc)   XCENC  =      1212.66274337
  PAW double counting   =     63153.64379753   -62845.44409662
  entropy T*S    EENTRO =        -0.00000000
  eigenvalues    EBANDS =     -2237.41213778
  atomic energy  EATOM  =     23299.82317458
  Solvation  Ediel_sol  =         0.00000000
  ---------------------------------------------------
  free energy    TOTEN  =      -568.91522154 eV

  energy without entropy =     -568.91522154  energy(sigma->0) =     -568.91522154


--------------------------------------------------------------------------------------------------------




--------------------------------------- Iteration      1(  14)  ---------------------------------------


    POTLOK:  cpu time      0.0129: real time      0.0132
    SETDIJ:  cpu time      0.0018: real time      0.0018
     EDDAV:  cpu time      3.8481: real time      3.8710
       DOS:  cpu time      0.0004: real time      0.0004
    CHARGE:  cpu time      0.0466: real time      0.0471
    MIXING:  cpu time      0.0007: real time      0.0007
    --------------------------------------------
      LOOP:  cpu time      3.9106: real time      3.9343

 eigenvalue-minimisations  :  3840
 total energy-change (2. order) :-0.1818717E-03  (-0.3897481E-04)
 number of electron     384.0000051 magnetization 
 augmentation part       28.1083547 magnetization 

 Broyden mixing:
  rms(total) = 0.10796E-01    rms(broyden)= 0.10796E-01
  rms(prec ) = 0.11486E-01
  weight for this iteration     100.00

 eigenvalues of (default mixing * dielectric matrix)
  average eigenvalue GAMMA=   2.3779
  5.3332  4.5725  2.6010  2.6010  1.9947  1.3577  1.0966  0.9223  0.9223

 Free energy of the ion-electron system (eV)
  ---------------------------------------------------
  alpha Z        PSCENC =       561.29760740
  Ewald energy   TEWEN  =    -15179.19602506
  -Hartree energ DENC   =     -8533.75423188
  -exchange      EXHF   =         0.00000000
  -V(xc)+E(xc)   XCENC  =      1212.62514844
  PAW double counting   =     63132.71080875   -62824.48784514
  entropy T*S    EENTRO =        -0.00000000
  eigenvalues    EBANDS =     -2237.93404051
  atomic energy  EATOM  =     23299.82317458
  Solvation  Ediel_sol  =         0.00000000
  ---------------------------------------------------
  free energy    TOTEN  =      -568.91540341 eV

  energy without entropy =     -568.91540341  energy(sigma->0) =     -568.91540341


--------------------------------------------------------------------------------------------------------




--------------------------------------- Iteration      1(  15)  ---------------------------------------


    POTLOK:  cpu time      0.0128: real time      0.0131
    SETDIJ:  cpu time      0.0018: real time      0.0018
     EDDAV:  cpu time      3.8375: real time      3.8602
       DOS:  cpu time      0.0006: real time      0.0007
    CHARGE:  cpu time      0.0465: real time      0.0469
    MIXING:  cpu time      0.0007: real time      0.0007
    --------------------------------------------
      LOOP:  cpu time      3.8999: real time      3.9234

 eigenvalue-minimisations  :  3840
 total energy-change (2. order) :-0.1537571E-03  (-0.1907298E-04)
 number of electron     384.0000051 magnetization 
 augmentation part       28.1054753 magnetization 

 Broyden mixing:
  rms(total) = 0.41952E-02    rms(broyden)= 0.41951E-02
  rms(prec ) = 0.44515E-02
  weight for this iteration     100.00

 eigenvalues of (default mixing * dielectric matrix)
  average eigenvalue GAMMA=   2.3898
  5.5744  4.9136  3.8081  2.1692  1.8984  1.6075  0.9672  0.9672  0.9962  0.9962

 Free energy of the ion-electron system (eV)
  ---------------------------------------------------
  alpha Z        PSCENC =       561.29760740
  Ewald energy   TEWEN  =    -15179.19602506
  -Hartree energ DENC   =     -8534.34458674
  -exchange      EXHF   =         0.00000000
  -V(xc)+E(xc)   XCENC  =      1212.66564731
  PAW double counting   =     63167.71168164   -62859.48026922
  entropy T*S    EENTRO =        -0.00000000
  eigenvalues    EBANDS =     -2237.39278707
  atomic energy  EATOM  =     23299.82317458
  Solvation  Ediel_sol  =         0.00000000
  ---------------------------------------------------
  free energy    TOTEN  =      -568.91555717 eV

  energy without entropy =     -568.91555717  energy(sigma->0) =     -568.91555717


--------------------------------------------------------------------------------------------------------




--------------------------------------- Iteration      1(  16)  ---------------------------------------


    POTLOK:  cpu time      0.0128: real time      0.0131
    SETDIJ:  cpu time      0.0018: real time      0.0018
     EDDAV:  cpu time      3.8411: real time      3.8641
       DOS:  cpu time      0.0004: real time      0.0004
    CHARGE:  cpu time      0.0463: real time      0.0467
    MIXING:  cpu time      0.0008: real time      0.0008
    --------------------------------------------
      LOOP:  cpu time      3.9032: real time      3.9269

 eigenvalue-minimisations  :  3840
 total energy-change (2. order) :-0.3859461E-04  (-0.5286323E-05)
 number of electron     384.0000051 magnetization 
 augmentation part       28.1050328 magnetization 

 Broyden mixing:
  rms(total) = 0.27657E-02    rms(broyden)= 0.27656E-02
  rms(prec ) = 0.28732E-02
  weight for this iteration     100.00

 eigenvalues of (default mixing * dielectric matrix)
  average eigenvalue GAMMA=   2.3268
  5.5801  4.9758  3.7027  2.2429  2.2429  2.0399  1.0820  1.0820  0.9337  0.8563
  0.8563

 Free energy of the ion-electron system (eV)
  ---------------------------------------------------
  alpha Z        PSCENC =       561.29760740
  Ewald energy   TEWEN  =    -15179.19602506
  -Hartree energ DENC   =     -8534.44436597
  -exchange      EXHF   =         0.00000000
  -V(xc)+E(xc)   XCENC  =      1212.67152922
  PAW double counting   =     63163.61784062   -62855.38048251
  entropy T*S    EENTRO =        -0.00000000
  eigenvalues    EBANDS =     -2237.30487403
  atomic energy  EATOM  =     23299.82317458
  Solvation  Ediel_sol  =         0.00000000
  ---------------------------------------------------
  free energy    TOTEN  =      -568.91559576 eV

  energy without entropy =     -568.91559576  energy(sigma->0) =     -568.91559576


--------------------------------------------------------------------------------------------------------




--------------------------------------- Iteration      1(  17)  ---------------------------------------


    POTLOK:  cpu time      0.0129: real time      0.0132
    SETDIJ:  cpu time      0.0018: real time      0.0018
     EDDAV:  cpu time      3.8478: real time      3.8703
       DOS:  cpu time      0.0004: real time      0.0004
    CHARGE:  cpu time      0.0461: real time      0.0465
    MIXING:  cpu time      0.0009: real time      0.0009
    --------------------------------------------
      LOOP:  cpu time      3.9100: real time      3.9331

 eigenvalue-minimisations  :  3840
 total energy-change (2. order) :-0.5814800E-05  (-0.1551378E-05)
 number of electron     384.0000051 magnetization 
 augmentation part       28.1056372 magnetization 

 Broyden mixing:
  rms(total) = 0.21996E-02    rms(broyden)= 0.21996E-02
  rms(prec ) = 0.22988E-02
  weight for this iteration     100.00

 eigenvalues of (default mixing * dielectric matrix)
  average eigenvalue GAMMA=   2.3301
  5.6295  5.0857  3.9656  2.9865  1.9896  1.6508  1.3461  1.3461  0.9302  0.9302
  1.0503  1.0503

 Free energy of the ion-electron system (eV)
  ---------------------------------------------------
  alpha Z        PSCENC =       561.29760740
  Ewald energy   TEWEN  =    -15179.19602506
  -Hartree energ DENC   =     -8534.41135894
  -exchange      EXHF   =         0.00000000
  -V(xc)+E(xc)   XCENC  =      1212.66896923
  PAW double counting   =     63171.09405483   -62862.85446429
  entropy T*S    EENTRO =        -0.00000000
  eigenvalues    EBANDS =     -2237.33755931
  atomic energy  EATOM  =     23299.82317458
  Solvation  Ediel_sol  =         0.00000000
  ---------------------------------------------------
  free energy    TOTEN  =      -568.91560158 eV

  energy without entropy =     -568.91560158  energy(sigma->0) =     -568.91560158


--------------------------------------------------------------------------------------------------------




--------------------------------------- Iteration      1(  18)  ---------------------------------------


    POTLOK:  cpu time      0.0129: real time      0.0133
    SETDIJ:  cpu time      0.0018: real time      0.0018
     EDDAV:  cpu time      3.8410: real time      3.8642
       DOS:  cpu time      0.0004: real time      0.0004
    CHARGE:  cpu time      0.0462: real time      0.0468
    MIXING:  cpu time      0.0009: real time      0.0009
    --------------------------------------------
      LOOP:  cpu time      3.9033: real time      3.9274

 eigenvalue-minimisations  :  3840
 total energy-change (2. order) :-0.2714623E-05  (-0.7863233E-06)
 number of electron     384.0000051 magnetization 
 augmentation part       28.1050916 magnetization 

 Broyden mixing:
  rms(total) = 0.66976E-03    rms(broyden)= 0.66966E-03
  rms(prec ) = 0.71725E-03
  weight for this iteration     100.00

 eigenvalues of (default mixing * dielectric matrix)
  average eigenvalue GAMMA=   2.3458
  5.9291  5.1456  4.3668  2.9765  1.9594  1.9980  1.9980  1.1754  0.8912  0.9928
  0.9928  1.0347  1.0347

[...]
   0.122E+01 0.293E+01 -.108E+01   -.556E+00 -.286E+01 0.185E+01   -.299E+00 -.231E+00 -.249E+00   0.597E-04 -.116E-03 0.143E-03
   -.200E+00 0.222E+01 -.812E+00   0.659E+00 -.561E+01 -.345E+01   -.323E+00 0.149E+01 0.200E+01   0.335E-04 0.654E-04 0.210E-04
   0.148E+01 0.170E+01 -.377E+00   -.491E+00 -.147E+01 0.101E+01   -.531E+00 -.216E+00 -.270E+00   0.589E-04 0.637E-04 0.193E-03
   0.255E+00 0.127E+01 0.960E+00   0.275E+00 -.103E+01 -.127E+01   -.231E+00 -.167E+00 0.256E-01   0.139E-03 0.467E-04 -.143E-03
   0.185E+01 -.329E+01 -.919E+00   -.350E+01 -.159E+01 0.345E+01   0.674E+00 0.248E+01 -.124E+01   -.307E-04 0.963E-04 0.122E-04
   0.120E+01 -.103E+01 0.103E+01   -.172E+01 0.835E+00 -.185E+01   0.166E+00 0.102E+00 0.253E+00   -.878E-04 -.111E-03 -.125E-03
   -.200E+00 -.222E+01 0.812E+00   0.659E+00 0.561E+01 0.345E+01   -.323E+00 -.149E+01 -.200E+01   0.335E-04 -.654E-04 -.210E-04
   0.122E+01 -.293E+01 0.108E+01   -.556E+00 0.286E+01 -.185E+01   -.299E+00 0.231E+00 0.249E+00   0.597E-04 0.116E-03 -.143E-03
   0.177E+01 -.247E+01 -.739E+00   -.180E+01 0.223E+01 0.103E+01   -.131E+00 0.266E+00 -.699E-01   0.185E-04 -.575E-04 0.170E-03
   0.911E+00 -.207E+01 -.930E-01   -.137E+01 0.198E+01 -.880E+00   0.184E+00 0.136E+00 0.474E+00   -.859E-04 0.824E-04 -.107E-03
   0.255E+00 -.127E+01 -.960E+00   0.275E+00 0.103E+01 0.127E+01   -.231E+00 0.167E+00 -.256E-01   0.139E-03 -.467E-04 0.143E-03
   0.148E+01 -.170E+01 0.377E+00   -.491E+00 0.147E+01 -.101E+01   -.531E+00 0.216E+00 0.270E+00   0.589E-04 -.637E-04 -.193E-03
   -.328E+01 -.758E-06 0.164E-07   0.257E+01 -.120E-12 0.169E-13   0.643E+00 -.235E-16 0.195E-18   -.364E-04 -.128E-12 0.434E-13
   0.431E+02 0.570E+02 0.302E+02   -.518E+02 -.731E+02 -.401E+02   0.860E+01 0.159E+02 0.958E+01   0.629E-04 0.878E-04 0.616E-04
   0.573E+02 0.465E+02 0.508E+02   -.697E+02 -.614E+02 -.665E+02   0.147E+02 0.119E+02 0.187E+02   0.245E-03 -.351E-03 0.164E-03
   0.425E+02 0.573E+02 0.317E+02   -.512E+02 -.736E+02 -.419E+02   0.853E+01 0.161E+02 0.993E+01   -.377E-04 -.565E-04 0.123E-04
   0.430E+02 0.573E+02 0.330E+02   -.516E+02 -.735E+02 -.439E+02   0.854E+01 0.159E+02 0.109E+02   0.110E-03 0.983E-04 -.570E-04
   0.424E+02 0.578E+02 0.314E+02   -.508E+02 -.742E+02 -.417E+02   0.820E+01 0.163E+02 0.101E+02   0.706E-04 -.846E-04 0.129E-03
   0.417E+02 0.589E+02 0.332E+02   -.501E+02 -.761E+02 -.443E+02   0.807E+01 0.175E+02 0.110E+02   0.169E-03 -.236E-03 -.171E-03
   0.421E+02 0.572E+02 0.314E+02   -.505E+02 -.735E+02 -.417E+02   0.815E+01 0.162E+02 0.101E+02   0.168E-03 -.356E-04 0.101E-03
   0.406E+02 0.570E+02 0.334E+02   -.486E+02 -.731E+02 -.443E+02   0.778E+01 0.159E+02 0.108E+02   0.312E-04 0.285E-04 -.957E-05
   -.852E+02 -.104E+02 0.210E+02   0.108E+03 0.157E+02 -.297E+02   -.246E+02 -.902E+01 0.588E+01   -.462E-04 -.211E-03 -.304E-03
   -.713E+02 0.755E+01 0.333E+02   0.898E+02 -.675E+01 -.441E+02   -.184E+02 -.808E+00 0.107E+02   -.276E-06 0.116E-03 -.113E-04
   -.692E+02 0.113E+02 0.312E+02   0.872E+02 -.118E+02 -.415E+02   -.175E+02 0.102E+01 0.103E+02   -.179E-03 -.395E-04 0.185E-04
   -.708E+02 0.868E+01 0.327E+02   0.890E+02 -.802E+01 -.435E+02   -.179E+02 -.584E+00 0.107E+02   0.139E-04 -.857E-04 -.751E-04
   -.719E+02 0.879E+01 0.319E+02   0.905E+02 -.806E+01 -.421E+02   -.185E+02 -.801E+00 0.991E+01   -.834E-04 0.188E-03 0.198E-03
   -.710E+02 0.826E+01 0.326E+02   0.896E+02 -.751E+01 -.433E+02   -.184E+02 -.726E+00 0.107E+02   0.106E-03 0.501E-05 -.152E-03
   -.691E+02 0.739E+01 0.316E+02   0.869E+02 -.649E+01 -.419E+02   -.174E+02 -.980E+00 0.101E+02   -.555E-04 -.389E-04 0.727E-04
   -.706E+02 0.795E+01 0.326E+02   0.889E+02 -.720E+01 -.434E+02   -.179E+02 -.716E+00 0.107E+02   -.120E-03 0.114E-03 -.707E-04
   0.288E+02 -.684E+02 0.290E+02   -.390E+02 0.849E+02 -.384E+02   0.105E+02 -.166E+02 0.862E+01   -.123E-03 0.116E-04 0.329E-03
   0.289E+02 -.673E+02 0.350E+02   -.387E+02 0.837E+02 -.465E+02   0.950E+01 -.166E+02 0.119E+02   0.377E-04 0.135E-03 -.235E-03
   0.297E+02 -.649E+02 0.304E+02   -.404E+02 0.797E+02 -.402E+02   0.113E+02 -.143E+02 0.912E+01   -.317E-03 -.219E-03 0.235E-03
   0.297E+02 -.647E+02 0.342E+02   -.399E+02 0.800E+02 -.452E+02   0.102E+02 -.151E+02 0.110E+02   -.112E-03 -.581E-04 -.839E-04
   0.263E+02 -.635E+02 0.290E+02   -.354E+02 0.786E+02 -.387E+02   0.889E+01 -.148E+02 0.934E+01   0.112E-03 -.136E-03 0.722E-04
   0.268E+02 -.643E+02 0.344E+02   -.363E+02 0.793E+02 -.462E+02   0.882E+01 -.147E+02 0.124E+02   0.111E-03 -.166E-03 -.268E-03
   0.283E+02 -.657E+02 0.311E+02   -.379E+02 0.813E+02 -.413E+02   0.948E+01 -.153E+02 0.999E+01   0.297E-04 -.106E-03 0.179E-03
   0.281E+02 -.657E+02 0.333E+02   -.380E+02 0.812E+02 -.442E+02   0.977E+01 -.153E+02 0.109E+02   -.978E-04 -.651E-05 -.186E-03
   0.573E+02 -.465E+02 -.508E+02   -.697E+02 0.614E+02 0.665E+02   0.147E+02 -.119E+02 -.187E+02   0.245E-03 0.351E-03 -.164E-03
   0.431E+02 -.570E+02 -.302E+02   -.518E+02 0.731E+02 0.401E+02   0.860E+01 -.159E+02 -.958E+01   0.629E-04 -.878E-04 -.616E-04
   0.417E+02 -.589E+02 -.332E+02   -.501E+02 0.761E+02 0.443E+02   0.807E+01 -.175E+02 -.110E+02   0.169E-03 0.236E-03 0.171E-03
   0.424E+02 -.578E+02 -.314E+02   -.508E+02 0.742E+02 0.417E+02   0.820E+01 -.163E+02 -.101E+02   0.706E-04 0.846E-04 -.129E-03
   0.430E+02 -.573E+02 -.330E+02   -.516E+02 0.735E+02 0.439E+02   0.854E+01 -.159E+02 -.109E+02   0.110E-03 -.983E-04 0.570E-04
   0.425E+02 -.573E+02 -.317E+02   -.512E+02 0.736E+02 0.419E+02   0.853E+01 -.161E+02 -.993E+01   -.377E-04 0.565E-04 -.123E-04
   0.406E+02 -.570E+02 -.334E+02   -.486E+02 0.731E+02 0.443E+02   0.778E+01 -.159E+02 -.108E+02   0.312E-04 -.285E-04 0.957E-05
   0.421E+02 -.572E+02 -.314E+02   -.505E+02 0.735E+02 0.417E+02   0.815E+01 -.162E+02 -.101E+02   0.168E-03 0.356E-04 -.101E-03
   0.289E+02 0.673E+02 -.350E+02   -.387E+02 -.837E+02 0.465E+02   0.950E+01 0.166E+02 -.119E+02   0.377E-04 -.135E-03 0.235E-03
   0.288E+02 0.684E+02 -.290E+02   -.390E+02 -.849E+02 0.384E+02   0.105E+02 0.166E+02 -.862E+01   -.123E-03 -.116E-04 -.329E-03
   0.268E+02 0.643E+02 -.344E+02   -.363E+02 -.793E+02 0.462E+02   0.882E+01 0.147E+02 -.124E+02   0.111E-03 0.166E-03 0.268E-03
   0.263E+02 0.635E+02 -.290E+02   -.354E+02 -.786E+02 0.387E+02   0.889E+01 0.148E+02 -.934E+01   0.112E-03 0.136E-03 -.722E-04
   0.297E+02 0.647E+02 -.342E+02   -.399E+02 -.800E+02 0.452E+02   0.102E+02 0.151E+02 -.110E+02   -.112E-03 0.581E-04 0.839E-04
   0.297E+02 0.649E+02 -.304E+02   -.404E+02 -.797E+02 0.402E+02   0.113E+02 0.143E+02 -.912E+01   -.317E-03 0.219E-03 -.235E-03
   0.281E+02 0.657E+02 -.333E+02   -.380E+02 -.812E+02 0.442E+02   0.977E+01 0.153E+02 -.109E+02   -.978E-04 0.651E-05 0.186E-03
   0.283E+02 0.657E+02 -.311E+02   -.379E+02 -.813E+02 0.413E+02   0.948E+01 0.153E+02 -.999E+01   0.297E-04 0.106E-03 -.179E-03
   -.713E+02 -.755E+01 -.333E+02   0.898E+02 0.675E+01 0.441E+02   -.184E+02 0.808E+00 -.107E+02   -.276E-06 -.116E-03 0.113E-04
   -.852E+02 0.104E+02 -.210E+02   0.108E+03 -.157E+02 0.297E+02   -.246E+02 0.902E+01 -.588E+01   -.462E-04 0.211E-03 0.304E-03
   -.710E+02 -.826E+01 -.326E+02   0.896E+02 0.751E+01 0.433E+02   -.184E+02 0.726E+00 -.107E+02   0.106E-03 -.501E-05 0.152E-03
   -.719E+02 -.879E+01 -.319E+02   0.905E+02 0.806E+01 0.421E+02   -.185E+02 0.801E+00 -.991E+01   -.834E-04 -.188E-03 -.198E-03
   -.708E+02 -.868E+01 -.327E+02   0.890E+02 0.802E+01 0.435E+02   -.179E+02 0.584E+00 -.107E+02   0.139E-04 0.857E-04 0.751E-04
   -.692E+02 -.113E+02 -.312E+02   0.872E+02 0.118E+02 0.415E+02   -.175E+02 -.102E+01 -.103E+02   -.179E-03 0.395E-04 -.185E-04
   -.706E+02 -.795E+01 -.326E+02   0.889E+02 0.720E+01 0.434E+02   -.179E+02 0.716E+00 -.107E+02   -.120E-03 -.114E-03 0.707E-04
   -.691E+02 -.739E+01 -.316E+02   0.869E+02 0.649E+01 0.419E+02   -.174E+02 0.980E+00 -.101E+02   -.555E-04 0.389E-04 -.727E-04
 -----------------------------------------------------------------------------------------------
   -.237E+01 -.239E-05 0.787E-05   0.369E-12 0.460E-12 -.639E-13   0.238E+01 -.113E-13 -.195E-13   0.274E-03 -.632E-12 0.724E-12
 
 
 POSITION                                       TOTAL-FORCE (eV/Angst)
 -----------------------------------------------------------------------------------
      2.61028     -0.00000      5.43130         0.091966      0.000000      0.000000
      5.06777      4.25649      0.00000        -0.008415     -0.037436     -0.497303
      5.06777      4.25649      5.43130         0.001981     -0.026522      0.010046
      5.06777     -4.25649      0.00000        -0.008415      0.037436      0.497303
      5.06777     -4.25649      5.43130         0.001981      0.026522     -0.010046
      7.52525      0.00000      0.00000        -0.020204      0.000000      0.000000
      7.52525      0.00000      5.43130        -0.016662      0.000000      0.000000
      1.15234      1.99591      3.62087        -0.360129      0.094790      0.567667
      1.15234      1.99591      9.05217        -0.980472      2.402801     -1.291477
      3.60982      6.25240      3.62087        -0.273618     -0.042712      0.499626
      3.60982      6.25240      9.05217        -0.158801     -0.019724     -0.217985
      3.60982     -2.26057      3.62087         0.366574     -0.160806      0.521230
      3.60982     -2.26057      9.05217         0.136067     -1.898861     -2.265807
      6.06731      1.99591      3.62087         0.461087      0.009542      0.366137
      6.06731      1.99591      9.05217         0.298879      0.078021     -0.280032
      1.15234     -1.99591      1.81043        -0.980472     -2.402801      1.291477
      1.15234     -1.99591      7.24173        -0.360129     -0.094790     -0.567667
      3.60982      2.26057      1.81043         0.136067      1.898861      2.265807
      3.60982      2.26057      7.24173         0.366574      0.160806     -0.521230
      3.60982     -6.25240      1.81043        -0.158801      0.019724      0.217985
      3.60982     -6.25240      7.24173        -0.273618      0.042712     -0.499626
      6.06731     -1.99591      1.81043         0.298879     -0.078021      0.280032
      6.06731     -1.99591      7.24173         0.461087     -0.009542     -0.366137
      2.61028     -0.00000      0.00000        -0.064299      0.000000      0.000000
      1.67752      0.61366      4.26298        -0.125758     -0.206227     -0.331746
      1.67752      0.61366      9.69428         2.274294     -2.980001      2.949271
      4.13500      4.87015      4.26298        -0.128729     -0.144538     -0.270749
      4.13500      4.87015      9.69428        -0.046994     -0.284356      0.043834
      4.13500     -3.64282      4.26298        -0.220416     -0.100726     -0.261582
      4.13500     -3.64282      9.69428        -0.337889      0.352000     -0.098371
      6.59249      0.61366      4.26298        -0.218756     -0.143658     -0.233979
      6.59249      0.61366      9.69428        -0.257749     -0.233991     -0.069755
      3.54476      1.14594      0.64211        -1.718371     -3.706945     -2.803060
      3.54476      1.14594      6.07341         0.190068     -0.008977     -0.039705
      6.00224      5.40243      0.64211         0.488155      0.560124     -0.005414
      6.00224      5.40243      6.07341         0.314494      0.074263     -0.009114
      6.00224     -3.11054      0.64211         0.137863     -0.077447     -0.303955
      6.00224     -3.11054      6.07341         0.183516      0.024595     -0.034491
      8.45972      1.14594      0.64211         0.366572     -0.075364     -0.215238
      8.45972      1.14594      6.07341         0.300946      0.035006     -0.025455
      2.15017      2.49688      2.45255         0.313399     -0.034301     -0.756428
      2.15017      2.49688      7.88385        -0.381176     -0.156275      0.422049
      4.60765      6.75336      2.45255         0.520808      0.496735     -0.679270
      4.60765      6.75336      7.88385         0.010190      0.262694     -0.016751
      4.60765     -1.75961      2.45255        -0.268249      0.336196     -0.356131
      4.60765     -1.75961      7.88385        -0.617053      0.359611      0.524168
      7.06514      2.49688      2.45255        -0.141818      0.225506     -0.238244
      7.06514      2.49688      7.88385        -0.115900      0.208920      0.003758
      1.67752     -0.61366      1.16832         2.274294      2.980001     -2.949271
      1.67752     -0.61366      6.59962        -0.125758      0.206227      0.331746
      4.13500      3.64282      1.16832        -0.337889     -0.352000      0.098371
      4.13500      3.64282      6.59962        -0.220416      0.100726      0.261582
      4.13500     -4.87015      1.16832        -0.046994      0.284356     -0.043834
      4.13500     -4.87015      6.59962        -0.128729      0.144538      0.270749
      6.59249     -0.61366      1.16832        -0.257749      0.233991      0.069755
      6.59249     -0.61366      6.59962        -0.218756      0.143658      0.233979
      2.15017     -2.49688      2.97876        -0.381176      0.156275     -0.422049
      2.15017     -2.49688      8.41006         0.313399      0.034301      0.756428
      4.60765      1.75961      2.97876        -0.617053     -0.359611     -0.524168
      4.60765      1.75961      8.41006        -0.268249     -0.336196      0.356131
      4.60765     -6.75336      2.97876         0.010190     -0.262694      0.016751
      4.60765     -6.75336      8.41006         0.520808     -0.496735      0.679270
      7.06514     -2.49688      2.97876        -0.115900     -0.208920     -0.003758
      7.06514     -2.49688      8.41006        -0.141818     -0.225506      0.238244
      3.54476     -1.14594      4.78919         0.190068      0.008977      0.039705
      3.54476     -1.14594     10.22049        -1.718371      3.706945      2.803060
      6.00224      3.11054      4.78919         0.183516     -0.024595      0.034491
      6.00224      3.11054     10.22049         0.137863      0.077447      0.303955
      6.00224     -5.40243      4.78919         0.314494     -0.074263      0.009114
      6.00224     -5.40243     10.22049         0.488155     -0.560124      0.005414
      8.45972     -1.14594      4.78919         0.300946     -0.035006      0.025455
      8.45972     -1.14594     10.22049         0.366572      0.075364      0.215238
 -----------------------------------------------------------------------------------
    total drift:                                0.012098     -0.000002      0.000008


--------------------------------------------------------------------------------------------------------



  FREE ENERGIE OF THE ION-ELECTRON SYSTEM (eV)
  ---------------------------------------------------
  free  energy   TOTEN  =      -568.91560558 eV

  energy  without entropy=     -568.91560558  energy(sigma->0) =     -568.91560558
 


--------------------------------------------------------------------------------------------------------


    POTLOK:  cpu time      0.0155: real time      0.0156


--------------------------------------------------------------------------------------------------------


 stress matrix after NEB project (eV)
     15.53108      0.00000     -0.00000
      0.00000     18.84958      0.41409
     -0.00000      0.41409     16.21616
  FORCES: max atom, RMS     4.954935    1.414177
  FORCE total and by dimension   11.999692    3.706945
  Stress total and by dimension   29.322823   18.849577
     LOOP+:  cpu time     84.9860: real time     86.1120
    4ORBIT:  cpu time      0.0000: real time      0.0000



 total charge

# of ion       s       p       d       tot
------------------------------------------
    1        0.646   1.004   0.000   1.650
    2        0.645   1.004   0.000   1.649
    3        0.645   1.004   0.000   1.649
    4        0.645   1.004   0.000   1.649
    5        0.645   1.004   0.000   1.649
    6        0.646   1.005   0.000   1.651
    7        0.645   1.004   0.000   1.649
    8        0.646   1.005   0.000   1.650
    9        0.644   0.999   0.000   1.643
   10        0.645   1.003   0.000   1.648
   11        0.646   1.005   0.000   1.650
   12        0.646   1.005   0.000   1.650
   13        0.644   0.999   0.000   1.643
   14        0.645   1.004   0.000   1.649
   15        0.646   1.005   0.000   1.651
   16        0.644   0.999   0.000   1.643
   17        0.646   1.005   0.000   1.650
   18        0.644   0.999   0.000   1.643
   19        0.646   1.005   0.000   1.650
   20        0.646   1.005   0.000   1.650
   21        0.645   1.003   0.000   1.648
   22        0.646   1.005   0.000   1.651
   23        0.645   1.004   0.000   1.649
   24        0.868   1.318   0.000   2.185
   25        1.548   3.703   0.000   5.251
   26        1.551   3.658   0.000   5.209
   27        1.548   3.702   0.000   5.250
   28        1.548   3.701   0.000   5.250
   29        1.548   3.702   0.000   5.250
   30        1.549   3.696   0.000   5.246
   31        1.548   3.702   0.000   5.250
   32        1.548   3.703   0.000   5.251
   33        1.551   3.657   0.000   5.208
   34        1.548   3.701   0.000   5.249
   35        1.547   3.703   0.000   5.250
   36        1.548   3.702   0.000   5.250
   37        1.548   3.702   0.000   5.250
   38        1.548   3.701   0.000   5.249
   39        1.548   3.704   0.000   5.252
   40        1.548   3.702   0.000   5.250
   41        1.548   3.700   0.000   5.248
   42        1.550   3.696   0.000   5.246
   43        1.547   3.701   0.000   5.248
   44        1.548   3.701   0.000   5.249
   45        1.547   3.705   0.000   5.253
   46        1.548   3.700   0.000   5.248
   47        1.548   3.703   0.000   5.251
   48        1.548   3.701   0.000   5.249
   49        1.551   3.658   0.000   5.209
   50        1.548   3.703   0.000   5.251
   51        1.549   3.696   0.000   5.246
   52        1.548   3.702   0.000   5.250
   53        1.548   3.701   0.000   5.250
   54        1.548   3.702   0.000   5.250
   55        1.548   3.703   0.000   5.251
   56        1.548   3.702   0.000   5.250
   57        1.550   3.696   0.000   5.246
   58        1.548   3.700   0.000   5.248
   59        1.548   3.700   0.000   5.248
   60        1.547   3.705   0.000   5.253
   61        1.548   3.701   0.000   5.249
   62        1.547   3.701   0.000   5.248
   63        1.548   3.701   0.000   5.249
   64        1.548   3.703   0.000   5.251
   65        1.548   3.701   0.000   5.249
   66        1.551   3.657   0.000   5.208
   67        1.548   3.701   0.000   5.249
   68        1.548   3.702   0.000   5.250
   69        1.548   3.702   0.000   5.250
   70        1.547   3.703   0.000   5.250
   71        1.548   3.702   0.000   5.250
   72        1.548   3.704   0.000   5.252
--------------------------------------------------
tot         90.023 201.890   0.000 291.913
 

 total amount of memory used by VASP MPI-rank0   114071. kBytes
=======================================================================

   base      :      30000. kBytes
   nonl-proj :      61636. kBytes
   fftplans  :       1787. kBytes
   grid      :       9934. kBytes
   one-center:        221. kBytes
   wavefun   :      10493. kBytes
 
  
  
 General timing and accounting informations for this job:
 ========================================================
  
                  Total CPU time used (sec):       94.442
                            User time (sec):       92.515
                          System time (sec):        1.928
                         Elapsed time (sec):       96.642
  
                   Maximum memory used (kb):      335872.
                   Average memory used (kb):          N/A
  
                          Minor page faults:       112816
                          Major page faults:           41
                 Voluntary context switches:         3287
