<?xml version="1.0" encoding="ISO-8859-1"?>
<modeling>
 <generator>
  <i name="program" type="string">vasp </i>
  <i name="version" type="string">5.4.4.18Apr17-6-g9f103f2a35  </i>
  <i name="subversion" type="string">(build Jun 19 2019 10:34:07) complex            parallel </i>
  <i name="platform" type="string">LB-5.4 </i>
  <i name="date" type="string">2023 05 15 </i>
  <i name="time" type="string">18:47:13 </i>
 </generator>
 <incar>
  <i type="string" name="SYSTEM"> Si</i>
  <i type="string" name="PREC">normal</i>
  <i type="string" name="ALGO"> Normal</i>
  <i type="int" name="ISPIN">     1</i>
  <i name="AMIX">      0.20000000</i>
  <i type="int" name="NELM">   200</i>
  <i type="int" name="IBRION">     2</i>
  <i name="EDIFF">      0.00001000</i>
  <i name="EDIFFG">     -0.05000000</i>
  <i type="int" name="NSW">   100</i>
  <i type="int" name="ISIF">     2</i>
  <i type="int" name="ISYM">     2</i>
  <i name="ENCUT">    550.00000000</i>
  <i name="NELECT">    211.00000000</i>
  <i type="logical" name="LREAL"> F  </i>
  <i type="int" name="ISMEAR">     0</i>
  <i name="SIGMA">      0.05000000</i>
  <i type="logical" name="LWAVE"> T  </i>
  <i type="logical" name="LCHARG"> T  </i>
  <i type="int" name="LORBIT">    10</i>
  <v type="int" name="KPOINT_BSE">    -1     0     0     0</v>
  <i type="int" name="NELM">   200</i>
 </incar>
 <structure name="primitive_cell" >
  <crystal>
   <varray name="basis" >
    <v>       9.97646553       0.00000000       5.75991507 </v>
    <v>       3.32548851       9.40590192       5.75991507 </v>
    <v>       0.00000000       0.00000000      11.51983014 </v>
   </varray>
   <i name="volume">   1080.99386112 </i>
   <varray name="rec_basis" >
    <v>       0.10023590      -0.03543874       0.00000000 </v>
    <v>       0.00000000       0.10631623       0.00000000 </v>
    <v>      -0.05011795      -0.03543874       0.08680684 </v>
   </varray>
  </crystal>
  <varray name="positions" >
   <v>       0.29166667       0.29166667      -0.37500000 </v>
   <v>       0.04166667       0.37500000      -0.29166667 </v>
   <v>       0.37500000       0.37500000       0.37500000 </v>
   <v>       0.37500000       0.37500000      -0.29166667 </v>
   <v>       0.37500000       0.04166667      -0.29166667 </v>
   <v>      -0.04166667       0.29166667      -0.37500000 </v>
   <v>      -0.04166667       0.29166667      -0.04166667 </v>
   <v>      -0.37500000       0.29166667       0.29166667 </v>
   <v>      -0.37500000       0.29166667      -0.37500000 </v>
   <v>      -0.37500000      -0.04166667      -0.37500000 </v>
   <v>      -0.04166667      -0.37500000      -0.37500000 </v>
   <v>       0.29166667      -0.04166667      -0.37500000 </v>
   <v>       0.29166667      -0.04166667      -0.04166667 </v>
   <v>       0.29166667      -0.37500000       0.29166667 </v>
   <v>       0.29166667      -0.37500000      -0.37500000 </v>
   <v>       0.29166667       0.29166667      -0.04166667 </v>
   <v>      -0.29166667       0.37500000       0.37500000 </v>
   <v>       0.04166667       0.04166667      -0.29166667 </v>
   <v>       0.04166667       0.04166667       0.04166667 </v>
   <v>      -0.29166667       0.04166667       0.37500000 </v>
   <v>      -0.29166667       0.04166667      -0.29166667 </v>
   <v>       0.37500000      -0.29166667       0.37500000 </v>
   <v>       0.04166667       0.37500000       0.37500000 </v>
   <v>       0.04166667       0.37500000       0.04166667 </v>
   <v>       0.04166667      -0.29166667       0.37500000 </v>
   <v>       0.04166667      -0.29166667      -0.29166667 </v>
   <v>       0.37500000       0.04166667       0.37500000 </v>
   <v>       0.37500000       0.04166667       0.04166667 </v>
   <v>      -0.04166667      -0.04166667      -0.04166667 </v>
   <v>      -0.37500000      -0.37500000       0.29166667 </v>
   <v>      -0.37500000      -0.04166667       0.29166667 </v>
   <v>      -0.04166667      -0.37500000       0.29166667 </v>
   <v>      -0.37500000      -0.04166667      -0.04166667 </v>
   <v>      -0.04166667      -0.37500000      -0.04166667 </v>
   <v>      -0.29166667       0.37500000      -0.29166667 </v>
   <v>      -0.29166667       0.37500000       0.04166667 </v>
   <v>      -0.29166667      -0.29166667      -0.29166667 </v>
   <v>       0.37500000      -0.29166667       0.04166667 </v>
   <v>       0.37500000      -0.29166667      -0.29166667 </v>
   <v>       0.37500000       0.37500000       0.04166667 </v>
   <v>      -0.37500000       0.29166667      -0.04166667 </v>
   <v>      -0.04166667       0.29166667       0.29166667 </v>
   <v>      -0.37500000      -0.37500000      -0.37500000 </v>
   <v>      -0.37500000      -0.37500000      -0.04166667 </v>
   <v>      -0.04166667      -0.04166667       0.29166667 </v>
   <v>      -0.04166667      -0.04166667      -0.37500000 </v>
   <v>       0.29166667      -0.37500000      -0.04166667 </v>
   <v>       0.29166667      -0.04166667       0.29166667 </v>
   <v>      -0.29166667       0.04166667       0.04166667 </v>
   <v>       0.04166667       0.04166667       0.37500000 </v>
   <v>      -0.29166667      -0.29166667       0.04166667 </v>
   <v>      -0.29166667      -0.29166667       0.37500000 </v>
   <v>       0.04166667      -0.29166667       0.04166667 </v>
  </varray>
 </structure>
 <varray name="primitive_index" >
  <v type="int" >        1 </v>
  <v type="int" >       32 </v>
  <v type="int" >       40 </v>
  <v type="int" >       41 </v>
  <v type="int" >       38 </v>
  <v type="int" >       19 </v>
  <v type="int" >       20 </v>
  <v type="int" >        9 </v>
  <v type="int" >       10 </v>
  <v type="int" >       16 </v>
  <v type="int" >       22 </v>
  <v type="int" >        7 </v>
  <v type="int" >        8 </v>
  <v type="int" >        3 </v>
  <v type="int" >        4 </v>
  <v type="int" >        2 </v>
  <v type="int" >       49 </v>
  <v type="int" >       29 </v>
  <v type="int" >       27 </v>
  <v type="int" >       46 </v>
  <v type="int" >       47 </v>
  <v type="int" >       43 </v>
  <v type="int" >       31 </v>
  <v type="int" >       30 </v>
  <v type="int" >       34 </v>
  <v type="int" >       35 </v>
  <v type="int" >       37 </v>
  <v type="int" >       36 </v>
  <v type="int" >       26 </v>
  <v type="int" >       12 </v>
  <v type="int" >       15 </v>
  <v type="int" >       21 </v>
  <v type="int" >       17 </v>
  <v type="int" >       23 </v>
  <v type="int" >       50 </v>
  <v type="int" >       48 </v>
  <v type="int" >       53 </v>
  <v type="int" >       42 </v>
  <v type="int" >       44 </v>
  <v type="int" >       39 </v>
  <v type="int" >       11 </v>
  <v type="int" >       18 </v>
  <v type="int" >       13 </v>
  <v type="int" >       14 </v>
  <v type="int" >       24 </v>
  <v type="int" >       25 </v>
  <v type="int" >        5 </v>
  <v type="int" >        6 </v>
  <v type="int" >       45 </v>
  <v type="int" >       28 </v>
  <v type="int" >       51 </v>
  <v type="int" >       52 </v>
  <v type="int" >       33 </v>
 </varray>
 <kpoints>
  <generation param="Gamma">
   <v type="int" name="divisions">       4        4        4 </v>
   <v name="usershift">      0.00000000       0.00000000       0.00000000 </v>
   <v name="genvec1">      0.25000000       0.00000000       0.00000000 </v>
   <v name="genvec2">      0.00000000       0.25000000       0.00000000 </v>
   <v name="genvec3">     -0.00000000      -0.00000000       0.25000000 </v>
   <v name="shift">      0.00000000       0.00000000       0.00000000 </v>
  </generation>
  <varray name="kpointlist" >
   <v>       0.00000000       0.00000000       0.00000000 </v>
   <v>       0.25000000       0.00000000       0.00000000 </v>
   <v>       0.50000000       0.00000000       0.00000000 </v>
   <v>       0.25000000       0.25000000       0.00000000 </v>
   <v>       0.50000000       0.25000000       0.00000000 </v>
   <v>      -0.25000000       0.25000000       0.00000000 </v>
   <v>       0.50000000       0.50000000       0.00000000 </v>
   <v>      -0.25000000       0.50000000       0.25000000 </v>
  </varray>
  <varray name="weights" >
   <v>       0.01562500 </v>
   <v>       0.12500000 </v>
   <v>       0.06250000 </v>
   <v>       0.09375000 </v>
   <v>       0.37500000 </v>
   <v>       0.18750000 </v>
   <v>       0.04687500 </v>
   <v>       0.09375000 </v>
  </varray>
 </kpoints>
 <parameters>
  <separator name="general" >
   <i type="string" name="SYSTEM">Si</i>
   <i type="logical" name="LCOMPAT"> F  </i>
  </separator>
  <separator name="electronic" >
   <i type="string" name="PREC">normal</i>
   <i name="ENMAX">    550.00000000</i>
   <i name="ENAUG">    322.06900000</i>
   <i name="EDIFF">      0.00001000</i>
   <i type="int" name="IALGO">    38</i>
   <i type="int" name="IWAVPR">    11</i>
   <i type="int" name="NBANDS">   144</i>
   <i name="NELECT">    211.00000000</i>
   <i type="int" name="TURBO">     0</i>
   <i type="int" name="IRESTART">     0</i>
   <i type="int" name="NREBOOT">     0</i>
   <i type="int" name="NMIN">     0</i>
   <i name="EREF">      0.00000000</i>
   <separator name="electronic smearing" >
    <i type="int" name="ISMEAR">     0</i>
    <i name="SIGMA">      0.05000000</i>
    <i name="KSPACING">      0.50000000</i>
    <i type="logical" name="KGAMMA"> T  </i>
   </separator>
   <separator name="electronic projectors" >
    <i type="logical" name="LREAL"> F  </i>
    <v name="ROPT">      0.00000000</v>
    <i type="int" name="LMAXPAW">  -100</i>
    <i type="int" name="LMAXMIX">     2</i>
    <i type="logical" name="NLSPLINE"> F  </i>
   </separator>
   <separator name="electronic startup" >
    <i type="int" name="ISTART">     1</i>
    <i type="int" name="ICHARG">     0</i>
    <i type="int" name="INIWAV">     1</i>
   </separator>
   <separator name="electronic spin" >
    <i type="int" name="ISPIN">     1</i>
    <i type="logical" name="LNONCOLLINEAR"> F  </i>
    <v name="MAGMOM">      1.00000000      1.00000000      1.00000000      1.00000000      1.00000000      1.00000000      1.00000000      1.00000000      1.00000000      1.00000000      1.00000000      1.00000000      1.00000000      1.00000000      1.00000000      1.00000000      1.00000000      1.00000000      1.00000000      1.00000000
      1.00000000      1.00000000      1.00000000      1.00000000      1.00000000      1.00000000      1.00000000      1.00000000      1.00000000      1.00000000      1.00000000      1.00000000      1.00000000      1.00000000      1.00000000      1.00000000      1.00000000      1.00000000      1.00000000      1.00000000
      1.00000000      1.00000000      1.00000000      1.00000000      1.00000000      1.00000000      1.00000000      1.00000000      1.00000000      1.00000000      1.00000000      1.00000000      1.00000000</v>
    <i name="NUPDOWN">     -1.00000000</i>
    <i type="logical" name="LSORBIT"> F  </i>
    <v name="SAXIS">      0.00000000      0.00000000      1.00000000</v>
    <i type="logical" name="LSPIRAL"> F  </i>
    <v name="QSPIRAL">      0.00000000      0.00000000      0.00000000</v>
    <i type="logical" name="LZEROZ"> F  </i>
   </separator>
   <separator name="electronic exchange-correlation" >
    <i type="logical" name="LASPH"> F  </i>
    <i type="logical" name="LMETAGGA"> F  </i>
   </separator>
   <separator name="electronic convergence" >
    <i type="int" name="NELM">   200</i>
    <i type="int" name="NELMDL">     0</i>
    <i type="int" name="NELMIN">     2</i>
    <i name="ENINI">    550.00000000</i>
    <separator name="electronic convergence detail" >
     <i type="logical" name="LDIAG"> T  </i>
     <i type="logical" name="LSUBROT"> F  </i>
     <i name="WEIMIN">      0.00100000</i>
     <i name="EBREAK">      0.00000002</i>
     <i name="DEPER">      0.30000000</i>
     <i type="int" name="NRMM">     4</i>
     <i name="TIME">      0.40000000</i>
    </separator>
   </separator>
   <separator name="electronic mixer" >
    <i name="AMIX">      0.20000000</i>
    <i name="BMIX">      1.00000000</i>
    <i name="AMIN">      0.10000000</i>
    <i name="AMIX_MAG">      0.80000000</i>
    <i name="BMIX_MAG">      1.00000000</i>
    <separator name="electronic mixer details" >
     <i type="int" name="IMIX">     4</i>
     <i type="logical" name="MIXFIRST"> F  </i>
     <i type="int" name="MAXMIX">   -45</i>
     <i name="WC">    100.00000000</i>
     <i type="int" name="INIMIX">     1</i>
     <i type="int" name="MIXPRE">     1</i>
     <i type="int" name="MREMOVE">     5</i>
    </separator>
   </separator>
   <separator name="electronic dipolcorrection" >
    <i type="logical" name="LDIPOL"> F  </i>
    <i type="logical" name="LMONO"> F  </i>
    <i type="int" name="IDIPOL">     0</i>
    <i name="EPSILON">      1.00000000</i>
    <v name="DIPOL">   -100.00000000   -100.00000000   -100.00000000</v>
    <i name="EFIELD">      0.00000000</i>
   </separator>
  </separator>
  <separator name="grids" >
   <i type="int" name="NGX">    70</i>
   <i type="int" name="NGY">    70</i>
   <i type="int" name="NGZ">    70</i>
   <i type="int" name="NGXF">   140</i>
   <i type="int" name="NGYF">   140</i>
   <i type="int" name="NGZF">   140</i>
   <i type="logical" name="ADDGRID"> F  </i>
  </separator>
  <separator name="ionic" >
   <i type="int" name="NSW">   100</i>
   <i type="int" name="IBRION">     2</i>
   <i type="int" name="MDALGO">     0</i>
   <i type="int" name="ISIF">     2</i>
   <i name="PSTRESS">      0.00000000</i>
   <i name="EDIFFG">     -0.05000000</i>
   <i type="int" name="NFREE">     1</i>
   <i name="POTIM">      0.50000000</i>
   <i name="SMASS">     -3.00000000</i>
   <i name="SCALEE">      1.00000000</i>
  </separator>
  <separator name="ionic md" >
   <i name="TEBEG">      0.00010000</i>
   <i name="TEEND">      0.00010000</i>
   <i type="int" name="NBLOCK">     1</i>
   <i type="int" name="KBLOCK">   100</i>
   <i type="int" name="NPACO">   256</i>
   <i name="APACO">     16.00000000</i>
  </separator>
  <separator name="symmetry" >
   <i type="int" name="ISYM">     2</i>
   <i name="SYMPREC">      0.00001000</i>
  </separator>
  <separator name="dos" >
   <i type="int" name="LORBIT">    10</i>
   <v name="RWIGS">     -1.00000000</v>
   <i type="int" name="NEDOS">   301</i>
   <i name="EMIN">     10.00000000</i>
   <i name="EMAX">    -10.00000000</i>
   <i name="EFERMI">      0.00000000</i>
  </separator>
  <separator name="writing" >
   <i type="int" name="NWRITE">     2</i>
   <i type="logical" name="LWAVE"> T  </i>
   <i type="logical" name="LDOWNSAMPLE"> F  </i>
   <i type="logical" name="LCHARG"> T  </i>
   <i type="logical" name="LPARD"> F  </i>
   <i type="logical" name="LVTOT"> F  </i>
   <i type="logical" name="LVHAR"> F  </i>
   <i type="logical" name="LELF"> F  </i>
   <i type="logical" name="LOPTICS"> F  </i>
   <v name="STM">      0.00000000      0.00000000      0.00000000      0.00000000      0.00000000      0.00000000      0.00000000</v>
  </separator>
  <separator name="performance" >
   <i type="int" name="NPAR">    24</i>
   <i type="int" name="NSIM">     4</i>
   <i type="int" name="NBLK">    -1</i>
   <i type="logical" name="LPLANE"> T  </i>
   <i type="logical" name="LSCALAPACK"> T  </i>
   <i type="logical" name="LSCAAWARE"> F  </i>
   <i type="logical" name="LSCALU"> F  </i>
   <i type="logical" name="LASYNC"> F  </i>
   <i type="logical" name="LORBITALREAL"> F  </i>
  </separator>
  <separator name="miscellaneous" >
   <i type="int" name="IDIOT">     3</i>
   <i type="int" name="ISPECIAL">     0</i>
   <i type="logical" name="LMUSIC"> F  </i>
   <v name="POMASS">     28.08500000</v>
   <v name="DARWINR">      0.00000000</v>
   <v name="DARWINV">      1.00000000</v>
   <i type="logical" name="LCORR"> T  </i>
  </separator>
  <i type="logical" name="GGA_COMPAT"> T  </i>
  <i type="logical" name="LBERRY"> F  </i>
  <i type="int" name="ICORELEVEL">     0</i>
  <i type="logical" name="LDAU"> F  </i>
  <i type="int" name="I_CONSTRAINED_M">     0</i>
  <separator name="electronic exchange-correlation" >
   <i type="string" name="GGA">--</i>
   <i type="int" name="VOSKOWN">     0</i>
   <i type="logical" name="LHFCALC"> F  </i>
   <i type="string" name="PRECFOCK"></i>
   <i type="logical" name="LSYMGRAD"> F  </i>
   <i type="logical" name="LHFONE"> F  </i>
   <i type="logical" name="LRHFCALC"> F  </i>
   <i type="logical" name="LTHOMAS"> F  </i>
   <i type="logical" name="LMODELHF"> F  </i>
   <i name="ENCUT4O">     -1.00000000</i>
   <i type="int" name="EXXOEP">     0</i>
   <i type="int" name="FOURORBIT">     0</i>
   <i name="AEXX">      0.00000000</i>
   <i name="HFALPHA">      0.00000000</i>
   <i name="MCALPHA">      0.00000000</i>
   <i name="ALDAX">      1.00000000</i>
   <i name="AGGAX">      1.00000000</i>
   <i name="ALDAC">      1.00000000</i>
   <i name="AGGAC">      1.00000000</i>
   <i type="int" name="NKREDX">     1</i>
   <i type="int" name="NKREDY">     1</i>
   <i type="int" name="NKREDZ">     1</i>
   <i type="logical" name="SHIFTRED"> F  </i>
   <i type="logical" name="ODDONLY"> F  </i>
   <i type="logical" name="EVENONLY"> F  </i>
   <i type="int" name="LMAXFOCK">     0</i>
   <i type="int" name="NMAXFOCKAE">     0</i>
   <i type="logical" name="LFOCKAEDFT"> F  </i>
   <i name="HFSCREEN">      0.00000000</i>
   <i name="HFSCREENC">      0.00000000</i>
   <i type="int" name="NBANDSGWLOW">     0</i>
  </separator>
  <separator name="vdW DFT" >
   <i type="logical" name="LUSE_VDW"> F  </i>
   <i name="Zab_VDW">     -0.84910000</i>
   <i name="PARAM1">      0.12340000</i>
   <i name="PARAM2">      1.00000000</i>
   <i name="PARAM3">      0.00000000</i>
  </separator>
  <separator name="model GW" >
   <i type="int" name="MODEL_GW">     0</i>
   <i name="MODEL_EPS0">     12.23766635</i>
   <i name="MODEL_ALPHA">      1.00000000</i>
  </separator>
  <separator name="linear response parameters" >
   <i type="logical" name="LEPSILON"> F  </i>
   <i type="logical" name="LRPA"> F  </i>
   <i type="logical" name="LNABLA"> F  </i>
   <i type="logical" name="LVEL"> F  </i>
   <i type="int" name="KINTER">     0</i>
   <i name="CSHIFT">      0.10000000</i>
   <i name="OMEGAMAX">     -1.00000000</i>
   <i name="DEG_THRESHOLD">      0.00200000</i>
   <i name="RTIME">     -0.10000000</i>
   <i name="WPLASMAI">      0.00000000</i>
   <v name="DFIELD">      0.00000000      0.00000000      0.00000000</v>
   <v name="WPLASMA">      0.00000000      0.00000000      0.00000000      0.00000000      0.00000000      0.00000000      0.00000000      0.00000000      0.00000000</v>
  </separator>
  <separator name="orbital magnetization" >
   <i type="logical" name="NUCIND"> F  </i>
   <v name="MAGPOS">      0.00000000      0.00000000      0.00000000</v>
   <i type="logical" name="LNICSALL"> T  </i>
   <i type="logical" name="ORBITALMAG"> F  </i>
   <i type="logical" name="LMAGBLOCH"> F  </i>
   <i type="logical" name="LCHIMAG"> F  </i>
   <i type="logical" name="LGAUGE"> T  </i>
   <i type="int" name="MAGATOM">     0</i>
   <v name="MAGDIPOL">      0.00000000      0.00000000      0.00000000</v>
   <v name="AVECCONST">      0.00000000      0.00000000      0.00000000</v>
  </separator>
  <separator name="response functions" >
   <i type="logical" name="LADDER"> F  </i>
   <i type="logical" name="LRPAFORCE"> F  </i>
   <i type="logical" name="LFXC"> F  </i>
   <i type="logical" name="LHARTREE"> T  </i>
   <i type="int" name="IBSE">     0</i>
   <v type="int" name="KPOINT">    -1     0     0     0</v>
   <i type="logical" name="LTCTE"> F  </i>
   <i type="logical" name="LTETE"> F  </i>
   <i type="logical" name="LTRIPLET"> F  </i>
   <i type="logical" name="LFXCEPS"> F  </i>
   <i type="logical" name="LFXHEG"> F  </i>
   <i type="int" name="NATURALO">     2</i>
   <i type="logical" name="L2ORDER"> F  </i>
   <i type="logical" name="LMP2LT"> F  </i>
   <i type="logical" name="LUSEW"> F  </i>
   <i name="ENCUTGW">     -2.00000000</i>
   <i name="ENCUTGWSOFT">     -2.00000000</i>
   <i name="ENCUTLF">     -1.00000000</i>
   <i type="int" name="LMAXMP2">    -1</i>
   <i name="SCISSOR">      0.00000000</i>
   <i type="int" name="NOMEGA">     0</i>
   <i type="int" name="NOMEGAR">     0</i>
   <i type="int" name="NBANDSGW">    -1</i>
   <i type="int" name="NBANDSO">    -1</i>
   <i type="int" name="NBANDSV">    -1</i>
   <i type="int" name="NELM">   200</i>
   <i type="int" name="NELMHF">     1</i>
   <i type="int" name="DIM">     3</i>
   <i type="int" name="ANTIRES">     0</i>
   <i name="OMEGAMAX">    -30.00000000</i>
   <i name="OMEGAMIN">    -30.00000000</i>
   <i name="OMEGATL">   -200.00000000</i>
   <i type="int" name="OMEGAGRID">   140</i>
   <i name="CSHIFT">     -0.10000000</i>
   <i type="logical" name="SELFENERGY"> F  </i>
   <i type="logical" name="LSPECTRAL"> F  </i>
   <i type="logical" name="LSPECTRALGW"> F  </i>
   <i type="logical" name="LSINGLES"> F  </i>
   <i type="logical" name="LFERMIGW"> F  </i>
   <i type="logical" name="ODDONLYGW"> F  </i>
   <i type="logical" name="EVENONLYGW"> F  </i>
   <i type="int" name="NKREDLFX">     1</i>
   <i type="int" name="NKREDLFY">     1</i>
   <i type="int" name="NKREDLFZ">     1</i>
   <i type="int" name="MAXMEM">  2800</i>
   <i type="int" name="TELESCOPE">     0</i>
   <i type="int" name="TAUPAR">     1</i>
   <i type="int" name="OMEGAPAR">    -1</i>
   <i name="LAMBDA">      1.00000000</i>
  </separator>
  <separator name="External order field" >
   <i name="OFIELD_KAPPA">      0.00000000</i>
   <v name="OFIELD_K">      0.00000000      0.00000000      0.00000000</v>
   <i name="OFIELD_Q6_NEAR">      0.00000000</i>
   <i name="OFIELD_Q6_FAR">      0.00000000</i>
   <i name="OFIELD_A">      0.00000000</i>
  </separator>
 </parameters>
 <atominfo>
  <atoms>      53 </atoms>
  <types>       1 </types>
  <array name="atoms" >
   <dimension dim="1">ion</dimension>
   <field type="string">element</field>
   <field type="int">atomtype</field>
   <set>
    <rc><c>Si</c><c>   1</c></rc>
    <rc><c>Si</c><c>   1</c></rc>
    <rc><c>Si</c><c>   1</c></rc>
    <rc><c>Si</c><c>   1</c></rc>
    <rc><c>Si</c><c>   1</c></rc>
    <rc><c>Si</c><c>   1</c></rc>
    <rc><c>Si</c><c>   1</c></rc>
    <rc><c>Si</c><c>   1</c></rc>
    <rc><c>Si</c><c>   1</c></rc>
    <rc><c>Si</c><c>   1</c></rc>
    <rc><c>Si</c><c>   1</c></rc>
    <rc><c>Si</c><c>   1</c></rc>
    <rc><c>Si</c><c>   1</c></rc>
    <rc><c>Si</c><c>   1</c></rc>
    <rc><c>Si</c><c>   1</c></rc>
    <rc><c>Si</c><c>   1</c></rc>
    <rc><c>Si</c><c>   1</c></rc>
    <rc><c>Si</c><c>   1</c></rc>
    <rc><c>Si</c><c>   1</c></rc>
    <rc><c>Si</c><c>   1</c></rc>
    <rc><c>Si</c><c>   1</c></rc>
    <rc><c>Si</c><c>   1</c></rc>
    <rc><c>Si</c><c>   1</c></rc>
    <rc><c>Si</c><c>   1</c></rc>
    <rc><c>Si</c><c>   1</c></rc>
    <rc><c>Si</c><c>   1</c></rc>
    <rc><c>Si</c><c>   1</c></rc>
    <rc><c>Si</c><c>   1</c></rc>
    <rc><c>Si</c><c>   1</c></rc>
    <rc><c>Si</c><c>   1</c></rc>
    <rc><c>Si</c><c>   1</c></rc>
    <rc><c>Si</c><c>   1</c></rc>
    <rc><c>Si</c><c>   1</c></rc>
    <rc><c>Si</c><c>   1</c></rc>
    <rc><c>Si</c><c>   1</c></rc>
    <rc><c>Si</c><c>   1</c></rc>
    <rc><c>Si</c><c>   1</c></rc>
    <rc><c>Si</c><c>   1</c></rc>
    <rc><c>Si</c><c>   1</c></rc>
    <rc><c>Si</c><c>   1</c></rc>
    <rc><c>Si</c><c>   1</c></rc>
    <rc><c>Si</c><c>   1</c></rc>
    <rc><c>Si</c><c>   1</c></rc>
    <rc><c>Si</c><c>   1</c></rc>
    <rc><c>Si</c><c>   1</c></rc>
    <rc><c>Si</c><c>   1</c></rc>
    <rc><c>Si</c><c>   1</c></rc>
    <rc><c>Si</c><c>   1</c></rc>
    <rc><c>Si</c><c>   1</c></rc>
    <rc><c>Si</c><c>   1</c></rc>
    <rc><c>Si</c><c>   1</c></rc>
    <rc><c>Si</c><c>   1</c></rc>
    <rc><c>Si</c><c>   1</c></rc>
   </set>
  </array>
  <array name="atomtypes" >
   <dimension dim="1">type</dimension>
   <field type="int">atomspertype</field>
   <field type="string">element</field>
   <field>mass</field>
   <field>valence</field>
   <field type="string">pseudopotential</field>
   <set>
    <rc><c>  53</c><c>Si</c><c>     28.08500000</c><c>      4.00000000</c><c>  PAW_PBE Si 05Jan2001                  </c></rc>
   </set>
  </array>
 </atominfo>
 <structure name="initialpos" >
  <crystal>
   <varray name="basis" >
    <v>       9.97646553       0.00000000       5.75991507 </v>
    <v>       3.32548851       9.40590192       5.75991507 </v>
    <v>       0.00000000       0.00000000      11.51983014 </v>
   </varray>
   <i name="volume">   1080.99386112 </i>
   <varray name="rec_basis" >
    <v>       0.10023590      -0.03543874       0.00000000 </v>
    <v>       0.00000000       0.10631623       0.00000000 </v>
    <v>      -0.05011795      -0.03543874       0.08680684 </v>
   </varray>
  </crystal>
  <varray name="positions" >
   <v>       0.29166667       0.29166667       0.62500000 </v>
   <v>       0.29166667       0.29166667       0.95833333 </v>
   <v>       0.29166667       0.62500000       0.29166667 </v>
   <v>       0.29166667       0.62500000       0.62500000 </v>
   <v>       0.29166667       0.62500000       0.95833333 </v>
   <v>       0.29166667       0.95833333       0.29166667 </v>
   <v>       0.29166667       0.95833333       0.62500000 </v>
   <v>       0.29166667       0.95833333       0.95833333 </v>
   <v>       0.62500000       0.29166667       0.29166667 </v>
   <v>       0.62500000       0.29166667       0.62500000 </v>
   <v>       0.62500000       0.29166667       0.95833333 </v>
   <v>       0.62500000       0.62500000       0.29166667 </v>
   <v>       0.62500000       0.62500000       0.62500000 </v>
   <v>       0.62500000       0.62500000       0.95833333 </v>
   <v>       0.62500000       0.95833333       0.29166667 </v>
   <v>       0.62500000       0.95833333       0.62500000 </v>
   <v>       0.62500000       0.95833333       0.95833333 </v>
   <v>       0.95833333       0.29166667       0.29166667 </v>
   <v>       0.95833333       0.29166667       0.62500000 </v>
   <v>       0.95833333       0.29166667       0.95833333 </v>
   <v>       0.95833333       0.62500000       0.29166667 </v>
   <v>       0.95833333       0.62500000       0.62500000 </v>
   <v>       0.95833333       0.62500000       0.95833333 </v>
   <v>       0.95833333       0.95833333       0.29166667 </v>
   <v>       0.95833333       0.95833333       0.62500000 </v>
   <v>       0.95833333       0.95833333       0.95833333 </v>
   <v>       0.04166667       0.04166667       0.04166667 </v>
   <v>       0.04166667       0.04166667       0.37500000 </v>
   <v>       0.04166667       0.04166667       0.70833333 </v>
   <v>       0.04166667       0.37500000       0.04166667 </v>
   <v>       0.04166667       0.37500000       0.37500000 </v>
   <v>       0.04166667       0.37500000       0.70833333 </v>
   <v>       0.04166667       0.70833333       0.04166667 </v>
   <v>       0.04166667       0.70833333       0.37500000 </v>
   <v>       0.04166667       0.70833333       0.70833333 </v>
   <v>       0.37500000       0.04166667       0.04166667 </v>
   <v>       0.37500000       0.04166667       0.37500000 </v>
   <v>       0.37500000       0.04166667       0.70833333 </v>
   <v>       0.37500000       0.37500000       0.04166667 </v>
   <v>       0.37500000       0.37500000       0.37500000 </v>
   <v>       0.37500000       0.37500000       0.70833333 </v>
   <v>       0.37500000       0.70833333       0.04166667 </v>
   <v>       0.37500000       0.70833333       0.37500000 </v>
   <v>       0.37500000       0.70833333       0.70833333 </v>
   <v>       0.70833333       0.04166667       0.04166667 </v>
   <v>       0.70833333       0.04166667       0.37500000 </v>
   <v>       0.70833333       0.04166667       0.70833333 </v>
   <v>       0.70833333       0.37500000       0.04166667 </v>
   <v>       0.70833333       0.37500000       0.37500000 </v>
   <v>       0.70833333       0.37500000       0.70833333 </v>
   <v>       0.70833333       0.70833333       0.04166667 </v>
   <v>       0.70833333       0.70833333       0.37500000 </v>
   <v>       0.70833333       0.70833333       0.70833333 </v>
  </varray>
 </structure>
 <calculation>
  <scstep>
   <time name="dav">    6.28    6.35</time>
   <time name="total">    7.16    7.25</time>
   <energy>
    <i name="alphaZ">     87.47481167 </i>
    <i name="ewald">  -5974.52528800 </i>
    <i name="hartreedc">   -435.07313642 </i>
    <i name="XCdc">   -481.15327705 </i>
    <i name="pawpsdc">  22226.22660160 </i>
    <i name="pawaedc"> -21299.27520466 </i>
    <i name="eentropy">     -0.00585979 </i>
    <i name="bandstr">    124.15111651 </i>
    <i name="atom">   5462.52286525 </i>
    <i name="e_fr_energy">   -289.65737089 </i>
    <i name="e_wo_entrp">   -289.65151110 </i>
    <i name="e_0_energy">   -289.65444099 </i>
   </energy>
  </scstep>
  <scstep>
   <time name="dav">    3.69    3.73</time>
   <time name="total">    4.37    4.42</time>
   <energy>
    <i name="e_fr_energy">   -289.65734745 </i>
    <i name="e_wo_entrp">   -289.65150487 </i>
    <i name="e_0_energy">   -289.65442616 </i>
   </energy>
  </scstep>
  <scstep>
   <time name="dav">    3.57    3.68</time>
   <time name="total">    4.25    4.36</time>
   <energy>
    <i name="alphaZ">     87.47481167 </i>
    <i name="ewald">  -5974.52528800 </i>
    <i name="hartreedc">   -435.09848440 </i>
    <i name="XCdc">   -481.15266050 </i>
    <i name="pawpsdc">  22226.63999752 </i>
    <i name="pawaedc"> -21299.68864058 </i>
    <i name="eentropy">     -0.00583265 </i>
    <i name="bandstr">    124.17588772 </i>
    <i name="atom">   5462.52286525 </i>
    <i name="e_fr_energy">   -289.65734397 </i>
    <i name="e_wo_entrp">   -289.65151132 </i>
    <i name="e_0_energy">   -289.65442765 </i>
   </energy>
  </scstep>
  <structure>
   <crystal>
    <varray name="basis" >
     <v>       9.97646553       0.00000000       5.75991507 </v>
     <v>       3.32548851       9.40590192       5.75991507 </v>
     <v>       0.00000000       0.00000000      11.51983014 </v>
    </varray>
    <i name="volume">   1080.99386112 </i>
    <varray name="rec_basis" >
     <v>       0.10023590      -0.03543874       0.00000000 </v>
     <v>       0.00000000       0.10631623       0.00000000 </v>
     <v>      -0.05011795      -0.03543874       0.08680684 </v>
    </varray>
   </crystal>
   <varray name="positions" >
    <v>       0.29166667       0.29166667       0.62500000 </v>
    <v>       0.29166667       0.29166667       0.95833333 </v>
    <v>       0.29166667       0.62500000       0.29166667 </v>
    <v>       0.29166667       0.62500000       0.62500000 </v>
    <v>       0.29166667       0.62500000       0.95833333 </v>
    <v>       0.29166667       0.95833333       0.29166667 </v>
    <v>       0.29166667       0.95833333       0.62500000 </v>
    <v>       0.29166667       0.95833333       0.95833333 </v>
    <v>       0.62500000       0.29166667       0.29166667 </v>
    <v>       0.62500000       0.29166667       0.62500000 </v>
    <v>       0.62500000       0.29166667       0.95833333 </v>
    <v>       0.62500000       0.62500000       0.29166667 </v>
    <v>       0.62500000       0.62500000       0.62500000 </v>
    <v>       0.62500000       0.62500000       0.95833333 </v>
    <v>       0.62500000       0.95833333       0.29166667 </v>
    <v>       0.62500000       0.95833333       0.62500000 </v>
    <v>       0.62500000       0.95833333       0.95833333 </v>
    <v>       0.95833333       0.29166667       0.29166667 </v>
    <v>       0.95833333       0.29166667       0.62500000 </v>
    <v>       0.95833333       0.29166667       0.95833333 </v>
    <v>       0.95833333       0.62500000       0.29166667 </v>
    <v>       0.95833333       0.62500000       0.62500000 </v>
    <v>       0.95833333       0.62500000       0.95833333 </v>
    <v>       0.95833333       0.95833333       0.29166667 </v>
    <v>       0.95833333       0.95833333       0.62500000 </v>
    <v>       0.95833333       0.95833333       0.95833333 </v>
    <v>       0.04166667       0.04166667       0.04166667 </v>
    <v>       0.04166667       0.04166667       0.37500000 </v>
    <v>       0.04166667       0.04166667       0.70833333 </v>
    <v>       0.04166667       0.37500000       0.04166667 </v>
    <v>       0.04166667       0.37500000       0.37500000 </v>
    <v>       0.04166667       0.37500000       0.70833333 </v>
    <v>       0.04166667       0.70833333       0.04166667 </v>
    <v>       0.04166667       0.70833333       0.37500000 </v>
    <v>       0.04166667       0.70833333       0.70833333 </v>
    <v>       0.37500000       0.04166667       0.04166667 </v>
    <v>       0.37500000       0.04166667       0.37500000 </v>
    <v>       0.37500000       0.04166667       0.70833333 </v>
    <v>       0.37500000       0.37500000       0.04166667 </v>
    <v>       0.37500000       0.37500000       0.37500000 </v>
    <v>       0.37500000       0.37500000       0.70833333 </v>
    <v>       0.37500000       0.70833333       0.04166667 </v>
    <v>       0.37500000       0.70833333       0.37500000 </v>
    <v>       0.37500000       0.70833333       0.70833333 </v>
    <v>       0.70833333       0.04166667       0.04166667 </v>
    <v>       0.70833333       0.04166667       0.37500000 </v>
    <v>       0.70833333       0.04166667       0.70833333 </v>
    <v>       0.70833333       0.37500000       0.04166667 </v>
    <v>       0.70833333       0.37500000       0.37500000 </v>
    <v>       0.70833333       0.37500000       0.70833333 </v>
    <v>       0.70833333       0.70833333       0.04166667 </v>
    <v>       0.70833333       0.70833333       0.37500000 </v>
    <v>       0.70833333       0.70833333       0.70833333 </v>
   </varray>
  </structure>
  <varray name="forces" >
   <v>      -0.20329917      -0.14375422      -0.30527258 </v>
   <v>      -0.20329917      -0.14375422       0.30527258 </v>
   <v>      -0.18977419      -0.10549980      -0.32869854 </v>
   <v>      -0.05822719       0.02058642       0.00000000 </v>
   <v>      -0.18977419      -0.10549980       0.32869854 </v>
   <v>      -0.01352498       0.39300824      -0.02342596 </v>
   <v>      -0.01352498       0.39300824       0.02342596 </v>
   <v>      -0.02805160       0.00991774       0.00000000 </v>
   <v>      -0.16272422      -0.14375422      -0.32869854 </v>
   <v>       0.00000000      -0.06175926       0.00000000 </v>
   <v>      -0.16272422      -0.14375422       0.32869854 </v>
   <v>       0.02911359       0.02058642      -0.05042623 </v>
   <v>       0.02911359       0.02058642       0.05042623 </v>
   <v>      -0.01663266      -0.01176107       0.00000000 </v>
   <v>       0.02704996       0.39300824       0.00000000 </v>
   <v>      -0.00831633       0.01176107      -0.01440430 </v>
   <v>      -0.00831633       0.01176107       0.01440430 </v>
   <v>       0.36602339      -0.14375422      -0.02342596 </v>
   <v>       0.36602339      -0.14375422       0.02342596 </v>
   <v>      -0.00000000      -0.02975322       0.00000000 </v>
   <v>       0.37954838      -0.10549980      -0.00000000 </v>
   <v>       0.00831633      -0.01176107      -0.01440430 </v>
   <v>       0.00831633      -0.01176107       0.01440430 </v>
   <v>       0.01402580       0.00991774      -0.02429340 </v>
   <v>       0.01663266       0.01176107       0.00000000 </v>
   <v>       0.01402580       0.00991774       0.02429340 </v>
   <v>      -0.00000000       0.00000000       0.00000000 </v>
   <v>      -0.05540333      -0.03917607       0.01283254 </v>
   <v>      -0.05540333      -0.03917607      -0.01283254 </v>
   <v>      -0.02399723       0.04965379      -0.04156442 </v>
   <v>      -0.01358907       0.00480446       0.00000000 </v>
   <v>      -0.02399723       0.04965379       0.04156442 </v>
   <v>      -0.03140610       0.02869835      -0.05439696 </v>
   <v>      -0.03140610       0.02869835       0.05439696 </v>
   <v>      -0.03718394       0.01314651       0.00000000 </v>
   <v>       0.03881497      -0.03917607      -0.04156442 </v>
   <v>      -0.00000000      -0.01441338       0.00000000 </v>
   <v>       0.03881497      -0.03917607       0.04156442 </v>
   <v>       0.00679453       0.00480446      -0.01176848 </v>
   <v>       0.00679453       0.00480446       0.01176848 </v>
   <v>       0.29333664       0.20742033       0.00000000 </v>
   <v>       0.06281220       0.02869835       0.00000000 </v>
   <v>       0.14666832      -0.20742033       0.25403698 </v>
   <v>       0.14666832      -0.20742033      -0.25403698 </v>
   <v>       0.01658836      -0.03917607      -0.05439696 </v>
   <v>       0.01658836      -0.03917607       0.05439696 </v>
   <v>       0.00000000      -0.03943952       0.00000000 </v>
   <v>       0.04799446       0.04965379       0.00000000 </v>
   <v>      -0.14666832       0.20742033       0.25403698 </v>
   <v>      -0.14666832       0.20742033      -0.25403698 </v>
   <v>       0.01859197       0.01314651      -0.03220224 </v>
   <v>      -0.29333664      -0.20742033       0.00000000 </v>
   <v>       0.01859197       0.01314651       0.03220224 </v>
  </varray>
  <varray name="stress" >
   <v>      -0.53530008       0.00000000      -0.00000000 </v>
   <v>       0.00000000      -0.53530009       0.00000000 </v>
   <v>      -0.00000000       0.00000000      -0.53530009 </v>
  </varray>
  <energy>
   <i name="e_fr_energy">   -289.65734397 </i>
   <i name="e_wo_entrp">   -289.65442765 </i>
   <i name="e_0_energy">     -0.00583265 </i>
  </energy>
  <time name="totalsc">   28.76   29.20</time>
 </calculation>
 <calculation>
  <scstep>
   <time name="dav">    3.25    3.28</time>
   <time name="total">    3.52    3.56</time>
   <energy>
    <i name="alphaZ">     87.47481167 </i>
    <i name="ewald">  -5975.94714497 </i>
    <i name="hartreedc">   -433.64498817 </i>
    <i name="XCdc">   -481.15324726 </i>
    <i name="pawpsdc">  22226.65046825 </i>
    <i name="pawaedc"> -21299.69906522 </i>
    <i name="eentropy">     -0.00699926 </i>
    <i name="bandstr">    124.08035271 </i>
    <i name="atom">   5462.52286525 </i>
    <i name="e_fr_energy">   -289.72294702 </i>
    <i name="e_wo_entrp">   -289.71594776 </i>
    <i name="e_0_energy">   -289.71944739 </i>
   </energy>
  </scstep>
  <scstep>
   <time name="dav">    4.13    4.17</time>
   <time name="total">    4.38    4.43</time>
   <energy>
    <i name="e_fr_energy">   -289.73259967 </i>
    <i name="e_wo_entrp">   -289.72539872 </i>
    <i name="e_0_energy">   -289.72899919 </i>
   </energy>
  </scstep>
  <scstep>
   <time name="dav">    3.99    4.03</time>
   <time name="total">    4.24    4.28</time>
   <energy>
    <i name="e_fr_energy">   -289.73144796 </i>
    <i name="e_wo_entrp">   -289.72420000 </i>
    <i name="e_0_energy">   -289.72782398 </i>
   </energy>
  </scstep>
  <scstep>
   <time name="dav">    3.74    3.77</time>
   <time name="total">    4.00    4.03</time>
   <energy>
    <i name="e_fr_energy">   -289.73090683 </i>
    <i name="e_wo_entrp">   -289.72372284 </i>
    <i name="e_0_energy">   -289.72731484 </i>
   </energy>
  </scstep>
  <scstep>
   <time name="dav">    3.98    4.02</time>
   <time name="total">    4.24    4.28</time>
   <energy>
    <i name="e_fr_energy">   -289.73098075 </i>
    <i name="e_wo_entrp">   -289.72388762 </i>
    <i name="e_0_energy">   -289.72743419 </i>
   </energy>
  </scstep>
  <scstep>
   <time name="dav">    3.80    3.84</time>
   <time name="total">    4.07    4.10</time>
   <energy>
    <i name="e_fr_energy">   -289.73099892 </i>
    <i name="e_wo_entrp">   -289.72390912 </i>
    <i name="e_0_energy">   -289.72745402 </i>
   </energy>
  </scstep>
  <scstep>
   <time name="dav">    3.56    3.59</time>
   <time name="total">    3.81    3.85</time>
   <energy>
    <i name="e_fr_energy">   -289.73098299 </i>
    <i name="e_wo_entrp">   -289.72386711 </i>
    <i name="e_0_energy">   -289.72742505 </i>
   </energy>
  </scstep>
  <scstep>
   <time name="dav">    3.34    3.37</time>
   <time name="total">    3.43    3.46</time>
   <energy>
    <i name="alphaZ">     87.47481167 </i>
    <i name="ewald">  -5975.94714497 </i>
    <i name="hartreedc">   -433.71762717 </i>
    <i name="XCdc">   -481.13420244 </i>
    <i name="pawpsdc">  22240.44341694 </i>
    <i name="pawaedc"> -21313.49793763 </i>
    <i name="eentropy">     -0.00712335 </i>
    <i name="bandstr">    124.13196153 </i>
    <i name="atom">   5462.52286525 </i>
    <i name="e_fr_energy">   -289.73098017 </i>
    <i name="e_wo_entrp">   -289.72385683 </i>
    <i name="e_0_energy">   -289.72741850 </i>
   </energy>
  </scstep>
  <structure>
   <crystal>
    <varray name="basis" >
     <v>       9.97646553       0.00000000       5.75991507 </v>
     <v>       3.32548851       9.40590192       5.75991507 </v>
     <v>       0.00000000       0.00000000      11.51983014 </v>
    </varray>
    <i name="volume">   1080.99386112 </i>
    <varray name="rec_basis" >
     <v>       0.10023590      -0.03543874       0.00000000 </v>
     <v>       0.00000000       0.10631623       0.00000000 </v>
     <v>      -0.05011795      -0.03543874       0.08680684 </v>
    </varray>
   </crystal>
   <varray name="positions" >
    <v>       0.29092935       0.29092935       0.62445889 </v>
    <v>       0.29092935       0.29092935       0.96034906 </v>
    <v>       0.29092935       0.62445889       0.29092935 </v>
    <v>       0.29134990       0.62510559       0.62510559 </v>
    <v>       0.29092935       0.62445889       0.96034906 </v>
    <v>       0.29092935       0.96034906       0.29092935 </v>
    <v>       0.29092935       0.96034906       0.62445889 </v>
    <v>       0.29151406       0.95838420       0.95838420 </v>
    <v>       0.62445889       0.29092935       0.29092935 </v>
    <v>       0.62510559       0.29134990       0.62510559 </v>
    <v>       0.62445889       0.29092935       0.96034906 </v>
    <v>       0.62510559       0.62510559       0.29134990 </v>
    <v>       0.62510559       0.62510559       0.62510559 </v>
    <v>       0.62493968       0.62493968       0.95839366 </v>
    <v>       0.62445889       0.96034906       0.29092935 </v>
    <v>       0.62493968       0.95839366       0.62493968 </v>
    <v>       0.62493968       0.95839366       0.95839366 </v>
    <v>       0.96034906       0.29092935       0.29092935 </v>
    <v>       0.96034906       0.29092935       0.62445889 </v>
    <v>       0.95838420       0.29151406       0.95838420 </v>
    <v>       0.96034906       0.62445889       0.29092935 </v>
    <v>       0.95839366       0.62493968       0.62493968 </v>
    <v>       0.95839366       0.62493968       0.95839366 </v>
    <v>       0.95838420       0.95838420       0.29151406 </v>
    <v>       0.95839366       0.95839366       0.62493968 </v>
    <v>       0.95838420       0.95838420       0.95838420 </v>
    <v>       0.04166667       0.04166667       0.04166667 </v>
    <v>       0.04146573       0.04146573       0.37525467 </v>
    <v>       0.04146573       0.04146573       0.70848053 </v>
    <v>       0.04146573       0.37525467       0.04146573 </v>
    <v>       0.04159274       0.37502464       0.37502464 </v>
    <v>       0.04146573       0.37525467       0.70848053 </v>
    <v>       0.04146573       0.70848053       0.04146573 </v>
    <v>       0.04146573       0.70848053       0.37525467 </v>
    <v>       0.04146438       0.70840076       0.70840076 </v>
    <v>       0.37525467       0.04146573       0.04146573 </v>
    <v>       0.37502464       0.04159274       0.37502464 </v>
    <v>       0.37525467       0.04146573       0.70848053 </v>
    <v>       0.37502464       0.37502464       0.04159274 </v>
    <v>       0.37502464       0.37502464       0.37502464 </v>
    <v>       0.37606385       0.37606385       0.70726948 </v>
    <v>       0.37525467       0.70848053       0.04146573 </v>
    <v>       0.37606385       0.70726948       0.37606385 </v>
    <v>       0.37606385       0.70726948       0.70726948 </v>
    <v>       0.70848053       0.04146573       0.04146573 </v>
    <v>       0.70848053       0.04146573       0.37525467 </v>
    <v>       0.70840076       0.04146438       0.70840076 </v>
    <v>       0.70848053       0.37525467       0.04146573 </v>
    <v>       0.70726948       0.37606385       0.37606385 </v>
    <v>       0.70726948       0.37606385       0.70726948 </v>
    <v>       0.70840076       0.70840076       0.04146438 </v>
    <v>       0.70726948       0.70726948       0.37606385 </v>
    <v>       0.70840076       0.70840076       0.70840076 </v>
   </varray>
  </structure>
  <varray name="forces" >
   <v>      -0.03628287      -0.02565587      -0.05558519 </v>
   <v>      -0.03628287      -0.02565587       0.05558519 </v>
   <v>      -0.03418750      -0.01972925      -0.05921449 </v>
   <v>      -0.06043539       0.02136714       0.00000000 </v>
   <v>      -0.03418750      -0.01972925       0.05921449 </v>
   <v>      -0.00209537       0.07104098      -0.00362929 </v>
   <v>      -0.00209537       0.07104098       0.00362929 </v>
   <v>      -0.02367516       0.00837043      -0.00000000 </v>
   <v>      -0.02999675      -0.02565587      -0.05921449 </v>
   <v>      -0.00000000      -0.06410141       0.00000000 </v>
   <v>      -0.02999675      -0.02565587       0.05921449 </v>
   <v>       0.03021769       0.02136714      -0.05233858 </v>
   <v>       0.03021769       0.02136714       0.05233858 </v>
   <v>       0.00476114       0.00336664      -0.00000000 </v>
   <v>       0.00419075       0.07104098      -0.00000000 </v>
   <v>       0.00238057      -0.00336664       0.00412327 </v>
   <v>       0.00238057      -0.00336664      -0.00412327 </v>
   <v>       0.06627962      -0.02565587      -0.00362929 </v>
   <v>       0.06627962      -0.02565587       0.00362929 </v>
   <v>      -0.00000000      -0.02511130      -0.00000000 </v>
   <v>       0.06837500      -0.01972925      -0.00000000 </v>
   <v>      -0.00238057       0.00336664       0.00412327 </v>
   <v>      -0.00238057       0.00336664      -0.00412327 </v>
   <v>       0.01183758       0.00837043      -0.02050329 </v>
   <v>      -0.00476114      -0.00336664      -0.00000000 </v>
   <v>       0.01183758       0.00837043       0.02050329 </v>
   <v>      -0.00000000       0.00000000      -0.00000000 </v>
   <v>      -0.04466867      -0.03158552      -0.00252720 </v>
   <v>      -0.04466867      -0.03158552       0.00252720 </v>
   <v>      -0.02306388       0.02952207      -0.03994780 </v>
   <v>       0.04617103      -0.01632393       0.00000000 </v>
   <v>      -0.02306388       0.02952207       0.03994780 </v>
   <v>      -0.02160480       0.03364897      -0.03742061 </v>
   <v>      -0.02160480       0.03364897       0.03742061 </v>
   <v>      -0.03708569       0.01311177      -0.00000000 </v>
   <v>       0.02014572      -0.03158552      -0.03994780 </v>
   <v>      -0.00000000       0.04897178       0.00000000 </v>
   <v>       0.02014572      -0.03158552       0.03994780 </v>
   <v>      -0.02308552      -0.01632393       0.03998529 </v>
   <v>      -0.02308552      -0.01632393      -0.03998529 </v>
   <v>      -0.01727203      -0.01221317      -0.00000000 </v>
   <v>       0.04320960       0.03364897       0.00000000 </v>
   <v>      -0.00863601       0.01221317      -0.01495801 </v>
   <v>      -0.00863601       0.01221317       0.01495801 </v>
   <v>       0.02452295      -0.03158552      -0.03742061 </v>
   <v>       0.02452295      -0.03158552       0.03742061 </v>
   <v>      -0.00000000      -0.03933531      -0.00000000 </v>
   <v>       0.04612775       0.02952207       0.00000000 </v>
   <v>       0.00863601      -0.01221317      -0.01495801 </v>
   <v>       0.00863601      -0.01221317       0.01495801 </v>
   <v>       0.01854284       0.01311177      -0.03211715 </v>
   <v>       0.01727203       0.01221317      -0.00000000 </v>
   <v>       0.01854284       0.01311177       0.03211715 </v>
  </varray>
  <varray name="stress" >
   <v>      -0.51707679       0.00000000       0.00000000 </v>
   <v>       0.00000000      -0.51707679       0.00000000 </v>
   <v>      -0.00000000       0.00000000      -0.51707679 </v>
  </varray>
  <energy>
   <i name="e_fr_energy">   -289.73098017 </i>
   <i name="e_wo_entrp">   -289.72741850 </i>
   <i name="e_0_energy">     -0.00712335 </i>
  </energy>
  <time name="totalsc">   40.13   40.52</time>
 </calculation>
 <calculation>
  <scstep>
   <time name="dav">    3.42    3.45</time>
   <time name="total">    3.67    3.71</time>
   <energy>
    <i name="alphaZ">     87.47481167 </i>
    <i name="ewald">  -5976.12897156 </i>
    <i name="hartreedc">   -433.51411307 </i>
    <i name="XCdc">   -481.13411030 </i>
    <i name="pawpsdc">  22240.34900473 </i>
    <i name="pawaedc"> -21313.40349379 </i>
    <i name="eentropy">     -0.00737826 </i>
    <i name="bandstr">    124.10925671 </i>
    <i name="atom">   5462.52286525 </i>
    <i name="e_fr_energy">   -289.73212864 </i>
    <i name="e_wo_entrp">   -289.72475038 </i>
    <i name="e_0_energy">   -289.72843951 </i>
   </energy>
  </scstep>
  <scstep>
   <time name="dav">    4.13    4.19</time>
   <time name="total">    4.38    4.45</time>
   <energy>
    <i name="e_fr_energy">   -289.73235645 </i>
    <i name="e_wo_entrp">   -289.72494398 </i>
    <i name="e_0_energy">   -289.72865022 </i>
   </energy>
  </scstep>
  <scstep>
   <time name="dav">    3.76    3.80</time>
   <time name="total">    4.01    4.06</time>
   <energy>
    <i name="e_fr_energy">   -289.73233177 </i>
    <i name="e_wo_entrp">   -289.72490953 </i>
    <i name="e_0_energy">   -289.72862065 </i>
   </energy>
  </scstep>
  <scstep>
   <time name="dav">    3.57    3.61</time>
   <time name="total">    3.67    3.70</time>
   <energy>
    <i name="alphaZ">     87.47481167 </i>
    <i name="ewald">  -5976.12897156 </i>
    <i name="hartreedc">   -433.51185926 </i>
    <i name="XCdc">   -481.13209298 </i>
    <i name="pawpsdc">  22242.15672671 </i>
    <i name="pawaedc"> -21315.21221127 </i>
    <i name="eentropy">     -0.00741521 </i>
    <i name="bandstr">    124.10582410 </i>
    <i name="atom">   5462.52286525 </i>
    <i name="e_fr_energy">   -289.73232256 </i>
    <i name="e_wo_entrp">   -289.72490735 </i>
    <i name="e_0_energy">   -289.72861496 </i>
   </energy>
  </scstep>
  <structure>
   <crystal>
    <varray name="basis" >
     <v>       9.97646553       0.00000000       5.75991507 </v>
     <v>       3.32548851       9.40590192       5.75991507 </v>
     <v>       0.00000000       0.00000000      11.51983014 </v>
    </varray>
    <i name="volume">   1080.99386112 </i>
    <varray name="rec_basis" >
     <v>       0.10023590      -0.03543874       0.00000000 </v>
     <v>       0.00000000       0.10631623       0.00000000 </v>
     <v>      -0.05011795      -0.03543874       0.08680684 </v>
    </varray>
   </crystal>
   <varray name="positions" >
    <v>       0.29081387       0.29081387       0.62437414 </v>
    <v>       0.29081387       0.29081387       0.96066478 </v>
    <v>       0.29081387       0.62437414       0.29081387 </v>
    <v>       0.29130029       0.62512213       0.62512213 </v>
    <v>       0.29081387       0.62437414       0.96066478 </v>
    <v>       0.29081387       0.96066478       0.29081387 </v>
    <v>       0.29081387       0.96066478       0.62437414 </v>
    <v>       0.29149016       0.95839217       0.95839217 </v>
    <v>       0.62437414       0.29081387       0.29081387 </v>
    <v>       0.62512213       0.29130029       0.62512213 </v>
    <v>       0.62437414       0.29081387       0.96066478 </v>
    <v>       0.62512213       0.62512213       0.29130029 </v>
    <v>       0.62512213       0.62512213       0.62512213 </v>
    <v>       0.62493023       0.62493023       0.95840310 </v>
    <v>       0.62437414       0.96066478       0.29081387 </v>
    <v>       0.62493023       0.95840310       0.62493023 </v>
    <v>       0.62493023       0.95840310       0.95840310 </v>
    <v>       0.96066478       0.29081387       0.29081387 </v>
    <v>       0.96066478       0.29081387       0.62437414 </v>
    <v>       0.95839217       0.29149016       0.95839217 </v>
    <v>       0.96066478       0.62437414       0.29081387 </v>
    <v>       0.95840310       0.62493023       0.62493023 </v>
    <v>       0.95840310       0.62493023       0.95840310 </v>
    <v>       0.95839217       0.95839217       0.29149016 </v>
    <v>       0.95840310       0.95840310       0.62493023 </v>
    <v>       0.95839217       0.95839217       0.95839217 </v>
    <v>       0.04166667       0.04166667       0.04166667 </v>
    <v>       0.04143426       0.04143426       0.37529456 </v>
    <v>       0.04143426       0.04143426       0.70850358 </v>
    <v>       0.04143426       0.37529456       0.04143426 </v>
    <v>       0.04158116       0.37502850       0.37502850 </v>
    <v>       0.04143426       0.37529456       0.70850358 </v>
    <v>       0.04143426       0.70850358       0.04143426 </v>
    <v>       0.04143426       0.70850358       0.37529456 </v>
    <v>       0.04143270       0.70841132       0.70841132 </v>
    <v>       0.37529456       0.04143426       0.04143426 </v>
    <v>       0.37502850       0.04158116       0.37502850 </v>
    <v>       0.37529456       0.04143426       0.70850358 </v>
    <v>       0.37502850       0.37502850       0.04158116 </v>
    <v>       0.37502850       0.37502850       0.37502850 </v>
    <v>       0.37623048       0.37623048       0.70710285 </v>
    <v>       0.37529456       0.70850358       0.04143426 </v>
    <v>       0.37623048       0.70710285       0.37623048 </v>
    <v>       0.37623048       0.70710285       0.70710285 </v>
    <v>       0.70850358       0.04143426       0.04143426 </v>
    <v>       0.70850358       0.04143426       0.37529456 </v>
    <v>       0.70841132       0.04143270       0.70841132 </v>
    <v>       0.70850358       0.37529456       0.04143426 </v>
    <v>       0.70710285       0.37623048       0.37623048 </v>
    <v>       0.70710285       0.37623048       0.70710285 </v>
    <v>       0.70841132       0.70841132       0.04143270 </v>
    <v>       0.70710285       0.70710285       0.37623048 </v>
    <v>       0.70841132       0.70841132       0.70841132 </v>
   </varray>
  </structure>
  <varray name="forces" >
   <v>      -0.01089350      -0.00770287      -0.01835746 </v>
   <v>      -0.01089350      -0.00770287       0.01835746 </v>
   <v>      -0.01074609      -0.00728594      -0.01861278 </v>
   <v>      -0.06155161       0.02176178       0.00000000 </v>
   <v>      -0.01074609      -0.00728594       0.01861278 </v>
   <v>      -0.00014741       0.02269167      -0.00025532 </v>
   <v>      -0.00014741       0.02269167       0.00025532 </v>
   <v>      -0.02301527       0.00813713      -0.00000000 </v>
   <v>      -0.01045128      -0.00770287      -0.01861278 </v>
   <v>       0.00000000      -0.06528534       0.00000000 </v>
   <v>      -0.01045128      -0.00770287       0.01861278 </v>
   <v>       0.03077580       0.02176178      -0.05330526 </v>
   <v>       0.03077580       0.02176178       0.05330526 </v>
   <v>       0.00820314       0.00580050       0.00000000 </v>
   <v>       0.00029481       0.02269167       0.00000000 </v>
   <v>       0.00410157      -0.00580050       0.00710413 </v>
   <v>       0.00410157      -0.00580050      -0.00710413 </v>
   <v>       0.02134478      -0.00770287      -0.00025532 </v>
   <v>       0.02134478      -0.00770287       0.00025532 </v>
   <v>      -0.00000000      -0.02441138      -0.00000000 </v>
   <v>       0.02149218      -0.00728594      -0.00000000 </v>
   <v>      -0.00410157       0.00580050       0.00710413 </v>
   <v>      -0.00410157       0.00580050      -0.00710413 </v>
   <v>       0.01150763       0.00813713      -0.01993180 </v>
   <v>      -0.00820314      -0.00580050       0.00000000 </v>
   <v>       0.01150763       0.00813713       0.01993180 </v>
   <v>      -0.00000000       0.00000000       0.00000000 </v>
   <v>      -0.04325380      -0.03058505      -0.00513485 </v>
   <v>      -0.04325380      -0.03058505       0.00513485 </v>
   <v>      -0.02310920       0.02639246      -0.04002631 </v>
   <v>       0.05529038      -0.01954810      -0.00000000 </v>
   <v>      -0.02310920       0.02639246       0.04002631 </v>
   <v>      -0.02014459       0.03477764      -0.03489146 </v>
   <v>      -0.02014459       0.03477764       0.03489146 </v>
   <v>      -0.03729938       0.01318732       0.00000000 </v>
   <v>       0.01717999      -0.03058505      -0.04002631 </v>
   <v>      -0.00000000       0.05864431      -0.00000000 </v>
   <v>       0.01717999      -0.03058505       0.04002631 </v>
   <v>      -0.02764519      -0.01954810       0.04788288 </v>
   <v>      -0.02764519      -0.01954810      -0.04788288 </v>
   <v>      -0.06491300      -0.04590043       0.00000000 </v>
   <v>       0.04028919       0.03477764       0.00000000 </v>
   <v>      -0.03245650       0.04590043      -0.05621631 </v>
   <v>      -0.03245650       0.04590043       0.05621631 </v>
   <v>       0.02607381      -0.03058505      -0.03489146 </v>
   <v>       0.02607381      -0.03058505       0.03489146 </v>
   <v>       0.00000000      -0.03956197       0.00000000 </v>
   <v>       0.04621840       0.02639246       0.00000000 </v>
   <v>       0.03245650      -0.04590043      -0.05621631 </v>
   <v>       0.03245650      -0.04590043       0.05621631 </v>
   <v>       0.01864969       0.01318732      -0.03230221 </v>
   <v>       0.06491300       0.04590043      -0.00000000 </v>
   <v>       0.01864969       0.01318732       0.03230221 </v>
  </varray>
  <varray name="stress" >
   <v>      -0.48175929       0.00000000       0.00000000 </v>
   <v>       0.00000000      -0.48175929       0.00000000 </v>
   <v>      -0.00000000       0.00000000      -0.48175929 </v>
  </varray>
  <energy>
   <i name="e_fr_energy">   -289.73232256 </i>
   <i name="e_wo_entrp">   -289.72861496 </i>
   <i name="e_0_energy">     -0.00741521 </i>
  </energy>
  <time name="totalsc">   23.82   24.08</time>
 </calculation>
 <calculation>
  <scstep>
   <time name="dav">    3.46    3.49</time>
   <time name="total">    3.72    3.76</time>
   <energy>
    <i name="alphaZ">     87.47481167 </i>
    <i name="ewald">  -5976.57594951 </i>
    <i name="hartreedc">   -433.18840827 </i>
    <i name="XCdc">   -481.14190538 </i>
    <i name="pawpsdc">  22242.49716966 </i>
    <i name="pawaedc"> -21315.55293308 </i>
    <i name="eentropy">     -0.00740966 </i>
    <i name="bandstr">    124.23538541 </i>
    <i name="atom">   5462.52286525 </i>
    <i name="e_fr_energy">   -289.73637392 </i>
    <i name="e_wo_entrp">   -289.72896425 </i>
    <i name="e_0_energy">   -289.73266908 </i>
   </energy>
  </scstep>
  <scstep>
   <time name="dav">    4.26    4.30</time>
   <time name="total">    4.52    4.56</time>
   <energy>
    <i name="e_fr_energy">   -289.73675008 </i>
    <i name="e_wo_entrp">   -289.72933408 </i>
    <i name="e_0_energy">   -289.73304208 </i>
   </energy>
  </scstep>
  <scstep>
   <time name="dav">    4.10    4.16</time>
   <time name="total">    4.36    4.42</time>
   <energy>
    <i name="e_fr_energy">   -289.73671604 </i>
    <i name="e_wo_entrp">   -289.72929600 </i>
    <i name="e_0_energy">   -289.73300602 </i>
   </energy>
  </scstep>
  <scstep>
   <time name="dav">    3.85    3.89</time>
   <time name="total">    4.11    4.15</time>
   <energy>
    <i name="e_fr_energy">   -289.73668678 </i>
    <i name="e_wo_entrp">   -289.72925228 </i>
    <i name="e_0_energy">   -289.73296953 </i>
   </energy>
  </scstep>
  <scstep>
   <time name="dav">    3.66    3.70</time>
   <time name="total">    3.76    3.80</time>
   <energy>
    <i name="alphaZ">     87.47481167 </i>
    <i name="ewald">  -5976.57594951 </i>
    <i name="hartreedc">   -433.15706230 </i>
    <i name="XCdc">   -481.14552610 </i>
    <i name="pawpsdc">  22236.43275127 </i>
    <i name="pawaedc"> -21309.48506721 </i>
    <i name="eentropy">     -0.00744152 </i>
    <i name="bandstr">    124.20393211 </i>
    <i name="atom">   5462.52286525 </i>
    <i name="e_fr_energy">   -289.73668634 </i>
    <i name="e_wo_entrp">   -289.72924482 </i>
    <i name="e_0_energy">   -289.73296558 </i>
   </energy>
  </scstep>
  <structure>
   <crystal>
    <varray name="basis" >
     <v>       9.97646553       0.00000000       5.75991507 </v>
     <v>       3.32548851       9.40590192       5.75991507 </v>
     <v>       0.00000000       0.00000000      11.51983014 </v>
    </varray>
    <i name="volume">   1080.99386112 </i>
    <varray name="rec_basis" >
     <v>       0.10023590      -0.03543874       0.00000000 </v>
     <v>       0.00000000       0.10631623       0.00000000 </v>
     <v>      -0.05011795      -0.03543874       0.08680684 </v>
    </varray>
   </crystal>
   <varray name="positions" >
    <v>       0.29073977       0.29073977       0.62431113 </v>
    <v>       0.29073977       0.29073977       0.96087599 </v>
    <v>       0.29073977       0.62431113       0.29073977 </v>
    <v>       0.29094063       0.62524201       0.62524201 </v>
    <v>       0.29073977       0.62431113       0.96087599 </v>
    <v>       0.29073977       0.96087599       0.29073977 </v>
    <v>       0.29073977       0.96087599       0.62431113 </v>
    <v>       0.29135413       0.95843751       0.95843751 </v>
    <v>       0.62431113       0.29073977       0.29073977 </v>
    <v>       0.62524201       0.29094063       0.62524201 </v>
    <v>       0.62431113       0.29073977       0.96087599 </v>
    <v>       0.62524201       0.62524201       0.29094063 </v>
    <v>       0.62524201       0.62524201       0.62524201 </v>
    <v>       0.62495818       0.62495818       0.95837515 </v>
    <v>       0.62431113       0.96087599       0.29073977 </v>
    <v>       0.62495818       0.95837515       0.62495818 </v>
    <v>       0.62495818       0.95837515       0.95837515 </v>
    <v>       0.96087599       0.29073977       0.29073977 </v>
    <v>       0.96087599       0.29073977       0.62431113 </v>
    <v>       0.95843751       0.29135413       0.95843751 </v>
    <v>       0.96087599       0.62431113       0.29073977 </v>
    <v>       0.95837515       0.62495818       0.62495818 </v>
    <v>       0.95837515       0.62495818       0.95837515 </v>
    <v>       0.95843751       0.95843751       0.29135413 </v>
    <v>       0.95837515       0.95837515       0.62495818 </v>
    <v>       0.95843751       0.95843751       0.95843751 </v>
    <v>       0.04166667       0.04166667       0.04166667 </v>
    <v>       0.04126339       0.04126339       0.37544569 </v>
    <v>       0.04126339       0.04126339       0.70869420 </v>
    <v>       0.04126339       0.37544569       0.04126339 </v>
    <v>       0.04188803       0.37492621       0.37492621 </v>
    <v>       0.04126339       0.37544569       0.70869420 </v>
    <v>       0.04126339       0.70869420       0.04126339 </v>
    <v>       0.04126339       0.70869420       0.37544569 </v>
    <v>       0.04121428       0.70848413       0.70848413 </v>
    <v>       0.37544569       0.04126339       0.04126339 </v>
    <v>       0.37492621       0.04188803       0.37492621 </v>
    <v>       0.37544569       0.04126339       0.70869420 </v>
    <v>       0.37492621       0.37492621       0.04188803 </v>
    <v>       0.37492621       0.37492621       0.37492621 </v>
    <v>       0.37603581       0.37603581       0.70729752 </v>
    <v>       0.37544569       0.70869420       0.04126339 </v>
    <v>       0.37603581       0.70729752       0.37603581 </v>
    <v>       0.37603581       0.70729752       0.70729752 </v>
    <v>       0.70869420       0.04126339       0.04126339 </v>
    <v>       0.70869420       0.04126339       0.37544569 </v>
    <v>       0.70848413       0.04121428       0.70848413 </v>
    <v>       0.70869420       0.37544569       0.04126339 </v>
    <v>       0.70729752       0.37603581       0.37603581 </v>
    <v>       0.70729752       0.37603581       0.70729752 </v>
    <v>       0.70848413       0.70848413       0.04121428 </v>
    <v>       0.70729752       0.70729752       0.37603581 </v>
    <v>       0.70848413       0.70848413       0.70848413 </v>
   </varray>
  </structure>
  <varray name="forces" >
   <v>      -0.01298144      -0.00917926      -0.00746854 </v>
   <v>      -0.01298144      -0.00917926       0.00746854 </v>
   <v>      -0.00864670       0.00308123      -0.01497652 </v>
   <v>      -0.01678258       0.00593354       0.00000000 </v>
   <v>      -0.00864670       0.00308123       0.01497652 </v>
   <v>      -0.00433474       0.01527730      -0.00750798 </v>
   <v>      -0.00433474       0.01527730       0.00750798 </v>
   <v>      -0.01187718       0.00419922       0.00000000 </v>
   <v>       0.00002277      -0.00917926      -0.01497652 </v>
   <v>       0.00000000      -0.01780062       0.00000000 </v>
   <v>       0.00002277      -0.00917926       0.01497652 </v>
   <v>       0.00839129       0.00593354      -0.01453414 </v>
   <v>       0.00839129       0.00593354       0.01453414 </v>
   <v>       0.01536687       0.01086602       0.00000000 </v>
   <v>       0.00866947       0.01527730       0.00000000 </v>
   <v>       0.00768344      -0.01086602       0.01330810 </v>
   <v>       0.00768344      -0.01086602      -0.01330810 </v>
   <v>       0.01295866      -0.00917926      -0.00750798 </v>
   <v>       0.01295866      -0.00917926       0.00750798 </v>
   <v>       0.00000000      -0.01259765       0.00000000 </v>
   <v>       0.01729340       0.00308123       0.00000000 </v>
   <v>      -0.00768344       0.01086602       0.01330810 </v>
   <v>      -0.00768344       0.01086602      -0.01330810 </v>
   <v>       0.00593859       0.00419922      -0.01028594 </v>
   <v>      -0.01536687      -0.01086602       0.00000000 </v>
   <v>       0.00593859       0.00419922       0.01028594 </v>
   <v>      -0.00000000      -0.00000000       0.00000000 </v>
   <v>      -0.01148004      -0.00811762      -0.00527320 </v>
   <v>      -0.01148004      -0.00811762       0.00527320 </v>
   <v>      -0.00726226       0.00381206      -0.01257861 </v>
   <v>       0.05157052      -0.01823293       0.00000000 </v>
   <v>      -0.00726226       0.00381206       0.01257861 </v>
   <v>      -0.00421778       0.01242317      -0.00730541 </v>
   <v>      -0.00421778       0.01242317       0.00730541 </v>
   <v>      -0.02901573       0.01025861       0.00000000 </v>
   <v>       0.00117329      -0.00811762      -0.01257861 </v>
   <v>      -0.00000000       0.05469880       0.00000000 </v>
   <v>       0.00117329      -0.00811762       0.01257861 </v>
   <v>      -0.02578526      -0.01823293       0.04466138 </v>
   <v>      -0.02578526      -0.01823293      -0.04466138 </v>
   <v>      -0.03310719      -0.02341032       0.00000000 </v>
   <v>       0.00843556       0.01242317       0.00000000 </v>
   <v>      -0.01655359       0.02341032      -0.02867167 </v>
   <v>      -0.01655359       0.02341032       0.02867167 </v>
   <v>       0.01030675      -0.00811762      -0.00730541 </v>
   <v>       0.01030675      -0.00811762       0.00730541 </v>
   <v>       0.00000000      -0.03077583       0.00000000 </v>
   <v>       0.01452453       0.00381206       0.00000000 </v>
   <v>       0.01655359      -0.02341032      -0.02867167 </v>
   <v>       0.01655359      -0.02341032       0.02867167 </v>
   <v>       0.01450786       0.01025861      -0.02512836 </v>
   <v>       0.03310719       0.02341032       0.00000000 </v>
   <v>       0.01450786       0.01025861       0.02512836 </v>
  </varray>
  <varray name="stress" >
   <v>      -0.62373019       0.00000000      -0.00000000 </v>
   <v>       0.00000000      -0.62373019       0.00000000 </v>
   <v>      -0.00000000       0.00000000      -0.62373019 </v>
  </varray>
  <energy>
   <i name="e_fr_energy">   -289.73668634 </i>
   <i name="e_wo_entrp">   -289.73296558 </i>
   <i name="e_0_energy">     -0.00744152 </i>
  </energy>
  <time name="totalsc">   28.58   28.88</time>
 </calculation>
 <calculation>
  <scstep>
   <time name="dav">    3.58    3.62</time>
   <time name="total">    3.84    3.88</time>
   <energy>
    <i name="alphaZ">     87.47481167 </i>
    <i name="ewald">  -5976.98041100 </i>
    <i name="hartreedc">   -432.85951171 </i>
    <i name="XCdc">   -481.15567019 </i>
    <i name="pawpsdc">  22235.74836237 </i>
    <i name="pawaedc"> -21308.80047052 </i>
    <i name="eentropy">     -0.00744911 </i>
    <i name="bandstr">    124.31971182 </i>
    <i name="atom">   5462.52286525 </i>
    <i name="e_fr_energy">   -289.73776142 </i>
    <i name="e_wo_entrp">   -289.73031231 </i>
    <i name="e_0_energy">   -289.73403686 </i>
   </energy>
  </scstep>
  <scstep>
   <time name="dav">    4.15    4.19</time>
   <time name="total">    4.41    4.45</time>
   <energy>
    <i name="e_fr_energy">   -289.73812202 </i>
    <i name="e_wo_entrp">   -289.73066901 </i>
    <i name="e_0_energy">   -289.73439552 </i>
   </energy>
  </scstep>
  <scstep>
   <time name="dav">    4.07    4.12</time>
   <time name="total">    4.33    4.38</time>
   <energy>
    <i name="e_fr_energy">   -289.73809689 </i>
    <i name="e_wo_entrp">   -289.73064231 </i>
    <i name="e_0_energy">   -289.73436960 </i>
   </energy>
  </scstep>
  <scstep>
   <time name="dav">    3.74    3.79</time>
   <time name="total">    4.00    4.04</time>
   <energy>
    <i name="e_fr_energy">   -289.73807617 </i>
    <i name="e_wo_entrp">   -289.73061209 </i>
    <i name="e_0_energy">   -289.73434413 </i>
   </energy>
  </scstep>
  <scstep>
   <time name="dav">    3.53    3.56</time>
   <time name="total">    3.63    3.66</time>
   <energy>
    <i name="alphaZ">     87.47481167 </i>
    <i name="ewald">  -5976.98041100 </i>
    <i name="hartreedc">   -432.83093138 </i>
    <i name="XCdc">   -481.15929732 </i>
    <i name="pawpsdc">  22229.45850855 </i>
    <i name="pawaedc"> -21302.50730608 </i>
    <i name="eentropy">     -0.00747045 </i>
    <i name="bandstr">    124.29115512 </i>
    <i name="atom">   5462.52286525 </i>
    <i name="e_fr_energy">   -289.73807565 </i>
    <i name="e_wo_entrp">   -289.73060520 </i>
    <i name="e_0_energy">   -289.73434042 </i>
   </energy>
  </scstep>
  <structure>
   <crystal>
    <varray name="basis" >
     <v>       9.97646553       0.00000000       5.75991507 </v>
     <v>       3.32548851       9.40590192       5.75991507 </v>
     <v>       0.00000000       0.00000000      11.51983014 </v>
    </varray>
    <i name="volume">   1080.99386112 </i>
    <varray name="rec_basis" >
     <v>       0.10023590      -0.03543874       0.00000000 </v>
     <v>       0.00000000       0.10631623       0.00000000 </v>
     <v>      -0.05011795      -0.03543874       0.08680684 </v>
    </varray>
   </crystal>
   <varray name="positions" >
    <v>       0.29066908       0.29066908       0.62425101 </v>
    <v>       0.29066908       0.29066908       0.96107750 </v>
    <v>       0.29066908       0.62425101       0.29066908 </v>
    <v>       0.29059750       0.62535639       0.62535639 </v>
    <v>       0.29066908       0.62425101       0.96107750 </v>
    <v>       0.29066908       0.96107750       0.29066908 </v>
    <v>       0.29066908       0.96107750       0.62425101 </v>
    <v>       0.29122435       0.95848077       0.95848077 </v>
    <v>       0.62425101       0.29066908       0.29066908 </v>
    <v>       0.62535639       0.29059750       0.62535639 </v>
    <v>       0.62425101       0.29066908       0.96107750 </v>
    <v>       0.62535639       0.62535639       0.29059750 </v>
    <v>       0.62535639       0.62535639       0.62535639 </v>
    <v>       0.62498485       0.62498485       0.95834848 </v>
    <v>       0.62425101       0.96107750       0.29066908 </v>
    <v>       0.62498485       0.95834848       0.62498485 </v>
    <v>       0.62498485       0.95834848       0.95834848 </v>
    <v>       0.96107750       0.29066908       0.29066908 </v>
    <v>       0.96107750       0.29066908       0.62425101 </v>
    <v>       0.95848077       0.29122435       0.95848077 </v>
    <v>       0.96107750       0.62425101       0.29066908 </v>
    <v>       0.95834848       0.62498485       0.62498485 </v>
    <v>       0.95834848       0.62498485       0.95834848 </v>
    <v>       0.95848077       0.95848077       0.29122435 </v>
    <v>       0.95834848       0.95834848       0.62498485 </v>
    <v>       0.95848077       0.95848077       0.95848077 </v>
    <v>       0.04166667       0.04166667       0.04166667 </v>
    <v>       0.04110037       0.04110037       0.37558987 </v>
    <v>       0.04110037       0.04110037       0.70887606 </v>
    <v>       0.04110037       0.37558987       0.04110037 </v>
    <v>       0.04218078       0.37482863       0.37482863 </v>
    <v>       0.04110037       0.37558987       0.70887606 </v>
    <v>       0.04110037       0.70887606       0.04110037 </v>
    <v>       0.04110037       0.70887606       0.37558987 </v>
    <v>       0.04100590       0.70855359       0.70855359 </v>
    <v>       0.37558987       0.04110037       0.04110037 </v>
    <v>       0.37482863       0.04218078       0.37482863 </v>
    <v>       0.37558987       0.04110037       0.70887606 </v>
    <v>       0.37482863       0.37482863       0.04218078 </v>
    <v>       0.37482863       0.37482863       0.37482863 </v>
    <v>       0.37585009       0.37585009       0.70748325 </v>
    <v>       0.37558987       0.70887606       0.04110037 </v>
    <v>       0.37585009       0.70748325       0.37585009 </v>
    <v>       0.37585009       0.70748325       0.70748325 </v>
    <v>       0.70887606       0.04110037       0.04110037 </v>
    <v>       0.70887606       0.04110037       0.37558987 </v>
    <v>       0.70855359       0.04100590       0.70855359 </v>
    <v>       0.70887606       0.37558987       0.04110037 </v>
    <v>       0.70748325       0.37585009       0.37585009 </v>
    <v>       0.70748325       0.37585009       0.70748325 </v>
    <v>       0.70855359       0.70855359       0.04100590 </v>
    <v>       0.70748325       0.70748325       0.37585009 </v>
    <v>       0.70855359       0.70855359       0.70855359 </v>
   </varray>
  </structure>
  <varray name="forces" >
   <v>      -0.01489158      -0.01052993       0.00344059 </v>
   <v>      -0.01489158      -0.01052993      -0.00344059 </v>
   <v>      -0.00645258       0.01333917      -0.01117619 </v>
   <v>       0.02500389      -0.00884021       0.00000000 </v>
   <v>      -0.00645258       0.01333917       0.01117619 </v>
   <v>      -0.00843900       0.00772070      -0.01461678 </v>
   <v>      -0.00843900       0.00772070       0.01461678 </v>
   <v>      -0.00097494       0.00034469       0.00000000 </v>
   <v>       0.01042543      -0.01052993      -0.01117619 </v>
   <v>      -0.00000000       0.02652063       0.00000000 </v>
   <v>       0.01042543      -0.01052993       0.01117619 </v>
   <v>      -0.01250194      -0.00884021       0.02165400 </v>
   <v>      -0.01250194      -0.00884021      -0.02165400 </v>
   <v>       0.02258599       0.01597071       0.00000000 </v>
   <v>       0.01687800       0.00772070       0.00000000 </v>
   <v>       0.01129299      -0.01597071       0.01956004 </v>
   <v>       0.01129299      -0.01597071      -0.01956004 </v>
   <v>       0.00446615      -0.01052993      -0.01461678 </v>
   <v>       0.00446615      -0.01052993       0.01461678 </v>
   <v>       0.00000000      -0.00103408       0.00000000 </v>
   <v>       0.01290515       0.01333917      -0.00000000 </v>
   <v>      -0.01129299       0.01597071       0.01956004 </v>
   <v>      -0.01129299       0.01597071      -0.01956004 </v>
   <v>       0.00048747       0.00034469      -0.00084432 </v>
   <v>      -0.02258599      -0.01597071      -0.00000000 </v>
   <v>       0.00048747       0.00034469       0.00084432 </v>
   <v>       0.00000000       0.00000000      -0.00000000 </v>
   <v>       0.01870756       0.01322824      -0.00561389 </v>
   <v>       0.01870756       0.01322824       0.00561389 </v>
   <v>       0.00773319      -0.01781196       0.01339428 </v>
   <v>       0.04786474      -0.01692274       0.00000000 </v>
   <v>       0.00773319      -0.01781196      -0.01339428 </v>
   <v>       0.01097437      -0.00864452       0.01900816 </v>
   <v>       0.01097437      -0.00864452      -0.01900816 </v>
   <v>      -0.02142163       0.00757369      -0.00000000 </v>
   <v>      -0.01421555       0.01322824       0.01339428 </v>
   <v>      -0.00000000       0.05076822       0.00000000 </v>
   <v>      -0.01421555       0.01322824      -0.01339428 </v>
   <v>      -0.02393237      -0.01692274       0.04145208 </v>
   <v>      -0.02393237      -0.01692274      -0.04145208 </v>
   <v>      -0.00375858      -0.00265772       0.00000000 </v>
   <v>      -0.02194874      -0.00864452       0.00000000 </v>
   <v>      -0.00187929       0.00265772      -0.00325503 </v>
   <v>      -0.00187929       0.00265772       0.00325503 </v>
   <v>      -0.00449201       0.01322824       0.01900816 </v>
   <v>      -0.00449201       0.01322824      -0.01900816 </v>
   <v>       0.00000000      -0.02272107      -0.00000000 </v>
   <v>      -0.01546638      -0.01781196       0.00000000 </v>
   <v>       0.00187929      -0.00265772      -0.00325503 </v>
   <v>       0.00187929      -0.00265772       0.00325503 </v>
   <v>       0.01071081       0.00757369      -0.01855168 </v>
   <v>       0.00375858       0.00265772       0.00000000 </v>
   <v>       0.01071081       0.00757369       0.01855168 </v>
  </varray>
  <varray name="stress" >
   <v>      -0.75202284       0.00000000       0.00000000 </v>
   <v>       0.00000000      -0.75202284       0.00000000 </v>
   <v>       0.00000000       0.00000000      -0.75202284 </v>
  </varray>
  <energy>
   <i name="e_fr_energy">   -289.73807565 </i>
   <i name="e_wo_entrp">   -289.73434042 </i>
   <i name="e_0_energy">     -0.00747045 </i>
  </energy>
  <time name="totalsc">   31.31   31.63</time>
 </calculation>
 <calculation>
  <scstep>
   <time name="dav">    3.56    3.59</time>
   <time name="total">    3.82    3.86</time>
   <energy>
    <i name="alphaZ">     87.47481167 </i>
    <i name="ewald">  -5977.55894986 </i>
    <i name="hartreedc">   -432.37882530 </i>
    <i name="XCdc">   -481.17154551 </i>
    <i name="pawpsdc">  22228.76572703 </i>
    <i name="pawaedc"> -21301.81431814 </i>
    <i name="eentropy">     -0.00746173 </i>
    <i name="bandstr">    124.42870620 </i>
    <i name="atom">   5462.52286525 </i>
    <i name="e_fr_energy">   -289.73899041 </i>
    <i name="e_wo_entrp">   -289.73152868 </i>
    <i name="e_0_energy">   -289.73525954 </i>
   </energy>
  </scstep>
  <scstep>
   <time name="dav">    3.99    4.03</time>
   <time name="total">    4.24    4.29</time>
   <energy>
    <i name="e_fr_energy">   -289.73921160 </i>
    <i name="e_wo_entrp">   -289.73177319 </i>
    <i name="e_0_energy">   -289.73549239 </i>
   </energy>
  </scstep>
  <scstep>
   <time name="dav">    3.90    3.94</time>
   <time name="total">    4.16    4.20</time>
   <energy>
    <i name="e_fr_energy">   -289.73918246 </i>
    <i name="e_wo_entrp">   -289.73175407 </i>
    <i name="e_0_energy">   -289.73546826 </i>
   </energy>
  </scstep>
  <scstep>
   <time name="dav">    3.71    3.75</time>
   <time name="total">    3.97    4.01</time>
   <energy>
    <i name="e_fr_energy">   -289.73916505 </i>
    <i name="e_wo_entrp">   -289.73174342 </i>
    <i name="e_0_energy">   -289.73545424 </i>
   </energy>
  </scstep>
  <scstep>
   <time name="dav">    3.28    3.31</time>
   <time name="total">    3.37    3.41</time>
   <energy>
[...]
        <r>  0.0004  0.0014  0.0000 </r>
        <r>  0.0024  0.0029  0.0000 </r>
        <r>  0.0003  0.0032  0.0000 </r>
        <r>  0.0004  0.0014  0.0000 </r>
        <r>  0.0009  0.0122  0.0000 </r>
        <r>  0.0000  0.0030  0.0000 </r>
        <r>  0.0003  0.0032  0.0000 </r>
        <r>  0.0009  0.0122  0.0000 </r>
        <r>  0.0003  0.0032  0.0000 </r>
       </set>
       <set comment="band 138">
        <r>  0.0001  0.0032  0.0000 </r>
        <r>  0.0001  0.0032  0.0000 </r>
        <r>  0.0013  0.0023  0.0000 </r>
        <r>  0.0023  0.0033  0.0000 </r>
        <r>  0.0001  0.0032  0.0000 </r>
        <r>  0.0013  0.0023  0.0000 </r>
        <r>  0.0001  0.0032  0.0000 </r>
        <r>  0.0028  0.0013  0.0000 </r>
        <r>  0.0001  0.0032  0.0000 </r>
        <r>  0.0023  0.0033  0.0000 </r>
        <r>  0.0013  0.0023  0.0000 </r>
        <r>  0.0023  0.0033  0.0000 </r>
        <r>  0.0023  0.0033  0.0000 </r>
        <r>  0.0001  0.0033  0.0000 </r>
        <r>  0.0001  0.0032  0.0000 </r>
        <r>  0.0000  0.0012  0.0000 </r>
        <r>  0.0001  0.0033  0.0000 </r>
        <r>  0.0001  0.0032  0.0000 </r>
        <r>  0.0013  0.0023  0.0000 </r>
        <r>  0.0028  0.0013  0.0000 </r>
        <r>  0.0001  0.0032  0.0000 </r>
        <r>  0.0001  0.0033  0.0000 </r>
        <r>  0.0000  0.0012  0.0000 </r>
        <r>  0.0028  0.0013  0.0000 </r>
        <r>  0.0001  0.0033  0.0000 </r>
        <r>  0.0028  0.0013  0.0000 </r>
        <r>  0.0001  0.0000  0.0000 </r>
        <r>  0.0002  0.0064  0.0000 </r>
        <r>  0.0002  0.0064  0.0000 </r>
        <r>  0.0005  0.0023  0.0000 </r>
        <r>  0.0001  0.0012  0.0000 </r>
        <r>  0.0002  0.0064  0.0000 </r>
        <r>  0.0005  0.0023  0.0000 </r>
        <r>  0.0002  0.0064  0.0000 </r>
        <r>  0.0000  0.0025  0.0000 </r>
        <r>  0.0002  0.0064  0.0000 </r>
        <r>  0.0001  0.0012  0.0000 </r>
        <r>  0.0005  0.0023  0.0000 </r>
        <r>  0.0001  0.0012  0.0000 </r>
        <r>  0.0001  0.0012  0.0000 </r>
        <r>  0.0001  0.0094  0.0000 </r>
        <r>  0.0002  0.0064  0.0000 </r>
        <r>  0.0003  0.0001  0.0000 </r>
        <r>  0.0001  0.0094  0.0000 </r>
        <r>  0.0002  0.0064  0.0000 </r>
        <r>  0.0005  0.0023  0.0000 </r>
        <r>  0.0000  0.0025  0.0000 </r>
        <r>  0.0002  0.0064  0.0000 </r>
        <r>  0.0001  0.0094  0.0000 </r>
        <r>  0.0003  0.0001  0.0000 </r>
        <r>  0.0000  0.0025  0.0000 </r>
        <r>  0.0001  0.0094  0.0000 </r>
        <r>  0.0000  0.0025  0.0000 </r>
       </set>
       <set comment="band 139">
        <r>  0.0001  0.0028  0.0000 </r>
        <r>  0.0001  0.0028  0.0000 </r>
        <r>  0.0003  0.0064  0.0000 </r>
        <r>  0.0005  0.0060  0.0000 </r>
        <r>  0.0001  0.0028  0.0000 </r>
        <r>  0.0003  0.0064  0.0000 </r>
        <r>  0.0001  0.0028  0.0000 </r>
        <r>  0.0003  0.0073  0.0000 </r>
        <r>  0.0001  0.0028  0.0000 </r>
        <r>  0.0005  0.0060  0.0000 </r>
        <r>  0.0003  0.0064  0.0000 </r>
        <r>  0.0005  0.0060  0.0000 </r>
        <r>  0.0005  0.0060  0.0000 </r>
        <r>  0.0001  0.0036  0.0000 </r>
        <r>  0.0001  0.0028  0.0000 </r>
        <r>  0.0000  0.0000  0.0000 </r>
        <r>  0.0001  0.0036  0.0000 </r>
        <r>  0.0001  0.0028  0.0000 </r>
        <r>  0.0003  0.0064  0.0000 </r>
        <r>  0.0003  0.0073  0.0000 </r>
        <r>  0.0001  0.0028  0.0000 </r>
        <r>  0.0001  0.0036  0.0000 </r>
        <r>  0.0000  0.0000  0.0000 </r>
        <r>  0.0003  0.0073  0.0000 </r>
        <r>  0.0001  0.0036  0.0000 </r>
        <r>  0.0003  0.0073  0.0000 </r>
        <r>  0.0000  0.0007  0.0000 </r>
        <r>  0.0009  0.0034  0.0000 </r>
        <r>  0.0009  0.0034  0.0000 </r>
        <r>  0.0004  0.0033  0.0000 </r>
        <r>  0.0007  0.0026  0.0000 </r>
        <r>  0.0009  0.0034  0.0000 </r>
        <r>  0.0004  0.0033  0.0000 </r>
        <r>  0.0009  0.0034  0.0000 </r>
        <r>  0.0010  0.0010  0.0000 </r>
        <r>  0.0009  0.0034  0.0000 </r>
        <r>  0.0007  0.0026  0.0000 </r>
        <r>  0.0004  0.0033  0.0000 </r>
        <r>  0.0007  0.0026  0.0000 </r>
        <r>  0.0007  0.0026  0.0000 </r>
        <r>  0.0027  0.0020  0.0000 </r>
        <r>  0.0009  0.0034  0.0000 </r>
        <r>  0.0002  0.0001  0.0000 </r>
        <r>  0.0027  0.0020  0.0000 </r>
        <r>  0.0009  0.0034  0.0000 </r>
        <r>  0.0004  0.0033  0.0000 </r>
        <r>  0.0010  0.0010  0.0000 </r>
        <r>  0.0009  0.0034  0.0000 </r>
        <r>  0.0027  0.0020  0.0000 </r>
        <r>  0.0002  0.0001  0.0000 </r>
        <r>  0.0010  0.0010  0.0000 </r>
        <r>  0.0027  0.0020  0.0000 </r>
        <r>  0.0010  0.0010  0.0000 </r>
       </set>
       <set comment="band 140">
        <r>  0.0004  0.0091  0.0000 </r>
        <r>  0.0004  0.0091  0.0000 </r>
        <r>  0.0001  0.0042  0.0000 </r>
        <r>  0.0001  0.0049  0.0000 </r>
        <r>  0.0004  0.0091  0.0000 </r>
        <r>  0.0001  0.0042  0.0000 </r>
        <r>  0.0004  0.0091  0.0000 </r>
        <r>  0.0000  0.0040  0.0000 </r>
        <r>  0.0004  0.0091  0.0000 </r>
        <r>  0.0001  0.0049  0.0000 </r>
        <r>  0.0001  0.0042  0.0000 </r>
        <r>  0.0001  0.0049  0.0000 </r>
        <r>  0.0001  0.0049  0.0000 </r>
        <r>  0.0003  0.0090  0.0000 </r>
        <r>  0.0004  0.0091  0.0000 </r>
        <r>  0.0000  0.0000  0.0000 </r>
        <r>  0.0003  0.0090  0.0000 </r>
        <r>  0.0004  0.0091  0.0000 </r>
        <r>  0.0001  0.0042  0.0000 </r>
        <r>  0.0000  0.0040  0.0000 </r>
        <r>  0.0004  0.0091  0.0000 </r>
        <r>  0.0003  0.0090  0.0000 </r>
        <r>  0.0000  0.0000  0.0000 </r>
        <r>  0.0000  0.0040  0.0000 </r>
        <r>  0.0003  0.0090  0.0000 </r>
        <r>  0.0000  0.0040  0.0000 </r>
        <r>  0.0060  0.0000  0.0000 </r>
        <r>  0.0005  0.0032  0.0000 </r>
        <r>  0.0005  0.0032  0.0000 </r>
        <r>  0.0018  0.0023  0.0000 </r>
        <r>  0.0014  0.0029  0.0000 </r>
        <r>  0.0005  0.0032  0.0000 </r>
        <r>  0.0018  0.0023  0.0000 </r>
        <r>  0.0005  0.0032  0.0000 </r>
        <r>  0.0018  0.0021  0.0000 </r>
        <r>  0.0005  0.0032  0.0000 </r>
        <r>  0.0014  0.0029  0.0000 </r>
        <r>  0.0018  0.0023  0.0000 </r>
        <r>  0.0014  0.0029  0.0000 </r>
        <r>  0.0014  0.0029  0.0000 </r>
        <r>  0.0003  0.0037  0.0000 </r>
        <r>  0.0005  0.0032  0.0000 </r>
        <r>  0.0052  0.0000  0.0000 </r>
        <r>  0.0003  0.0037  0.0000 </r>
        <r>  0.0005  0.0032  0.0000 </r>
        <r>  0.0018  0.0023  0.0000 </r>
        <r>  0.0018  0.0021  0.0000 </r>
        <r>  0.0005  0.0032  0.0000 </r>
        <r>  0.0003  0.0037  0.0000 </r>
        <r>  0.0052  0.0000  0.0000 </r>
        <r>  0.0018  0.0021  0.0000 </r>
        <r>  0.0003  0.0037  0.0000 </r>
        <r>  0.0018  0.0021  0.0000 </r>
       </set>
       <set comment="band 141">
        <r>  0.0009  0.0015  0.0000 </r>
        <r>  0.0009  0.0015  0.0000 </r>
        <r>  0.0001  0.0057  0.0000 </r>
        <r>  0.0002  0.0078  0.0000 </r>
        <r>  0.0009  0.0015  0.0000 </r>
        <r>  0.0001  0.0057  0.0000 </r>
        <r>  0.0009  0.0015  0.0000 </r>
        <r>  0.0003  0.0077  0.0000 </r>
        <r>  0.0009  0.0015  0.0000 </r>
        <r>  0.0002  0.0078  0.0000 </r>
        <r>  0.0001  0.0057  0.0000 </r>
        <r>  0.0002  0.0078  0.0000 </r>
        <r>  0.0002  0.0078  0.0000 </r>
        <r>  0.0020  0.0017  0.0000 </r>
        <r>  0.0009  0.0015  0.0000 </r>
        <r>  0.0000  0.0003  0.0000 </r>
        <r>  0.0020  0.0017  0.0000 </r>
        <r>  0.0009  0.0015  0.0000 </r>
        <r>  0.0001  0.0057  0.0000 </r>
        <r>  0.0003  0.0077  0.0000 </r>
        <r>  0.0009  0.0015  0.0000 </r>
        <r>  0.0020  0.0017  0.0000 </r>
        <r>  0.0000  0.0003  0.0000 </r>
        <r>  0.0003  0.0077  0.0000 </r>
        <r>  0.0020  0.0017  0.0000 </r>
        <r>  0.0003  0.0077  0.0000 </r>
        <r>  0.0000  0.0127  0.0000 </r>
        <r>  0.0002  0.0018  0.0000 </r>
        <r>  0.0002  0.0018  0.0000 </r>
        <r>  0.0026  0.0022  0.0000 </r>
        <r>  0.0023  0.0014  0.0000 </r>
        <r>  0.0002  0.0018  0.0000 </r>
        <r>  0.0026  0.0022  0.0000 </r>
        <r>  0.0002  0.0018  0.0000 </r>
        <r>  0.0032  0.0018  0.0000 </r>
        <r>  0.0002  0.0018  0.0000 </r>
        <r>  0.0023  0.0014  0.0000 </r>
        <r>  0.0026  0.0022  0.0000 </r>
        <r>  0.0023  0.0014  0.0000 </r>
        <r>  0.0023  0.0014  0.0000 </r>
        <r>  0.0000  0.0018  0.0000 </r>
        <r>  0.0002  0.0018  0.0000 </r>
        <r>  0.0000  0.0089  0.0000 </r>
        <r>  0.0000  0.0018  0.0000 </r>
        <r>  0.0002  0.0018  0.0000 </r>
        <r>  0.0026  0.0022  0.0000 </r>
        <r>  0.0032  0.0018  0.0000 </r>
        <r>  0.0002  0.0018  0.0000 </r>
        <r>  0.0000  0.0018  0.0000 </r>
        <r>  0.0000  0.0089  0.0000 </r>
        <r>  0.0032  0.0018  0.0000 </r>
        <r>  0.0000  0.0018  0.0000 </r>
        <r>  0.0032  0.0018  0.0000 </r>
       </set>
       <set comment="band 142">
        <r>  0.0016  0.0048  0.0000 </r>
        <r>  0.0016  0.0048  0.0000 </r>
        <r>  0.0003  0.0058  0.0000 </r>
        <r>  0.0001  0.0009  0.0000 </r>
        <r>  0.0016  0.0048  0.0000 </r>
        <r>  0.0003  0.0058  0.0000 </r>
        <r>  0.0016  0.0048  0.0000 </r>
        <r>  0.0000  0.0100  0.0000 </r>
        <r>  0.0016  0.0048  0.0000 </r>
        <r>  0.0001  0.0009  0.0000 </r>
        <r>  0.0003  0.0058  0.0000 </r>
        <r>  0.0001  0.0009  0.0000 </r>
        <r>  0.0001  0.0009  0.0000 </r>
        <r>  0.0002  0.0110  0.0000 </r>
        <r>  0.0016  0.0048  0.0000 </r>
        <r>  0.0000  0.0000  0.0000 </r>
        <r>  0.0002  0.0110  0.0000 </r>
        <r>  0.0016  0.0048  0.0000 </r>
        <r>  0.0003  0.0058  0.0000 </r>
        <r>  0.0000  0.0100  0.0000 </r>
        <r>  0.0016  0.0048  0.0000 </r>
        <r>  0.0002  0.0110  0.0000 </r>
        <r>  0.0000  0.0000  0.0000 </r>
        <r>  0.0000  0.0100  0.0000 </r>
        <r>  0.0002  0.0110  0.0000 </r>
        <r>  0.0000  0.0100  0.0000 </r>
        <r>  0.0000  0.0004  0.0000 </r>
        <r>  0.0019  0.0041  0.0000 </r>
        <r>  0.0019  0.0041  0.0000 </r>
        <r>  0.0004  0.0004  0.0000 </r>
        <r>  0.0043  0.0031  0.0000 </r>
        <r>  0.0019  0.0041  0.0000 </r>
        <r>  0.0004  0.0004  0.0000 </r>
        <r>  0.0019  0.0041  0.0000 </r>
        <r>  0.0040  0.0009  0.0000 </r>
        <r>  0.0019  0.0041  0.0000 </r>
        <r>  0.0043  0.0031  0.0000 </r>
        <r>  0.0004  0.0004  0.0000 </r>
        <r>  0.0043  0.0031  0.0000 </r>
        <r>  0.0043  0.0031  0.0000 </r>
        <r>  0.0006  0.0003  0.0000 </r>
        <r>  0.0019  0.0041  0.0000 </r>
        <r>  0.0000  0.0008  0.0000 </r>
        <r>  0.0006  0.0003  0.0000 </r>
        <r>  0.0019  0.0041  0.0000 </r>
        <r>  0.0004  0.0004  0.0000 </r>
        <r>  0.0040  0.0009  0.0000 </r>
        <r>  0.0019  0.0041  0.0000 </r>
        <r>  0.0006  0.0003  0.0000 </r>
        <r>  0.0000  0.0008  0.0000 </r>
        <r>  0.0040  0.0009  0.0000 </r>
        <r>  0.0006  0.0003  0.0000 </r>
        <r>  0.0040  0.0009  0.0000 </r>
       </set>
       <set comment="band 143">
        <r>  0.0018  0.0014  0.0000 </r>
        <r>  0.0018  0.0014  0.0000 </r>
        <r>  0.0034  0.0009  0.0000 </r>
        <r>  0.0066  0.0002  0.0000 </r>
        <r>  0.0018  0.0014  0.0000 </r>
        <r>  0.0034  0.0009  0.0000 </r>
        <r>  0.0018  0.0014  0.0000 </r>
        <r>  0.0020  0.0011  0.0000 </r>
        <r>  0.0018  0.0014  0.0000 </r>
        <r>  0.0066  0.0002  0.0000 </r>
        <r>  0.0034  0.0009  0.0000 </r>
        <r>  0.0066  0.0002  0.0000 </r>
        <r>  0.0066  0.0002  0.0000 </r>
        <r>  0.0028  0.0017  0.0000 </r>
        <r>  0.0018  0.0014  0.0000 </r>
        <r>  0.0000  0.0000  0.0000 </r>
        <r>  0.0028  0.0017  0.0000 </r>
        <r>  0.0018  0.0014  0.0000 </r>
        <r>  0.0034  0.0009  0.0000 </r>
        <r>  0.0020  0.0011  0.0000 </r>
        <r>  0.0018  0.0014  0.0000 </r>
        <r>  0.0028  0.0017  0.0000 </r>
        <r>  0.0000  0.0000  0.0000 </r>
        <r>  0.0020  0.0011  0.0000 </r>
        <r>  0.0028  0.0017  0.0000 </r>
        <r>  0.0020  0.0011  0.0000 </r>
        <r>  0.0000  0.0077  0.0000 </r>
        <r>  0.0001  0.0057  0.0000 </r>
        <r>  0.0001  0.0057  0.0000 </r>
        <r>  0.0000  0.0057  0.0000 </r>
        <r>  0.0000  0.0107  0.0000 </r>
        <r>  0.0001  0.0057  0.0000 </r>
        <r>  0.0000  0.0057  0.0000 </r>
        <r>  0.0001  0.0057  0.0000 </r>
        <r>  0.0000  0.0107  0.0000 </r>
        <r>  0.0001  0.0057  0.0000 </r>
        <r>  0.0000  0.0107  0.0000 </r>
        <r>  0.0000  0.0057  0.0000 </r>
        <r>  0.0000  0.0107  0.0000 </r>
        <r>  0.0000  0.0107  0.0000 </r>
        <r>  0.0019  0.0026  0.0000 </r>
        <r>  0.0001  0.0057  0.0000 </r>
        <r>  0.0000  0.0072  0.0000 </r>
        <r>  0.0019  0.0026  0.0000 </r>
        <r>  0.0001  0.0057  0.0000 </r>
        <r>  0.0000  0.0057  0.0000 </r>
        <r>  0.0000  0.0107  0.0000 </r>
        <r>  0.0001  0.0057  0.0000 </r>
        <r>  0.0019  0.0026  0.0000 </r>
        <r>  0.0000  0.0072  0.0000 </r>
        <r>  0.0000  0.0107  0.0000 </r>
        <r>  0.0019  0.0026  0.0000 </r>
        <r>  0.0000  0.0107  0.0000 </r>
       </set>
       <set comment="band 144">
        <r>  0.0052  0.0011  0.0000 </r>
        <r>  0.0051  0.0011  0.0000 </r>
        <r>  0.0005  0.0033  0.0000 </r>
        <r>  0.0001  0.0026  0.0000 </r>
        <r>  0.0051  0.0010  0.0000 </r>
        <r>  0.0004  0.0033  0.0000 </r>
        <r>  0.0052  0.0010  0.0000 </r>
        <r>  0.0000  0.0007  0.0000 </r>
        <r>  0.0052  0.0011  0.0000 </r>
        <r>  0.0001  0.0026  0.0000 </r>
        <r>  0.0005  0.0033  0.0000 </r>
        <r>  0.0001  0.0026  0.0000 </r>
        <r>  0.0001  0.0026  0.0000 </r>
        <r>  0.0054  0.0013  0.0000 </r>
        <r>  0.0051  0.0011  0.0000 </r>
        <r>  0.0001  0.0010  0.0000 </r>
        <r>  0.0055  0.0012  0.0000 </r>
        <r>  0.0051  0.0011  0.0000 </r>
        <r>  0.0005  0.0033  0.0000 </r>
        <r>  0.0000  0.0007  0.0000 </r>
        <r>  0.0051  0.0011  0.0000 </r>
        <r>  0.0054  0.0012  0.0000 </r>
        <r>  0.0001  0.0010  0.0000 </r>
        <r>  0.0000  0.0007  0.0000 </r>
        <r>  0.0055  0.0013  0.0000 </r>
        <r>  0.0000  0.0007  0.0000 </r>
        <r>  0.0000  0.0075  0.0000 </r>
        <r>  0.0003  0.0033  0.0000 </r>
        <r>  0.0003  0.0033  0.0000 </r>
        <r>  0.0006  0.0070  0.0000 </r>
        <r>  0.0000  0.0045  0.0000 </r>
        <r>  0.0003  0.0034  0.0000 </r>
        <r>  0.0006  0.0069  0.0000 </r>
        <r>  0.0003  0.0034  0.0000 </r>
        <r>  0.0000  0.0114  0.0000 </r>
        <r>  0.0003  0.0034  0.0000 </r>
        <r>  0.0000  0.0045  0.0000 </r>
        <r>  0.0007  0.0070  0.0000 </r>
        <r>  0.0000  0.0045  0.0000 </r>
        <r>  0.0000  0.0045  0.0000 </r>
        <r>  0.0013  0.0041  0.0000 </r>
        <r>  0.0003  0.0034  0.0000 </r>
        <r>  0.0000  0.0150  0.0000 </r>
        <r>  0.0013  0.0041  0.0000 </r>
        <r>  0.0003  0.0034  0.0000 </r>
        <r>  0.0007  0.0070  0.0000 </r>
        <r>  0.0000  0.0113  0.0000 </r>
        <r>  0.0003  0.0033  0.0000 </r>
        <r>  0.0013  0.0041  0.0000 </r>
        <r>  0.0000  0.0150  0.0000 </r>
        <r>  0.0000  0.0114  0.0000 </r>
        <r>  0.0013  0.0041  0.0000 </r>
        <r>  0.0000  0.0114  0.0000 </r>
       </set>
      </set>
     </set>
    </set>
   </array>
  </projected>
 </calculation>
 <structure name="finalpos" >
  <crystal>
   <varray name="basis" >
    <v>       9.97646553       0.00000000       5.75991507 </v>
    <v>       3.32548851       9.40590192       5.75991507 </v>
    <v>       0.00000000       0.00000000      11.51983014 </v>
   </varray>
   <i name="volume">   1080.99386112 </i>
   <varray name="rec_basis" >
    <v>       0.10023590      -0.03543874       0.00000000 </v>
    <v>       0.00000000       0.10631623       0.00000000 </v>
    <v>      -0.05011795      -0.03543874       0.08680684 </v>
   </varray>
  </crystal>
  <varray name="positions" >
   <v>       0.29058017       0.29058017       0.62431582 </v>
   <v>       0.29058017       0.29058017       0.96119049 </v>
   <v>       0.29058017       0.62431582       0.29058017 </v>
   <v>       0.29065495       0.62533724       0.62533724 </v>
   <v>       0.29058017       0.62431582       0.96119049 </v>
   <v>       0.29058017       0.96119049       0.29058017 </v>
   <v>       0.29058017       0.96119049       0.62431582 </v>
   <v>       0.29117639       0.95849676       0.95849676 </v>
   <v>       0.62431582       0.29058017       0.29058017 </v>
   <v>       0.62533724       0.29065495       0.62533724 </v>
   <v>       0.62431582       0.29058017       0.96119049 </v>
   <v>       0.62533724       0.62533724       0.29065495 </v>
   <v>       0.62533724       0.62533724       0.62533724 </v>
   <v>       0.62509397       0.62509397       0.95823936 </v>
   <v>       0.62431582       0.96119049       0.29058017 </v>
   <v>       0.62509397       0.95823936       0.62509397 </v>
   <v>       0.62509397       0.95823936       0.95823936 </v>
   <v>       0.96119049       0.29058017       0.29058017 </v>
   <v>       0.96119049       0.29058017       0.62431582 </v>
   <v>       0.95849676       0.29117639       0.95849676 </v>
   <v>       0.96119049       0.62431582       0.29058017 </v>
   <v>       0.95823936       0.62509397       0.62509397 </v>
   <v>       0.95823936       0.62509397       0.95823936 </v>
   <v>       0.95849676       0.95849676       0.29117639 </v>
   <v>       0.95823936       0.95823936       0.62509397 </v>
   <v>       0.95849676       0.95849676       0.95849676 </v>
   <v>       0.04166667       0.04166667       0.04166667 </v>
   <v>       0.04113162       0.04113162       0.37552373 </v>
   <v>       0.04113162       0.04113162       0.70887969 </v>
   <v>       0.04113162       0.37552373       0.04113162 </v>
   <v>       0.04259408       0.37469086       0.37469086 </v>
   <v>       0.04113162       0.37552373       0.70887969 </v>
   <v>       0.04113162       0.70887969       0.04113162 </v>
   <v>       0.04113162       0.70887969       0.37552373 </v>
   <v>       0.04079622       0.70862348       0.70862348 </v>
   <v>       0.37552373       0.04113162       0.04113162 </v>
   <v>       0.37469086       0.04259408       0.37469086 </v>
   <v>       0.37552373       0.04113162       0.70887969 </v>
   <v>       0.37469086       0.37469086       0.04259408 </v>
   <v>       0.37469086       0.37469086       0.37469086 </v>
   <v>       0.37577402       0.37577402       0.70755931 </v>
   <v>       0.37552373       0.70887969       0.04113162 </v>
   <v>       0.37577402       0.70755931       0.37577402 </v>
   <v>       0.37577402       0.70755931       0.70755931 </v>
   <v>       0.70887969       0.04113162       0.04113162 </v>
   <v>       0.70887969       0.04113162       0.37552373 </v>
   <v>       0.70862348       0.04079622       0.70862348 </v>
   <v>       0.70887969       0.37552373       0.04113162 </v>
   <v>       0.70755931       0.37577402       0.37577402 </v>
   <v>       0.70755931       0.37577402       0.70755931 </v>
   <v>       0.70862348       0.70862348       0.04079622 </v>
   <v>       0.70755931       0.70755931       0.37577402 </v>
   <v>       0.70862348       0.70862348       0.70862348 </v>
  </varray>
 </structure>
</modeling>
