 vasp.5.4.4.18Apr17-6-g9f103f2a35 (build Jun 19 2019 10:34:07) complex          
  
 executed on               LB-5.4 date 2023.05.15  18:43:41
 running on   96 total cores
 distrk:  each k-point on   24 cores,    4 groups
 distr:  one band on NCORES_PER_BAND=   1 cores,   24 groups


--------------------------------------------------------------------------------------------------------


 INCAR:
 POTCAR:    PAW_PBE Si 05Jan2001                  

 ----------------------------------------------------------------------------- 
|                                                                             |
|           W    W    AA    RRRRR   N    N  II  N    N   GGGG   !!!           |
|           W    W   A  A   R    R  NN   N  II  NN   N  G    G  !!!           |
|           W    W  A    A  R    R  N N  N  II  N N  N  G       !!!           |
|           W WW W  AAAAAA  RRRRR   N  N N  II  N  N N  G  GGG   !            |
|           WW  WW  A    A  R   R   N   NN  II  N   NN  G    G                |
|           W    W  A    A  R    R  N    N  II  N    N   GGGG   !!!           |
|                                                                             |
|      For optimal performance we recommend to set                            |
|        NCORE= 4 - approx SQRT( number of cores)                             |
|      NCORE specifies how many cores store one orbital (NPAR=cpu/NCORE).     |
|      This setting can  greatly improve the performance of VASP for DFT.     |
|      The default,   NCORE=1            might be grossly inefficient         |
|      on modern multi-core architectures or massively parallel machines.     |
|      Do your own testing !!!!                                               |
|      Unfortunately you need to use the default for GW and RPA calculations. |
|      (for HF NCORE is supported but not extensively tested yet)             |
|                                                                             |
 ----------------------------------------------------------------------------- 


 ----------------------------------------------------------------------------- 
|                                                                             |
|           W    W    AA    RRRRR   N    N  II  N    N   GGGG   !!!           |
|           W    W   A  A   R    R  NN   N  II  NN   N  G    G  !!!           |
|           W    W  A    A  R    R  N N  N  II  N N  N  G       !!!           |
|           W WW W  AAAAAA  RRRRR   N  N N  II  N  N N  G  GGG   !            |
|           WW  WW  A    A  R   R   N   NN  II  N   NN  G    G                |
|           W    W  A    A  R    R  N    N  II  N    N   GGGG   !!!           |
|                                                                             |
|      You have enabled k-point parallelism (KPAR>1).                         |
|      This developmental code was originally  written by Paul Kent at ORNL,  |
|      and carefully double checked in Vienna.                                |
|      GW as well as linear response parallelism added by Martijn Marsman     |
|      and Georg Kresse.                                                      |
|      Carefully verify results versus KPAR=1.                                |
|      Report problems to Paul Kent and Vienna.                               |
|                                                                             |
 ----------------------------------------------------------------------------- 

 POTCAR:    PAW_PBE Si 05Jan2001                  
   VRHFIN =Si: s2p2                                                             
   LEXCH  = PE                                                                  
   EATOM  =   103.0669 eV,    7.5752 Ry                                         
                                                                                
   TITEL  = PAW_PBE Si 05Jan2001                                                
   LULTRA =        F    use ultrasoft PP ?                                      
   IUNSCR =        1    unscreen: 0-lin 1-nonlin 2-no                           
   RPACOR =    1.500    partial core radius                                     
   POMASS =   28.085; ZVAL   =    4.000    mass and valenz                      
   RCORE  =    1.900    outmost cutoff radius                                   
   RWIGS  =    2.480; RWIGS  =    1.312    wigner-seitz radius (au A)           
   ENMAX  =  245.345; ENMIN  =  184.009 eV                                      
   ICORE  =        2    local potential                                         
   LCOR   =        T    correct aug charges                                     
   LPAW   =        T    paw PP                                                  
   EAUG   =  322.069                                                            
   DEXC   =    0.000                                                            
   RMAX   =    1.950    core radius for proj-oper                               
   RAUG   =    1.300    factor for augmentation sphere                          
   RDEP   =    1.993    radius for radial grids                                 
   RDEPT  =    1.837    core radius for aug-charge                              
                                                                                
   Atomic configuration                                                         
    6 entries                                                                   
     n  l   j            E        occ.                                          
     1  0  0.50     -1785.8828   2.0000                                         
     2  0  0.50      -139.4969   2.0000                                         
     2  1  1.50       -95.5546   6.0000                                         
     3  0  0.50       -10.8127   2.0000                                         
     3  1  0.50        -4.0811   2.0000                                         
     3  2  1.50        -4.0817   0.0000                                         
   Description                                                                  
     l       E           TYP  RCUT    TYP  RCUT                                 
     0    -10.8127223     23  1.900                                             
     0     -7.6451159     23  1.900                                             
     1     -4.0811372     23  1.900                                             
     1      2.4879257     23  1.900                                             
     2     -4.0817478      7  1.900                                             
  local pseudopotential read in
  partial core-charges read in
  partial kinetic energy density read in
  atomic valenz-charges read in
  non local Contribution for L=           0  read in
    real space projection operators read in
  non local Contribution for L=           0  read in
    real space projection operators read in
  non local Contribution for L=           1  read in
    real space projection operators read in
  non local Contribution for L=           1  read in
    real space projection operators read in
    PAW grid and wavefunctions read in
 
   number of l-projection  operators is LMAX  =           4
   number of lm-projection operators is LMMAX =           8
 

 ----------------------------------------------------------------------------- 
|                                                                             |
|  ADVICE TO THIS USER RUNNING 'VASP/VAMP'   (HEAR YOUR MASTER'S VOICE ...):  |
|                                                                             |
|      You have a (more or less) 'large supercell' and for larger cells       |
|      it might be more efficient to use real space projection opertators     |
|      So try LREAL= Auto  in the INCAR   file.                               |
|      Mind:          For very  accurate calculation you might also keep the  |
|      reciprocal projection scheme          (i.e. LREAL=.FALSE.)             |
|                                                                             |
 ----------------------------------------------------------------------------- 

  PAW_PBE Si 05Jan2001                  :
 energy of atom  1       EATOM= -103.0669
 kinetic energy error for atom=    0.0004 (will be added to EATOM!!)
 
 
 POSCAR: Si53                                    
  positions in direct lattice
  velocities in cartesian coordinates
 exchange correlation table for  LEXCH =        8
   RHO(1)=    0.500       N(1)  =     2000
   RHO(2)=  100.500       N(2)  =     4000
 


--------------------------------------------------------------------------------------------------------


 ion  position               nearest neighbor table
   1  0.292  0.292  0.625-  32 2.35  40 2.35  41 2.35  38 2.35
   2  0.292  0.292  0.958-  30 2.35  39 2.35  41 2.35  36 2.35
   3  0.292  0.625  0.292-  34 2.35  42 2.35  43 2.35  40 2.35
   4  0.292  0.625  0.625-  35 2.35  43 2.35  44 2.35  41 2.35
   5  0.292  0.625  0.958-  33 2.35  42 2.35  44 2.35  39 2.35
   6  0.292  0.958  0.292-  28 2.35  36 2.35  37 2.35  43 2.35
   7  0.292  0.958  0.625-  29 2.35  37 2.35  38 2.35  44 2.35
   8  0.292  0.958  0.958-  27 2.35  36 2.35  38 2.35  42 2.35
   9  0.625  0.292  0.292-  40 2.35  48 2.35  49 2.35  46 2.35
  10  0.625  0.292  0.625-  41 2.35  49 2.35  50 2.35  47 2.35
  11  0.625  0.292  0.958-  39 2.35  48 2.35  50 2.35  45 2.35
  12  0.625  0.625  0.292-  43 2.35  51 2.35  52 2.35  49 2.35
  13  0.625  0.625  0.625-  44 2.35  52 2.35  53 2.35  50 2.35
  14  0.625  0.625  0.958-  42 2.35  51 2.35  53 2.35  48 2.35
  15  0.625  0.958  0.292-  37 2.35  45 2.35  46 2.35  52 2.35
  16  0.625  0.958  0.625-  38 2.35  46 2.35  47 2.35  53 2.35
  17  0.625  0.958  0.958-  36 2.35  45 2.35  47 2.35  51 2.35
  18  0.958  0.292  0.292-  49 2.35  31 2.35  30 2.35  28 2.35
  19  0.958  0.292  0.625-  50 2.35  32 2.35  31 2.35  29 2.35
  20  0.958  0.292  0.958-  48 2.35  30 2.35  32 2.35  27 2.35
  21  0.958  0.625  0.292-  52 2.35  34 2.35  33 2.35  31 2.35
  22  0.958  0.625  0.625-  53 2.35  35 2.35  34 2.35  32 2.35
  23  0.958  0.625  0.958-  51 2.35  33 2.35  35 2.35  30 2.35
  24  0.958  0.958  0.292-  46 2.35  28 2.35  27 2.35  34 2.35
  25  0.958  0.958  0.625-  47 2.35  29 2.35  28 2.35  35 2.35
  26  0.958  0.958  0.958-  45 2.35  27 2.35  29 2.35  33 2.35
  27  0.042  0.042  0.042-   8 2.35  26 2.35  24 2.35  20 2.35
  28  0.042  0.042  0.375-   6 2.35  24 2.35  25 2.35  18 2.35
  29  0.042  0.042  0.708-   7 2.35  25 2.35  26 2.35  19 2.35
  30  0.042  0.375  0.042-   2 2.35  20 2.35  18 2.35  23 2.35
  31  0.042  0.375  0.375-  18 2.35  19 2.35  21 2.35
  32  0.042  0.375  0.708-   1 2.35  19 2.35  20 2.35  22 2.35
  33  0.042  0.708  0.042-   5 2.35  23 2.35  21 2.35  26 2.35
  34  0.042  0.708  0.375-   3 2.35  21 2.35  22 2.35  24 2.35
  35  0.042  0.708  0.708-   4 2.35  22 2.35  23 2.35  25 2.35
  36  0.375  0.042  0.042-  17 2.35   8 2.35   6 2.35   2 2.35
  37  0.375  0.042  0.375-  15 2.35   7 2.35   6 2.35
  38  0.375  0.042  0.708-  16 2.35   8 2.35   7 2.35   1 2.35
  39  0.375  0.375  0.042-  11 2.35   2 2.35   5 2.35
  40  0.375  0.375  0.375-   9 2.35   1 2.35   3 2.35
  41  0.375  0.375  0.708-  10 2.35   2 2.35   1 2.35   4 2.35
  42  0.375  0.708  0.042-  14 2.35   5 2.35   3 2.35   8 2.35
  43  0.375  0.708  0.375-  12 2.35   4 2.35   3 2.35   6 2.35
  44  0.375  0.708  0.708-  13 2.35   5 2.35   4 2.35   7 2.35
  45  0.708  0.042  0.042-  26 2.35  17 2.35  15 2.35  11 2.35
  46  0.708  0.042  0.375-  24 2.35  16 2.35  15 2.35   9 2.35
  47  0.708  0.042  0.708-  25 2.35  17 2.35  16 2.35  10 2.35
  48  0.708  0.375  0.042-  20 2.35  11 2.35   9 2.35  14 2.35
  49  0.708  0.375  0.375-  18 2.35  10 2.35   9 2.35  12 2.35
  50  0.708  0.375  0.708-  19 2.35  11 2.35  10 2.35  13 2.35
  51  0.708  0.708  0.042-  23 2.35  14 2.35  12 2.35  17 2.35
  52  0.708  0.708  0.375-  21 2.35  13 2.35  12 2.35  15 2.35
  53  0.708  0.708  0.708-  22 2.35  14 2.35  13 2.35  16 2.35
 
  LATTYP: Found a face centered cubic cell.
 ALAT       =    16.2915000202
  
  Lattice vectors:
  
 A1 = (   9.9764655300,   0.0000000000,   5.7599150700)
 A2 = (   3.3254885100,   9.4059019200,   5.7599150700)
 A3 = (   0.0000000000,   0.0000000000,  11.5198301400)


Analysis of symmetry for initial positions (statically):
=====================================================================
 Subroutine PRICEL returns:
 Original cell was already a primitive cell.
 

 Routine SETGRP: Setting up the symmetry group for a 
 face centered cubic supercell.


 Subroutine GETGRP returns: Found 24 space group operations
 (whereof  6 operations were pure point group operations)
 out of a pool of 48 trial point group operations.


The static configuration has the point symmetry C_3v.
 The point group associated with its full space group is T_d .


Analysis of symmetry for dynamics (positions and initial velocities):
=====================================================================
 Subroutine PRICEL returns:
 Original cell was already a primitive cell.
 

 Routine SETGRP: Setting up the symmetry group for a 
 face centered cubic supercell.


 Subroutine GETGRP returns: Found 24 space group operations
 (whereof  6 operations were pure point group operations)
 out of a pool of 48 trial point group operations.


The dynamic configuration has the point symmetry C_3v.
 The point group associated with its full space group is T_d .


 Subroutine INISYM returns: Found 24 space group operations
 (whereof  6 operations are pure point group operations),
 and found     1 'primitive' translations

 
 
 KPOINTS: Automatic kpoint scheme                 

Automatic generation of k-mesh.
Space group operators:
 irot       det(A)        alpha          n_x          n_y          n_z        tau_x        tau_y        tau_z
    1     1.000000     0.000000     1.000000     0.000000     0.000000     0.000000     0.000000     0.000000
    2     1.000000   120.000000    -0.471405    -0.333333    -0.816497     0.000000     0.000000     0.000000
    3     1.000000   120.000000     0.471405     0.333333     0.816497     0.000000     0.000000     0.000000
    4    -1.000000   180.000000     0.288675     0.816497    -0.500000     0.000000     0.000000     0.000000
    5    -1.000000   180.000000     0.577350    -0.816497     0.000000     0.000000     0.000000     0.000000
    6    -1.000000   180.000000     0.866025     0.000000    -0.500000     0.000000     0.000000     0.000000
    7    -1.000000    90.000000    -0.816497    -0.577350    -0.000000     0.166667     0.000000     0.000000
    8    -1.000000   180.000000     0.866025     0.000000     0.500000     0.166667     0.000000     0.000000
    9    -1.000000    90.000000     0.408248    -0.577350     0.707107     0.166667     0.000000     0.000000
   10     1.000000   180.000000     0.816497     0.577350     0.000000     0.000000     0.000000     0.166667
   11     1.000000   120.000000     0.942809    -0.333333     0.000000     0.000000     0.000000     0.166667
   12     1.000000   120.000000    -0.000000    -1.000000    -0.000000     0.000000     0.000000     0.166667
   13    -1.000000    90.000000     0.816497     0.577350    -0.000000    -0.000000     0.166667     0.000000
   14    -1.000000    90.000000     0.408248    -0.577350    -0.707107     0.000000     0.166667    -0.000000
   15    -1.000000   180.000000     0.288675     0.816497     0.500000    -0.000000     0.166667     0.000000
   16     1.000000   120.000000    -0.000000     1.000000    -0.000000     0.166667     0.000000     0.000000
   17     1.000000   120.000000     0.471405     0.333333    -0.816497     0.166667     0.000000     0.000000
   18     1.000000   180.000000    -0.408248     0.577350     0.707107     0.166667     0.000000     0.000000
   19    -1.000000    90.000000    -0.408248     0.577350    -0.707107     0.000000     0.000000     0.166667
   20    -1.000000   180.000000     0.000000    -0.000000     1.000000     0.000000     0.000000     0.166667
   21    -1.000000    90.000000    -0.408248     0.577350     0.707107     0.000000     0.000000     0.166667
   22     1.000000   120.000000    -0.942809     0.333333     0.000000     0.000000     0.166667    -0.000000
   23     1.000000   180.000000    -0.408248     0.577350    -0.707107    -0.000000     0.166667     0.000000
   24     1.000000   120.000000    -0.471405    -0.333333     0.816497    -0.000000     0.166667     0.000000
 
 Subroutine IBZKPT returns following result:
 ===========================================
 
 Found      8 irreducible k-points:
 
 Following reciprocal coordinates:
            Coordinates               Weight
  0.000000  0.000000  0.000000      1.000000
  0.250000  0.000000  0.000000      8.000000
  0.500000  0.000000  0.000000      4.000000
  0.250000  0.250000  0.000000      6.000000
  0.500000  0.250000  0.000000     24.000000
 -0.250000  0.250000  0.000000     12.000000
  0.500000  0.500000  0.000000      3.000000
 -0.250000  0.500000  0.250000      6.000000
 
 Following cartesian coordinates:
            Coordinates               Weight
  0.000000  0.000000  0.000000      1.000000
  0.025059 -0.008860  0.000000      8.000000
  0.050118 -0.017719  0.000000      4.000000
  0.025059  0.017719  0.000000      6.000000
  0.050118  0.008860  0.000000     24.000000
 -0.025059  0.035439  0.000000     12.000000
  0.050118  0.035439  0.000000      3.000000
 -0.037588  0.053158  0.021702      6.000000
 


--------------------------------------------------------------------------------------------------------




 Dimension of arrays:
   k-points           NKPTS =      8   k-points in BZ     NKDIM =      8   number of bands    NBANDS=    144
   number of dos      NEDOS =    301   number of ions     NIONS =     53
   non local maximal  LDIM  =      4   non local SUM 2l+1 LMDIM =      8
   total plane-waves  NPLWV = 343000
   max r-space proj   IRMAX =      1   max aug-charges    IRDMAX=  10807
   dimension x,y,z NGX =    70 NGY =   70 NGZ =   70
   dimension x,y,z NGXF=   140 NGYF=  140 NGZF=  140
   support grid    NGXF=   140 NGYF=  140 NGZF=  140
   ions per type =              53
   NGX,Y,Z   is equivalent  to a cutoff of  10.10, 10.10, 10.10 a.u.
   NGXF,Y,Z  is equivalent  to a cutoff of  20.20, 20.20, 20.20 a.u.

 SYSTEM =  Si                                      
 POSCAR =  Si53                                    

 Startparameter for this run:
   NWRITE =      2    write-flag & timer
   PREC   = normal    normal or accurate (medium, high low for compatibility)
   ISTART =      1    job   : 0-new  1-cont  2-samecut
   ICHARG =      0    charge: 1-file 2-atom 10-const
   ISPIN  =      1    spin polarized calculation?
   LNONCOLLINEAR =      F non collinear calculations
   LSORBIT =      F    spin-orbit coupling
   INIWAV =      1    electr: 0-lowe 1-rand  2-diag
   LASPH  =      F    aspherical Exc in radial PAW
   METAGGA=      F    non-selfconsistent MetaGGA calc.

 Electronic Relaxation 1
   ENCUT  =  550.0 eV  40.42 Ry    6.36 a.u.  22.03 22.03 22.03*2*pi/ulx,y,z
   ENINI  =  550.0     initial cutoff
   ENAUG  =  322.1 eV  augmentation charge cutoff
   NELM   =    200;   NELMIN=  2; NELMDL=  0     # of ELM steps 
   EDIFF  = 0.1E-04   stopping-criterion for ELM
   LREAL  =      F    real-space projection
   NLSPLINE    = F    spline interpolate recip. space projectors
   LCOMPAT=      F    compatible to vasp.4.4
   GGA_COMPAT  = T    GGA compatible to vasp.4.4-vasp.4.6
   LMAXPAW     = -100 max onsite density
   LMAXMIX     =    2 max onsite mixed and CHGCAR
   VOSKOWN=      0    Vosko Wilk Nusair interpolation
   ROPT   =    0.00000
 Ionic relaxation
   EDIFFG = -.5E-01   stopping-criterion for IOM
   NSW    =    100    number of steps for IOM
   NBLOCK =      1;   KBLOCK =    100    inner block; outer block 
   IBRION =      2    ionic relax: 0-MD 1-quasi-New 2-CG
   NFREE  =      1    steps in history (QN), initial steepest desc. (CG)
   ISIF   =      2    stress and relaxation
   IWAVPR =     11    prediction:  0-non 1-charg 2-wave 3-comb
   ISYM   =      2    0-nonsym 1-usesym 2-fastsym
   LCORR  =      T    Harris-Foulkes like correction to forces

   POTIM  = 0.5000    time-step for ionic-motion
   TEIN   =    0.0    initial temperature
   TEBEG  =    0.0;   TEEND  =   0.0 temperature during run
   SMASS  =  -3.00    Nose mass-parameter (am)
   estimated Nose-frequenzy (Omega)   =  0.10E-29 period in steps =****** mass=  -0.303E-26a.u.
   SCALEE = 1.0000    scale energy and forces
   NPACO  =    256;   APACO  = 16.0  distance and # of slots for P.C.
   PSTRESS=    0.0 pullay stress

  Mass of Ions in am
   POMASS =  28.09
  Ionic Valenz
   ZVAL   =   4.00
  Atomic Wigner-Seitz radii
   RWIGS  =  -1.00
  virtual crystal weights 
   VCA    =   1.00
   NELECT =     212.0000    total number of electrons
   NUPDOWN=      -1.0000    fix difference up-down

 DOS related values:
   EMIN   =  10.00;   EMAX   =-10.00  energy-range for DOS
   EFERMI =   0.00
   ISMEAR =     0;   SIGMA  =   0.05  broadening in eV -4-tet -1-fermi 0-gaus

 Electronic relaxation 2 (details)
   IALGO  =     38    algorithm
   LDIAG  =      T    sub-space diagonalisation (order eigenvalues)
   LSUBROT=      F    optimize rotation matrix (better conditioning)
   TURBO    =      0    0=normal 1=particle mesh
   IRESTART =      0    0=no restart 2=restart with 2 vectors
   NREBOOT  =      0    no. of reboots
   NMIN     =      0    reboot dimension
   EREF     =   0.00    reference energy to select bands
   IMIX   =      4    mixing-type and parameters
     AMIX     =   0.20;   BMIX     =  1.00
     AMIX_MAG =   0.80;   BMIX_MAG =  1.00
     AMIN     =   0.10
     WC   =   100.;   INIMIX=   1;  MIXPRE=   1;  MAXMIX= -45

 Intra band minimization:
   WEIMIN = 0.0010     energy-eigenvalue tresh-hold
   EBREAK =  0.17E-07  absolut break condition
   DEPER  =   0.30     relativ break condition  

   TIME   =   0.40     timestep for ELM

  volume/ion in A,a.u.               =      20.40       137.64
  Fermi-wavevector in a.u.,A,eV,Ry     =   0.951143  1.797399 12.308817  0.904673
  Thomas-Fermi vector in A             =   2.079585
 
 Write flags
   LWAVE        =      T    write WAVECAR
   LDOWNSAMPLE  =      F    k-point downsampling of WAVECAR
   LCHARG       =      T    write CHGCAR
   LVTOT        =      F    write LOCPOT, total local potential
   LVHAR        =      F    write LOCPOT, Hartree potential only
   LELF         =      F    write electronic localiz. function (ELF)
   LORBIT       =     10    0 simple, 1 ext, 2 COOP (PROOUT), +10 PAW based schemes


 Dipole corrections
   LMONO  =      F    monopole corrections only (constant potential shift)
   LDIPOL =      F    correct potential (dipole corrections)
   IDIPOL =      0    1-x, 2-y, 3-z, 4-all directions 
   EPSILON=  1.0000000 bulk dielectric constant

 Exchange correlation treatment:
   GGA     =    --    GGA type
   LEXCH   =     8    internal setting for exchange type
   VOSKOWN=      0    Vosko Wilk Nusair interpolation
   LHFCALC =     F    Hartree Fock is set to
   LHFONE  =     F    Hartree Fock one center treatment
   AEXX    =    0.0000 exact exchange contribution

 Linear response parameters
   LEPSILON=     F    determine dielectric tensor
   LRPA    =     F    only Hartree local field effects (RPA)
   LNABLA  =     F    use nabla operator in PAW spheres
   LVEL    =     F    velocity operator in full k-point grid
   LINTERFAST=   F  fast interpolation
   KINTER  =     0    interpolate to denser k-point grid
   CSHIFT  =0.1000    complex shift for real part using Kramers Kronig
   OMEGAMAX=  -1.0    maximum frequency
   DEG_THRESHOLD= 0.2000000E-02 threshold for treating states as degnerate
   RTIME   =   -0.100 relaxation time in fs
  (WPLASMAI=    0.000 imaginary part of plasma frequency in eV, 0.658/RTIME)
   DFIELD  = 0.0000000 0.0000000 0.0000000 field for delta impulse in time
 
 Orbital magnetization related:
   ORBITALMAG=     F  switch on orbital magnetization
   LCHIMAG   =     F  perturbation theory with respect to B field
   DQ        =  0.001000  dq finite difference perturbation B field
   LLRAUG    =     F  two centre corrections for induced B field



--------------------------------------------------------------------------------------------------------


 conjugate gradient relaxation of ions
 charge density and potential will be updated during run
 non-spin polarized calculation
 Variant of blocked Davidson
 Davidson routine will perform the subspace rotation
 perform sub-space diagonalisation
    after iterative eigenvector-optimisation
 modified Broyden-mixing scheme, WC =      100.0
 initial mixing is a Kerker type mixing with AMIX =  0.2000 and BMIX =      1.0000
 Hartree-type preconditioning will be used
 using additional bands           38
 reciprocal scheme for non local part
 use partial core corrections
 calculate Harris-corrections to forces 
   (improved forces if not selfconsistent)
 use gradient corrections 
 use of overlap-Matrix (Vanderbilt PP)
 Gauss-broadening in eV      SIGMA  =   0.05


--------------------------------------------------------------------------------------------------------


  energy-cutoff  :      550.00
  volume of cell :     1080.99
      direct lattice vectors                 reciprocal lattice vectors
     9.976465530  0.000000000  5.759915070     0.100235900 -0.035438742  0.000000000
     3.325488510  9.405901920  5.759915070     0.000000000  0.106316227  0.000000000
     0.000000000  0.000000000 11.519830140    -0.050117950 -0.035438742  0.086806836

  length of vectors
    11.519830124 11.519830136 11.519830140     0.106316227  0.106316227  0.106316227


 
 old parameters found on file WAVECAR:
  energy-cutoff  :      550.00
  volume of cell :     1080.99
      direct lattice vectors                 reciprocal lattice vectors
     9.976465530  0.000000000  5.759915070     0.100235900 -0.035438742  0.000000000
     3.325488510  9.405901920  5.759915070     0.000000000  0.106316227  0.000000000
     0.000000000  0.000000000 11.519830140    -0.050117950 -0.035438742  0.086806836

  length of vectors

 
 k-points in units of 2pi/SCALE and weight: Automatic kpoint scheme                 
   0.00000000  0.00000000  0.00000000       0.016
   0.02505897 -0.00885969  0.00000000       0.125
   0.05011795 -0.01771937  0.00000000       0.062
   0.02505897  0.01771937  0.00000000       0.094
   0.05011795  0.00885969  0.00000000       0.375
  -0.02505897  0.03543874  0.00000000       0.188
   0.05011795  0.03543874  0.00000000       0.047
  -0.03758846  0.05315811  0.02170171       0.094
 
 k-points in reciprocal lattice and weights: Automatic kpoint scheme                 
   0.00000000  0.00000000  0.00000000       0.016
   0.25000000  0.00000000  0.00000000       0.125
   0.50000000  0.00000000  0.00000000       0.062
   0.25000000  0.25000000  0.00000000       0.094
   0.50000000  0.25000000  0.00000000       0.375
  -0.25000000  0.25000000  0.00000000       0.188
   0.50000000  0.50000000  0.00000000       0.047
  -0.25000000  0.50000000  0.25000000       0.094
 
 position of ions in fractional coordinates (direct lattice) 
   0.29166667  0.29166667  0.62500000
   0.29166667  0.29166667  0.95833333
   0.29166667  0.62500000  0.29166667
   0.29166667  0.62500000  0.62500000
   0.29166667  0.62500000  0.95833333
   0.29166667  0.95833333  0.29166667
   0.29166667  0.95833333  0.62500000
   0.29166667  0.95833333  0.95833333
   0.62500000  0.29166667  0.29166667
   0.62500000  0.29166667  0.62500000
   0.62500000  0.29166667  0.95833333
   0.62500000  0.62500000  0.29166667
   0.62500000  0.62500000  0.62500000
   0.62500000  0.62500000  0.95833333
   0.62500000  0.95833333  0.29166667
   0.62500000  0.95833333  0.62500000
   0.62500000  0.95833333  0.95833333
   0.95833333  0.29166667  0.29166667
   0.95833333  0.29166667  0.62500000
   0.95833333  0.29166667  0.95833333
   0.95833333  0.62500000  0.29166667
   0.95833333  0.62500000  0.62500000
   0.95833333  0.62500000  0.95833333
   0.95833333  0.95833333  0.29166667
   0.95833333  0.95833333  0.62500000
   0.95833333  0.95833333  0.95833333
   0.04166667  0.04166667  0.04166667
   0.04166667  0.04166667  0.37500000
   0.04166667  0.04166667  0.70833333
   0.04166667  0.37500000  0.04166667
   0.04166667  0.37500000  0.37500000
   0.04166667  0.37500000  0.70833333
   0.04166667  0.70833333  0.04166667
   0.04166667  0.70833333  0.37500000
   0.04166667  0.70833333  0.70833333
   0.37500000  0.04166667  0.04166667
   0.37500000  0.04166667  0.37500000
   0.37500000  0.04166667  0.70833333
   0.37500000  0.37500000  0.04166667
   0.37500000  0.37500000  0.37500000
   0.37500000  0.37500000  0.70833333
   0.37500000  0.70833333  0.04166667
   0.37500000  0.70833333  0.37500000
   0.37500000  0.70833333  0.70833333
   0.70833333  0.04166667  0.04166667
   0.70833333  0.04166667  0.37500000
   0.70833333  0.04166667  0.70833333
   0.70833333  0.37500000  0.04166667
   0.70833333  0.37500000  0.37500000
   0.70833333  0.37500000  0.70833333
   0.70833333  0.70833333  0.04166667
   0.70833333  0.70833333  0.37500000
   0.70833333  0.70833333  0.70833333
 
 position of ions in cartesian coordinates  (Angst):
   3.87973659  2.74338806 10.55984429
   3.87973659  2.74338806 14.39978767
   4.98823276  5.87868870  8.63987260
   4.98823276  5.87868870 12.47981598
   4.98823276  5.87868870 16.31975937
   6.09672893  9.01398934 10.55984429
   6.09672893  9.01398934 14.39978767
   6.09672893  9.01398934 18.23973106
   7.20522510  2.74338806  8.63987260
   7.20522510  2.74338806 12.47981598
   7.20522510  2.74338806 16.31975937
   8.31372128  5.87868870 10.55984429
   8.31372128  5.87868870 14.39978767
   8.31372128  5.87868870 18.23973106
   9.42221745  9.01398934 12.47981598
   9.42221745  9.01398934 16.31975937
   9.42221745  9.01398934 20.15970275
  10.53071362  2.74338806 10.55984429
  10.53071362  2.74338806 14.39978767
  10.53071362  2.74338806 18.23973106
  11.63920979  5.87868870 12.47981598
  11.63920979  5.87868870 16.31975937
  11.63920979  5.87868870 20.15970275
  12.74770596  9.01398934 14.39978767
  12.74770596  9.01398934 18.23973106
  12.74770596  9.01398934 22.07967444
   0.55424808  0.39191258  0.95998584
   0.55424808  0.39191258  4.79992922
   0.55424808  0.39191258  8.63987260
   1.66274425  3.52721322  2.87995753
   1.66274425  3.52721322  6.71990091
   1.66274425  3.52721322 10.55984430
   2.77124042  6.66251386  4.79992922
   2.77124042  6.66251386  8.63987261
   2.77124042  6.66251386 12.47981599
   3.87973659  0.39191258  2.87995753
   3.87973659  0.39191258  6.71990091
   3.87973659  0.39191258 10.55984430
   4.98823277  3.52721322  4.79992922
   4.98823277  3.52721322  8.63987261
   4.98823277  3.52721322 12.47981599
   6.09672894  6.66251386  6.71990091
   6.09672894  6.66251386 10.55984430
   6.09672894  6.66251386 14.39978768
   7.20522511  0.39191258  4.79992922
   7.20522511  0.39191258  8.63987261
   7.20522511  0.39191258 12.47981599
   8.31372128  3.52721322  6.71990091
   8.31372128  3.52721322 10.55984430
   8.31372128  3.52721322 14.39978768
   9.42221745  6.66251386  8.63987260
   9.42221745  6.66251386 12.47981599
   9.42221745  6.66251386 16.31975937
 


--------------------------------------------------------------------------------------------------------


 k-point  1 :   0.0000 0.0000 0.0000  plane waves:   31415
 k-point  2 :   0.2500 0.0000 0.0000  plane waves:   31608
 k-point  3 :   0.5000 0.0000 0.0000  plane waves:   31638
 k-point  4 :   0.2500 0.2500 0.0000  plane waves:   31695
 k-point  5 :   0.5000 0.2500 0.0000  plane waves:   31649
 k-point  6 :  -0.2500 0.2500 0.0000  plane waves:   31674
 k-point  7 :   0.5000 0.5000 0.0000  plane waves:   31716
 k-point  8 :  -0.2500 0.5000 0.2500  plane waves:   31684

 maximum and minimum number of plane-waves per node :     31716    31415

 maximum number of plane-waves:     31716
 maximum index in each direction: 
   IXMAX=   22   IYMAX=   22   IZMAX=   22
   IXMIN=  -22   IYMIN=  -22   IZMIN=  -22


 serial   3D FFT for wavefunctions
 parallel 3D FFT for charge:
    minimum data exchange during FFTs selected (reduces bandwidth)


 total amount of memory used by VASP MPI-rank0   122888. kBytes
=======================================================================

   base      :      30000. kBytes
   nonl-proj :      43150. kBytes
   fftplans  :       5382. kBytes
   grid      :      19496. kBytes
   one-center:        162. kBytes
   wavefun   :      24698. kBytes
 
     INWAV:  cpu time    8.7042: real time   10.5556
 Broyden mixing: mesh for mixing (old mesh)
   NGX = 45   NGY = 45   NGZ = 45
  (NGX  =140   NGY  =140   NGZ  =140)
  gives a total of  91125 points

 charge density for first step will be calculated from the start-wavefunctions


--------------------------------------------------------------------------------------------------------


 Maximum index for augmentation-charges          503 (set IRDMAX)


--------------------------------------------------------------------------------------------------------


 initial charge from wavefunction
 First call to EWALD:  gamma=   0.173
 Maximum number of real-space cells 3x 3x 3
 Maximum number of reciprocal cells 3x 3x 3

    FEWALD:  cpu time    0.1069: real time    0.1079


--------------------------------------- Iteration      1(   1)  ---------------------------------------


    POTLOK:  cpu time    0.1101: real time    0.1145
    SETDIJ:  cpu time    0.1023: real time    0.1111
     EDDAV:  cpu time    2.9877: real time    3.0171
       DOS:  cpu time    0.0284: real time    0.0301
    CHARGE:  cpu time    0.1697: real time    0.1708
    MIXING:  cpu time    0.0050: real time    0.0054
    --------------------------------------------
      LOOP:  cpu time    3.4033: real time    3.4491

 eigenvalue-minimisations  :  1728
 total energy-change (2. order) :-0.2839839E+03  (-0.1682218E-06)
 number of electron     211.9999999 magnetization 
 augmentation part      -12.2181607 magnetization 

 Broyden mixing:
  rms(total) = 0.12351E-03    rms(broyden)= 0.12351E-03
  rms(prec ) = 0.28694E-03
  weight for this iteration     100.00

 Free energy of the ion-electron system (eV)
  ---------------------------------------------------
  alpha Z        PSCENC =        87.47481167
  Ewald energy   TEWEN  =     -5974.52528800
  -Hartree energ DENC   =      -435.52396047
  -exchange      EXHF   =         0.00000000
  -V(xc)+E(xc)   XCENC  =      -478.16314106
  PAW double counting   =     22429.47209519   -21502.72515270
  entropy T*S    EENTRO =        -0.00245927
  eigenvalues    EBANDS =       127.48632972
  atomic energy  EATOM  =      5462.52286525
  Solvation  Ediel_sol  =         0.00000000
  ---------------------------------------------------
  free energy    TOTEN  =      -283.98389968 eV

  energy without entropy =     -283.98144041  energy(sigma->0) =     -283.98267005


--------------------------------------------------------------------------------------------------------




--------------------------------------- Iteration      1(   2)  ---------------------------------------


    POTLOK:  cpu time    0.1019: real time    0.1030
    SETDIJ:  cpu time    0.0085: real time    0.0086
     EDDAV:  cpu time    3.2701: real time    3.5980
       DOS:  cpu time    0.4757: real time    0.4830
    --------------------------------------------
      LOOP:  cpu time    3.8562: real time    4.1925

 eigenvalue-minimisations  :  1728
 total energy-change (2. order) : 0.9329960E-07  (-0.4739838E-07)
 number of electron     211.9999999 magnetization 
 augmentation part      -12.2181607 magnetization 

 Free energy of the ion-electron system (eV)
  ---------------------------------------------------
  alpha Z        PSCENC =        87.47481167
  Ewald energy   TEWEN  =     -5974.52528800
  -Hartree energ DENC   =      -435.52412372
  -exchange      EXHF   =         0.00000000
  -V(xc)+E(xc)   XCENC  =      -478.16313982
  PAW double counting   =     22429.51870895   -21502.77175013
  entropy T*S    EENTRO =        -0.00245926
  eigenvalues    EBANDS =       127.48647547
  atomic energy  EATOM  =      5462.52286525
  Solvation  Ediel_sol  =         0.00000000
  ---------------------------------------------------
  free energy    TOTEN  =      -283.98389958 eV

  energy without entropy =     -283.98144033  energy(sigma->0) =     -283.98266996


--------------------------------------------------------------------------------------------------------




 average (electrostatic) potential at core
  the test charge radii are     0.9892
  (the norm of the test charge is              1.0000)
       1 -83.4806       2 -83.4806       3 -83.4806       4 -83.4949       5 -83.4806
       6 -83.4806       7 -83.4806       8 -83.4414       9 -83.4806      10 -83.4949
      11 -83.4806      12 -83.4949      13 -83.4949      14 -83.4513      15 -83.4806
      16 -83.4513      17 -83.4513      18 -83.4806      19 -83.4806      20 -83.4414
      21 -83.4806      22 -83.4513      23 -83.4513      24 -83.4414      25 -83.4513
      26 -83.4414      27 -83.4385      28 -83.4421      29 -83.4420      30 -83.4421
      31 -83.5803      32 -83.4421      33 -83.4420      34 -83.4421      35 -83.4713
      36 -83.4421      37 -83.5803      38 -83.4421      39 -83.5803      40 -83.5803
      41 -83.5644      42 -83.4421      43 -83.5644      44 -83.5644      45 -83.4420
      46 -83.4421      47 -83.4713      48 -83.4421      49 -83.5644      50 -83.5644
      51 -83.4713      52 -83.5644      53 -83.4713
 
 
 
 E-fermi :   6.0374     XC(G=0):  -9.3429     alpha+bet :-11.7594


 k-point     1 :       0.0000    0.0000    0.0000
  band No.  band energies     occupation 
      1      -6.2839      2.00000
      2      -4.9728      2.00000
      3      -4.9700      2.00000
      4      -4.9700      2.00000
      5      -4.9700      2.00000
      6      -4.9170      2.00000
      7      -4.9170      2.00000
      8      -4.9170      2.00000
      9      -4.7277      2.00000
     10      -4.4348      2.00000
     11      -4.4348      2.00000
     12      -4.3893      2.00000
     13      -4.3893      2.00000
     14      -4.3893      2.00000
     15      -3.9808      2.00000
     16      -3.0924      2.00000
     17      -3.0924      2.00000
     18      -3.0733      2.00000
     19      -3.0733      2.00000
     20      -3.0733      2.00000
     21      -3.0587      2.00000
     22      -3.0587      2.00000
     23      -3.0587      2.00000
     24      -2.9747      2.00000
     25      -2.9747      2.00000
     26      -2.9747      2.00000
     27      -2.0883      2.00000
     28      -1.1450      2.00000
     29      -1.1450      2.00000
     30      -1.1401      2.00000
     31      -1.1401      2.00000
     32      -1.1401      2.00000
     33      -1.1345      2.00000
     34      -1.1345      2.00000
     35      -1.1345      2.00000
     36      -1.0073      2.00000
     37      -1.0073      2.00000
     38      -1.0073      2.00000
     39      -0.2598      2.00000
     40       0.2936      2.00000
     41       0.3100      2.00000
     42       0.3100      2.00000
     43       0.3100      2.00000
     44       0.3915      2.00000
     45       0.3915      2.00000
     46       0.3915      2.00000
     47       0.4557      2.00000
     48       0.6242      2.00000
     49       0.6242      2.00000
     50       0.7101      2.00000
     51       0.7101      2.00000
     52       0.7101      2.00000
     53       1.1881      2.00000
     54       1.2034      2.00000
     55       1.2034      2.00000
     56       1.2034      2.00000
     57       1.2298      2.00000
     58       1.2298      2.00000
     59       1.2298      2.00000
     60       1.2755      2.00000
     61       1.2755      2.00000
     62       1.5701      2.00000
     63       1.5701      2.00000
     64       1.5701      2.00000
     65       3.2010      2.00000
     66       3.2010      2.00000
     67       3.2010      2.00000
     68       3.2192      2.00000
     69       3.2192      2.00000
     70       3.2192      2.00000
     71       3.2313      2.00000
     72       3.2313      2.00000
     73       3.2313      2.00000
     74       3.3351      2.00000
     75       3.3351      2.00000
     76       3.3351      2.00000
     77       3.5160      2.00000
     78       3.5160      2.00000
     79       3.5160      2.00000
     80       3.5174      2.00000
     81       3.5327      2.00000
     82       3.5327      2.00000
     83       3.5327      2.00000
     84       3.5342      2.00000
     85       3.5342      2.00000
     86       3.5621      2.00000
     87       3.9849      2.00000
     88       3.9849      2.00000
     89       3.9849      2.00000
     90       4.6096      2.00000
     91       4.6096      2.00000
     92       4.6128      2.00000
     93       4.6128      2.00000
     94       4.6128      2.00000
     95       4.6319      2.00000
     96       4.6319      2.00000
     97       4.6319      2.00000
     98       4.6503      2.00000
     99       4.6503      2.00000
    100       4.6503      2.00000
    101       4.6533      2.00000
    102       4.6533      2.00000
    103       5.4124      2.00000
    104       5.4124      2.00000
    105       5.4124      2.00000
    106       6.3282      0.00000
    107       6.3282      0.00000
    108       6.3282      0.00000
    109       6.3915      0.00000
    110       6.3915      0.00000
    111       6.4666      0.00000
    112       6.6498      0.00000
    113       6.6498      0.00000
    114       6.6498      0.00000
    115       7.1948      0.00000
    116       7.1948      0.00000
    117       7.1948      0.00000
    118       7.2106      0.00000
    119       7.2106      0.00000
    120       7.2106      0.00000
    121       7.2497      0.00000
    122       7.3024      0.00000
    123       7.3024      0.00000
    124       7.3024      0.00000
    125       7.3103      0.00000
    126       7.3103      0.00000
    127       7.4043      0.00000
    128       7.4130      0.00000
    129       7.4130      0.00000
    130       7.4130      0.00000
    131       7.5287      0.00000
    132       7.5287      0.00000
    133       7.5287      0.00000
    134       7.6018      0.00000
    135       7.7621      0.00000
    136       7.7621      0.00000
    137       7.8061      0.00000
    138       7.8061      0.00000
    139       7.8061      0.00000
    140       8.3491      0.00000
    141       8.3491      0.00000
    142       8.3491      0.00000
    143       8.6463      0.00000
    144       9.1309      0.00000

 k-point     2 :       0.2500    0.0000    0.0000
  band No.  band energies     occupation 
      1      -6.1953      2.00000
      2      -5.4964      2.00000
      3      -5.0693      2.00000
      4      -5.0693      2.00000
      5      -5.0132      2.00000
      6      -4.8012      2.00000
      7      -4.8012      2.00000
      8      -4.7345      2.00000
      9      -4.6493      2.00000
     10      -4.6493      2.00000
     11      -4.4668      2.00000
     12      -4.2467      2.00000
     13      -3.8793      2.00000
     14      -3.8793      2.00000
     15      -3.7406      2.00000
     16      -3.6534      2.00000
     17      -3.6534      2.00000
     18      -3.4572      2.00000
     19      -3.0725      2.00000
     20      -3.0725      2.00000
     21      -3.0537      2.00000
     22      -3.0149      2.00000
     23      -3.0149      2.00000
     24      -2.8252      2.00000
     25      -2.7712      2.00000
     26      -2.7712      2.00000
     27      -2.1001      2.00000
     28      -1.4110      2.00000
     29      -1.4110      2.00000
     30      -1.2658      2.00000
     31      -1.1764      2.00000
     32      -1.1764      2.00000
     33      -1.1723      2.00000
     34      -1.1017      2.00000
     35      -1.1017      2.00000
     36      -0.8615      2.00000
     37      -0.7343      2.00000
     38      -0.6241      2.00000
     39      -0.6241      2.00000
     40      -0.3367      2.00000
     41      -0.1444      2.00000
     42      -0.1444      2.00000
     43      -0.1080      2.00000
     44       0.0053      2.00000
     45       0.0053      2.00000
     46       0.6131      2.00000
     47       0.8234      2.00000
     48       0.8234      2.00000
     49       1.0261      2.00000
     50       1.2390      2.00000
     51       1.2390      2.00000
     52       1.3758      2.00000
     53       1.3778      2.00000
     54       1.4061      2.00000
     55       1.4061      2.00000
     56       1.4313      2.00000
     57       1.4313      2.00000
     58       1.4689      2.00000
     59       1.5957      2.00000
     60       1.5957      2.00000
     61       1.6553      2.00000
     62       1.7742      2.00000
     63       1.7742      2.00000
     64       1.8217      2.00000
     65       2.7589      2.00000
     66       2.7589      2.00000
     67       2.7878      2.00000
     68       3.0724      2.00000
     69       3.1120      2.00000
     70       3.1120      2.00000
     71       3.1854      2.00000
     72       3.2090      2.00000
     73       3.2133      2.00000
     74       3.2133      2.00000
     75       3.2208      2.00000
     76       3.2208      2.00000
     77       3.2361      2.00000
     78       3.2740      2.00000
     79       3.2740      2.00000
     80       3.3975      2.00000
     81       3.3975      2.00000
     82       3.4379      2.00000
     83       3.4994      2.00000
     84       3.6662      2.00000
     85       3.6662      2.00000
     86       3.7993      2.00000
     87       3.7993      2.00000
     88       3.9136      2.00000
     89       3.9544      2.00000
     90       4.0684      2.00000
     91       4.0684      2.00000
     92       4.1191      2.00000
     93       4.3156      2.00000
     94       4.3502      2.00000
     95       4.3502      2.00000
     96       4.4104      2.00000
     97       4.4104      2.00000
     98       4.5562      2.00000
     99       4.5562      2.00000
    100       4.6394      2.00000
    101       4.6784      2.00000
    102       4.8083      2.00000
    103       4.8083      2.00000
    104       5.3110      2.00000
    105       5.3110      2.00000
    106       5.9282      1.99799
    107       6.3595      0.00000
    108       6.3595      0.00000
    109       6.6185      0.00000
    110       6.6495      0.00000
    111       6.6495      0.00000
    112       6.8668      0.00000
    113       6.8668      0.00000
    114       6.9072      0.00000
    115       7.0162      0.00000
    116       7.0249      0.00000
    117       7.0249      0.00000
    118       7.3439      0.00000
    119       7.5360      0.00000
    120       7.5430      0.00000
    121       7.5430      0.00000
    122       7.6685      0.00000
    123       7.7152      0.00000
    124       7.7152      0.00000
    125       7.7644      0.00000
    126       7.7746      0.00000
    127       7.7908      0.00000
    128       7.7908      0.00000
    129       7.8529      0.00000
    130       7.8529      0.00000
    131       7.8995      0.00000
    132       7.9225      0.00000
    133       7.9292      0.00000
    134       7.9292      0.00000
    135       8.0731      0.00000
    136       8.0731      0.00000
    137       8.2940      0.00000
    138       8.4593      0.00000
    139       8.4593      0.00000
    140       8.4824      0.00000
    141       8.6072      0.00000
    142       8.6072      0.00000
    143       8.9499      0.00000
    144       8.9500      0.00000

 k-point     3 :       0.5000    0.0000    0.0000
  band No.  band energies     occupation 
      1      -5.9717      2.00000
      2      -5.8824      2.00000
      3      -5.0415      2.00000
      4      -5.0402      2.00000
      5      -5.0402      2.00000
      6      -4.9991      2.00000
      7      -4.9991      2.00000
      8      -4.7891      2.00000
      9      -4.2307      2.00000
     10      -4.2307      2.00000
     11      -4.1990      2.00000
     12      -4.1962      2.00000
     13      -4.1962      2.00000
     14      -4.0464      2.00000
     15      -3.8289      2.00000
     16      -3.2730      2.00000
     17      -3.2730      2.00000
     18      -3.2366      2.00000
     19      -3.2366      2.00000
     20      -3.2353      2.00000
     21      -3.0871      2.00000
     22      -3.0667      2.00000
     23      -3.0667      2.00000
     24      -3.0486      2.00000
     25      -2.9909      2.00000
     26      -2.9909      2.00000
     27      -2.1275      2.00000
     28      -1.2843      2.00000
     29      -1.2110      2.00000
     30      -1.2110      2.00000
     31      -1.2083      2.00000
     32      -1.1535      2.00000
     33      -1.1535      2.00000
     34      -1.0501      2.00000
     35      -0.9392      2.00000
     36      -0.9392      2.00000
     37      -0.8725      2.00000
     38      -0.8725      2.00000
     39      -0.8106      2.00000
     40      -0.5394      2.00000
     41      -0.3724      2.00000
     42      -0.3724      2.00000
     43      -0.3336      2.00000
     44      -0.2280      2.00000
     45      -0.2280      2.00000
     46       0.7259      2.00000
     47       1.1906      2.00000
     48       1.2064      2.00000
     49       1.2064      2.00000
     50       1.2850      2.00000
     51       1.2850      2.00000
     52       1.5721      2.00000
     53       1.6030      2.00000
     54       1.6423      2.00000
     55       1.6423      2.00000
     56       1.8031      2.00000
     57       1.8031      2.00000
     58       1.9896      2.00000
     59       2.0144      2.00000
     60       2.0144      2.00000
     61       2.0706      2.00000
     62       2.1538      2.00000
     63       2.1538      2.00000
     64       2.4414      2.00000
     65       2.5883      2.00000
     66       2.5883      2.00000
     67       2.6120      2.00000
     68       2.6120      2.00000
     69       2.6944      2.00000
     70       2.8729      2.00000
     71       2.8739      2.00000
     72       2.8739      2.00000
     73       2.9229      2.00000
     74       2.9229      2.00000
     75       3.0164      2.00000
     76       3.0624      2.00000
     77       3.0760      2.00000
     78       3.0760      2.00000
     79       3.0995      2.00000
     80       3.1629      2.00000
     81       3.3153      2.00000
     82       3.3153      2.00000
     83       3.4031      2.00000
     84       3.5041      2.00000
     85       3.6380      2.00000
     86       3.6380      2.00000
     87       3.6945      2.00000
     88       3.6945      2.00000
     89       3.8795      2.00000
     90       3.8963      2.00000
     91       3.9064      2.00000
     92       3.9064      2.00000
     93       4.0712      2.00000
     94       4.0712      2.00000
     95       4.3217      2.00000
     96       4.3346      2.00000
     97       4.3346      2.00000
     98       4.3497      2.00000
     99       4.4104      2.00000
    100       4.4104      2.00000
    101       4.4343      2.00000
    102       4.9098      2.00000
    103       4.9098      2.00000
    104       5.1886      2.00000
    105       5.1886      2.00000
    106       5.3340      2.00000
    107       6.3246      0.00000
    108       6.3246      0.00000
    109       6.6908      0.00000
    110       6.6908      0.00000
    111       6.7000      0.00000
    112       6.8605      0.00000
    113       6.9068      0.00000
    114       6.9068      0.00000
    115       7.2872      0.00000
    116       7.6055      0.00000
    117       7.6055      0.00000
    118       7.6377      0.00000
    119       7.6919      0.00000
    120       7.6919      0.00000
    121       7.7600      0.00000
    122       8.0067      0.00000
    123       8.0368      0.00000
    124       8.0929      0.00000
    125       8.0929      0.00000
    126       8.0977      0.00000
    127       8.2568      0.00000
    128       8.2568      0.00000
    129       8.3810      0.00000
    130       8.3929      0.00000
    131       8.3929      0.00000
    132       8.4315      0.00000
    133       8.4315      0.00000
    134       8.4572      0.00000
    135       8.8611      0.00000
    136       8.8611      0.00000
    137       8.9145      0.00000
    138       8.9145      0.00000
    139       8.9471      0.00000
    140       8.9765      0.00000
    141       9.0199      0.00000
    142       9.0199      0.00000
    143       9.0678      0.00000
    144       9.0686      0.00000

 k-point     4 :       0.2500    0.2500    0.0000
  band No.  band energies     occupation 
      1      -6.1656      2.00000
      2      -5.2910      2.00000
      3      -5.2613      2.00000
      4      -5.2613      2.00000
      5      -5.2565      2.00000
      6      -5.0424      2.00000
      7      -4.4682      2.00000
      8      -4.4468      2.00000
      9      -4.4468      2.00000
     10      -4.3929      2.00000
     11      -4.3365      2.00000
     12      -4.2895      2.00000
     13      -4.2895      2.00000
     14      -4.0113      2.00000
     15      -3.6084      2.00000
     16      -3.5649      2.00000
     17      -3.5649      2.00000
     18      -3.4946      2.00000
     19      -3.3511      2.00000
     20      -3.2711      2.00000
     21      -3.2711      2.00000
     22      -3.2511      2.00000
     23      -2.8509      2.00000
     24      -2.5428      2.00000
     25      -2.4975      2.00000
     26      -2.4975      2.00000
     27      -2.0666      2.00000
     28      -1.6257      2.00000
     29      -1.5755      2.00000
     30      -1.5755      2.00000
     31      -1.3834      2.00000
     32      -1.1269      2.00000
     33      -1.1269      2.00000
     34      -1.1090      2.00000
     35      -0.9473      2.00000
     36      -0.7361      2.00000
     37      -0.5863      2.00000
     38      -0.5483      2.00000
     39      -0.5483      2.00000
     40      -0.4682      2.00000
     41      -0.4041      2.00000
     42      -0.3647      2.00000
     43      -0.3647      2.00000
     44       0.1474      2.00000
     45       0.4473      2.00000
     46       0.5249      2.00000
     47       0.5249      2.00000
     48       1.0677      2.00000
     49       1.2370      2.00000
     50       1.2671      2.00000
     51       1.2671      2.00000
     52       1.3875      2.00000
     53       1.4219      2.00000
     54       1.4219      2.00000
     55       1.4225      2.00000
     56       1.5109      2.00000
     57       1.5821      2.00000
     58       1.5893      2.00000
     59       1.5893      2.00000
     60       1.7528      2.00000
     61       1.8142      2.00000
     62       1.8884      2.00000
     63       1.8884      2.00000
     64       2.0264      2.00000
     65       2.7930      2.00000
     66       2.8128      2.00000
     67       2.8168      2.00000
     68       2.8168      2.00000
     69       2.8694      2.00000
     70       2.8748      2.00000
     71       2.8748      2.00000
     72       2.9994      2.00000
     73       3.0200      2.00000
     74       3.0200      2.00000
     75       3.2305      2.00000
     76       3.2498      2.00000
     77       3.2872      2.00000
     78       3.2872      2.00000
     79       3.5681      2.00000
     80       3.5795      2.00000
     81       3.5795      2.00000
     82       3.6055      2.00000
     83       3.6087      2.00000
     84       3.6217      2.00000
     85       3.6867      2.00000
     86       3.6867      2.00000
     87       3.8909      2.00000
     88       3.8909      2.00000
     89       3.9220      2.00000
     90       3.9638      2.00000
     91       3.9887      2.00000
     92       3.9887      2.00000
     93       4.0696      2.00000
     94       4.1167      2.00000
     95       4.1177      2.00000
     96       4.1177      2.00000
     97       4.2244      2.00000
     98       4.2288      2.00000
     99       4.6270      2.00000
    100       4.6270      2.00000
    101       4.7612      2.00000
    102       4.9426      2.00000
    103       4.9580      2.00000
    104       5.1317      2.00000
    105       5.1317      2.00000
    106       5.9207      1.99904
    107       6.2999      0.00000
    108       6.2999      0.00000
    109       6.3553      0.00000
    110       6.7863      0.00000
    111       6.9025      0.00000
    112       7.0482      0.00000
    113       7.0960      0.00000
    114       7.1255      0.00000
    115       7.1255      0.00000
    116       7.3393      0.00000
    117       7.3393      0.00000
    118       7.4506      0.00000
    119       7.4610      0.00000
    120       7.4681      0.00000
    121       7.4888      0.00000
    122       7.4965      0.00000
    123       7.4965      0.00000
    124       7.8230      0.00000
    125       7.8248      0.00000
    126       7.8248      0.00000
    127       7.8905      0.00000
    128       8.0189      0.00000
    129       8.0836      0.00000
    130       8.0836      0.00000
    131       8.1250      0.00000
    132       8.1250      0.00000
    133       8.1334      0.00000
    134       8.1382      0.00000
    135       8.1848      0.00000
    136       8.2887      0.00000
    137       8.3057      0.00000
    138       8.3367      0.00000
    139       8.3367      0.00000
    140       8.7907      0.00000
    141       8.8294      0.00000
    142       8.8294      0.00000
    143       8.9706      0.00000
    144       8.9757      0.00000

 k-point     5 :       0.5000    0.2500    0.0000
  band No.  band energies     occupation 
      1      -5.9644      2.00000
      2      -5.7227      2.00000
      3      -5.4823      2.00000
      4      -5.2814      2.00000
      5      -5.1940      2.00000
      6      -4.7963      2.00000
      7      -4.5953      2.00000
      8      -4.5472      2.00000
      9      -4.3701      2.00000
     10      -4.1990      2.00000
     11      -4.1513      2.00000
     12      -4.0840      2.00000
     13      -4.0120      2.00000
     14      -3.8900      2.00000
     15      -3.7112      2.00000
     16      -3.6978      2.00000
     17      -3.6403      2.00000
     18      -3.5411      2.00000
     19      -3.4730      2.00000
     20      -3.4364      2.00000
     21      -3.3956      2.00000
     22      -2.9833      2.00000
     23      -2.7461      2.00000
     24      -2.6797      2.00000
     25      -2.6069      2.00000
     26      -2.5554      2.00000
     27      -2.0793      2.00000
     28      -1.5299      2.00000
     29      -1.5222      2.00000
     30      -1.4670      2.00000
     31      -1.4651      2.00000
     32      -1.2798      2.00000
     33      -1.1377      2.00000
     34      -1.0575      2.00000
     35      -1.0470      2.00000
     36      -0.9454      2.00000
     37      -0.7739      2.00000
     38      -0.7023      2.00000
     39      -0.6630      2.00000
     40      -0.6487      2.00000
     41      -0.4651      2.00000
     42      -0.3606      2.00000
     43      -0.1151      2.00000
     44       0.0295      2.00000
     45       0.0386      2.00000
     46       0.4935      2.00000
     47       0.7194      2.00000
     48       0.8181      2.00000
     49       1.4228      2.00000
     50       1.5791      2.00000
     51       1.6205      2.00000
     52       1.6867      2.00000
     53       1.7556      2.00000
     54       1.8015      2.00000
     55       1.9320      2.00000
     56       1.9336      2.00000
     57       2.0366      2.00000
     58       2.1214      2.00000
     59       2.1295      2.00000
     60       2.1988      2.00000
     61       2.2018      2.00000
     62       2.2593      2.00000
     63       2.2897      2.00000
     64       2.3710      2.00000
     65       2.3948      2.00000
     66       2.4298      2.00000
     67       2.5034      2.00000
     68       2.6452      2.00000
     69       2.6850      2.00000
     70       2.6932      2.00000
     71       2.7306      2.00000
     72       2.7803      2.00000
     73       2.7837      2.00000
     74       2.8741      2.00000
     75       2.9172      2.00000
     76       3.0128      2.00000
     77       3.0143      2.00000
     78       3.0459      2.00000
     79       3.1315      2.00000
     80       3.1511      2.00000
     81       3.1641      2.00000
     82       3.3691      2.00000
     83       3.4612      2.00000
     84       3.4883      2.00000
     85       3.5362      2.00000
     86       3.5687      2.00000
     87       3.6080      2.00000
     88       3.6773      2.00000
     89       3.7553      2.00000
     90       3.8747      2.00000
     91       3.8780      2.00000
     92       3.9904      2.00000
     93       3.9983      2.00000
     94       4.0270      2.00000
     95       4.0577      2.00000
     96       4.0961      2.00000
     97       4.2044      2.00000
     98       4.2061      2.00000
     99       4.3295      2.00000
    100       4.5295      2.00000
    101       4.6282      2.00000
    102       4.6568      2.00000
    103       4.7835      2.00000
    104       4.8859      2.00000
    105       5.1423      2.00000
    106       5.4501      2.00000
    107       6.1251      0.01311
    108       6.2793      0.00000
    109       6.5069      0.00000
    110       7.0502      0.00000
    111       7.2016      0.00000
    112       7.2035      0.00000
    113       7.2202      0.00000
    114       7.4178      0.00000
    115       7.4546      0.00000
    116       7.4811      0.00000
    117       7.6927      0.00000
    118       7.7514      0.00000
    119       7.8312      0.00000
    120       7.8580      0.00000
    121       7.9151      0.00000
    122       8.0168      0.00000
    123       8.0806      0.00000
    124       8.1213      0.00000
    125       8.2478      0.00000
    126       8.2779      0.00000
    127       8.2990      0.00000
    128       8.3517      0.00000
    129       8.3738      0.00000
    130       8.4037      0.00000
    131       8.5086      0.00000
    132       8.6122      0.00000
    133       8.6394      0.00000
    134       8.6453      0.00000
    135       8.6680      0.00000
    136       8.7193      0.00000
    137       8.7690      0.00000
    138       8.8302      0.00000
    139       8.8506      0.00000
    140       8.8966      0.00000
    141       8.9080      0.00000
    142       8.9365      0.00000
    143       8.9817      0.00000
    144       8.9900      0.00000

 k-point     6 :      -0.2500    0.2500    0.0000
  band No.  band energies     occupation 
      1      -6.0497      2.00000
      2      -5.6159      2.00000
      3      -5.5312      2.00000
      4      -5.1273      2.00000
      5      -5.0601      2.00000
      6      -4.7334      2.00000
      7      -4.7126      2.00000
      8      -4.6772      2.00000
      9      -4.5603      2.00000
     10      -4.2606      2.00000
     11      -4.2021      2.00000
     12      -4.1800      2.00000
     13      -4.0741      2.00000
     14      -3.9220      2.00000
     15      -3.6307      2.00000
     16      -3.5934      2.00000
     17      -3.5885      2.00000
     18      -3.4458      2.00000
     19      -3.3098      2.00000
     20      -3.2291      2.00000
     21      -3.1463      2.00000
     22      -3.0945      2.00000
     23      -3.0834      2.00000
     24      -2.8721      2.00000
     25      -2.7866      2.00000
     26      -2.4380      2.00000
     27      -2.0922      2.00000
     28      -1.7792      2.00000
     29      -1.2749      2.00000
     30      -1.1985      2.00000
     31      -1.1136      2.00000
     32      -1.1051      2.00000
     33      -1.0753      2.00000
     34      -1.0574      2.00000
     35      -0.9810      2.00000
     36      -0.9197      2.00000
     37      -0.9154      2.00000
     38      -0.8925      2.00000
     39      -0.8852      2.00000
     40      -0.7487      2.00000
     41      -0.7336      2.00000
     42      -0.1337      2.00000
     43       0.1668      2.00000
     44       0.2490      2.00000
     45       0.2989      2.00000
     46       0.3721      2.00000
     47       0.4568      2.00000
     48       0.4866      2.00000
     49       1.3787      2.00000
     50       1.4695      2.00000
     51       1.5022      2.00000
     52       1.6902      2.00000
     53       1.6954      2.00000
     54       1.7071      2.00000
     55       1.7332      2.00000
     56       1.8252      2.00000
     57       1.8818      2.00000
     58       1.9144      2.00000
     59       2.0397      2.00000
     60       2.0705      2.00000
     61       2.1151      2.00000
     62       2.1394      2.00000
     63       2.1399      2.00000
     64       2.2784      2.00000
     65       2.5244      2.00000
     66       2.5609      2.00000
     67       2.5739      2.00000
     68       2.6107      2.00000
     69       2.6367      2.00000
     70       2.7285      2.00000
     71       2.7521      2.00000
     72       2.7992      2.00000
     73       2.9956      2.00000
     74       3.0191      2.00000
     75       3.0372      2.00000
     76       3.0970      2.00000
     77       3.1216      2.00000
     78       3.1948      2.00000
     79       3.2199      2.00000
     80       3.2221      2.00000
     81       3.3423      2.00000
     82       3.3592      2.00000
     83       3.3859      2.00000
     84       3.5574      2.00000
     85       3.5710      2.00000
     86       3.6436      2.00000
     87       3.6701      2.00000
     88       3.7059      2.00000
     89       3.7956      2.00000
     90       3.7987      2.00000
     91       3.9230      2.00000
     92       4.0153      2.00000
     93       4.0194      2.00000
     94       4.2670      2.00000
     95       4.3155      2.00000
     96       4.3245      2.00000
     97       4.3612      2.00000
     98       4.3973      2.00000
     99       4.4587      2.00000
    100       4.4713      2.00000
    101       4.5444      2.00000
    102       4.5692      2.00000
    103       4.6220      2.00000
    104       4.7552      2.00000
    105       5.2868      2.00000
    106       5.6155      2.00000
    107       6.0916      0.12575
    108       6.3666      0.00000
    109       6.6421      0.00000
    110       6.9475      0.00000
    111       6.9721      0.00000
    112       7.0903      0.00000
    113       7.2247      0.00000
    114       7.3888      0.00000
    115       7.3901      0.00000
    116       7.4463      0.00000
    117       7.4725      0.00000
    118       7.5958      0.00000
    119       7.6085      0.00000
    120       7.6341      0.00000
    121       7.6519      0.00000
    122       7.8018      0.00000
    123       7.8457      0.00000
    124       8.0862      0.00000
    125       8.1005      0.00000
    126       8.2449      0.00000
    127       8.2644      0.00000
    128       8.2781      0.00000
    129       8.2852      0.00000
    130       8.2899      0.00000
    131       8.3099      0.00000
    132       8.3639      0.00000
    133       8.3660      0.00000
    134       8.4013      0.00000
    135       8.5520      0.00000
    136       8.6575      0.00000
    137       8.6753      0.00000
    138       8.8594      0.00000
    139       8.8847      0.00000
    140       8.9038      0.00000
    141       8.9098      0.00000
    142       8.9667      0.00000
    143       8.9801      0.00000
    144       9.0367      0.00000

 k-point     7 :       0.5000    0.5000    0.0000
  band No.  band energies     occupation 
      1      -5.8480      2.00000
      2      -5.7760      2.00000
      3      -5.3959      2.00000
      4      -5.3691      2.00000
      5      -5.3691      2.00000
      6      -5.1616      2.00000
      7      -4.0682      2.00000
      8      -4.0511      2.00000
      9      -4.0511      2.00000
     10      -4.0332      2.00000
     11      -4.0320      2.00000
     12      -3.9774      2.00000
     13      -3.9774      2.00000
     14      -3.9696      2.00000
     15      -3.8542      2.00000
     16      -3.8524      2.00000
     17      -3.8486      2.00000
     18      -3.8486      2.00000
     19      -3.7932      2.00000
     20      -3.7932      2.00000
     21      -3.7450      2.00000
     22      -2.9772      2.00000
     23      -2.1662      2.00000
     24      -2.1661      2.00000
     25      -2.0809      2.00000
     26      -2.0725      2.00000
     27      -2.0725      2.00000
     28      -2.0601      2.00000
     29      -1.9903      2.00000
     30      -1.9728      2.00000
     31      -1.9728      2.00000
     32      -1.3889      2.00000
     33      -0.9832      2.00000
     34      -0.9811      2.00000
     35      -0.9811      2.00000
     36      -0.9525      2.00000
     37      -0.8459      2.00000
     38      -0.8459      2.00000
     39      -0.8361      2.00000
     40      -0.4794      2.00000
     41      -0.0236      2.00000
     42      -0.0236      2.00000
     43      -0.0129      2.00000
     44      -0.0123      2.00000
     45       0.0223      2.00000
     46       0.1582      2.00000
     47       0.1582      2.00000
     48       1.4004      2.00000
     49       1.9117      2.00000
     50       1.9326      2.00000
     51       1.9326      2.00000
     52       1.9789      2.00000
     53       1.9919      2.00000
     54       1.9989      2.00000
     55       1.9989      2.00000
     56       2.0126      2.00000
     57       2.0151      2.00000
     58       2.0169      2.00000
     59       2.0169      2.00000
     60       2.0529      2.00000
     61       2.0751      2.00000
     62       2.0775      2.00000
     63       2.0775      2.00000
     64       2.1036      2.00000
     65       2.3316      2.00000
     66       2.3316      2.00000
     67       2.3538      2.00000
     68       2.5713      2.00000
     69       2.8047      2.00000
     70       2.8047      2.00000
     71       2.8583      2.00000
     72       2.8678      2.00000
     73       2.8678      2.00000
     74       2.8802      2.00000
     75       2.9851      2.00000
     76       2.9851      2.00000
     77       3.0070      2.00000
     78       3.1424      2.00000
     79       3.2548      2.00000
     80       3.2587      2.00000
     81       3.2587      2.00000
     82       3.3249      2.00000
     83       3.3328      2.00000
     84       3.3328      2.00000
     85       3.3343      2.00000
     86       3.3810      2.00000
     87       3.4370      2.00000
     88       3.5326      2.00000
     89       3.5326      2.00000
     90       3.5420      2.00000
     91       3.8352      2.00000
     92       3.8361      2.00000
     93       3.8548      2.00000
     94       3.8548      2.00000
     95       3.8726      2.00000
     96       3.8919      2.00000
     97       4.2138      2.00000
     98       4.2138      2.00000
     99       4.4603      2.00000
    100       4.4603      2.00000
    101       4.7415      2.00000
    102       4.7965      2.00000
    103       4.7965      2.00000
    104       5.0589      2.00000
    105       5.0799      2.00000
    106       5.1460      2.00000
    107       6.2158      0.00000
    108       6.2158      0.00000
    109       6.4177      0.00000
    110       6.4473      0.00000
    111       7.3539      0.00000
    112       7.4127      0.00000
    113       7.6764      0.00000
    114       7.6793      0.00000
    115       7.6793      0.00000
    116       7.6844      0.00000
    117       7.6993      0.00000
    118       7.6993      0.00000
    119       8.0453      0.00000
    120       8.0730      0.00000
    121       8.3904      0.00000
    122       8.4053      0.00000
    123       8.4137      0.00000
    124       8.4137      0.00000
    125       8.4139      0.00000
    126       8.4210      0.00000
    127       8.4227      0.00000
    128       8.4227      0.00000
    129       8.4935      0.00000
    130       8.5827      0.00000
    131       8.5849      0.00000
    132       8.6016      0.00000
    133       8.6016      0.00000
    134       8.6219      0.00000
    135       8.6583      0.00000
    136       8.6583      0.00000
    137       8.6820      0.00000
    138       8.6820      0.00000
    139       9.0194      0.00000
    140       9.1141      0.00000
    141       9.2003      0.00000
    142       9.2034      0.00000
    143       9.2803      0.00000
    144       9.2812      0.00000

 k-point     8 :      -0.2500    0.5000    0.2500
  band No.  band energies     occupation 
      1      -5.7425      2.00000
      2      -5.7320      2.00000
      3      -5.7190      2.00000
      4      -5.5436      2.00000
      5      -4.8188      2.00000
      6      -4.8098      2.00000
      7      -4.7731      2.00000
      8      -4.6460      2.00000
      9      -3.9976      2.00000
     10      -3.9952      2.00000
     11      -3.9944      2.00000
     12      -3.9931      2.00000
     13      -3.9542      2.00000
     14      -3.9334      2.00000
     15      -3.8948      2.00000
     16      -3.8543      2.00000
     17      -3.7636      2.00000
     18      -3.7420      2.00000
     19      -3.6994      2.00000
     20      -3.3658      2.00000
     21      -3.1079      2.00000
     22      -3.1014      2.00000
     23      -3.0153      2.00000
     24      -2.6510      2.00000
     25      -2.1501      2.00000
     26      -2.1444      2.00000
     27      -2.0719      2.00000
     28      -2.0591      2.00000
     29      -1.9535      2.00000
     30      -1.6148      2.00000
     31      -1.1819      2.00000
     32      -1.1759      2.00000
     33      -1.1574      2.00000
     34      -1.1568      2.00000
     35      -1.0081      2.00000
     36      -0.9665      2.00000
     37      -0.9117      2.00000
     38      -0.6936      2.00000
     39      -0.4050      2.00000
     40      -0.4028      2.00000
     41      -0.3875      2.00000
     42      -0.3736      2.00000
     43      -0.3230      2.00000
     44      -0.2389      2.00000
     45      -0.2235      2.00000
     46       0.6091      2.00000
     47       0.9443      2.00000
     48       1.0293      2.00000
     49       1.0307      2.00000
     50       1.8186      2.00000
     51       1.8226      2.00000
     52       1.8248      2.00000
     53       1.8595      2.00000
     54       1.8892      2.00000
     55       2.0040      2.00000
     56       2.0671      2.00000
     57       2.3970      2.00000
     58       2.4046      2.00000
     59       2.4135      2.00000
     60       2.4143      2.00000
     61       2.4351      2.00000
     62       2.4401      2.00000
     63       2.4561      2.00000
     64       2.4586      2.00000
     65       2.4748      2.00000
     66       2.4802      2.00000
     67       2.4813      2.00000
     68       2.4970      2.00000
     69       2.5087      2.00000
     70       2.5405      2.00000
     71       2.5464      2.00000
     72       2.5591      2.00000
     73       2.6061      2.00000
     74       2.6602      2.00000
     75       2.7856      2.00000
     76       2.8118      2.00000
     77       2.9461      2.00000
     78       2.9958      2.00000
     79       3.0023      2.00000
     80       3.0278      2.00000
     81       3.1067      2.00000
     82       3.1294      2.00000
     83       3.3423      2.00000
     84       3.4877      2.00000
     85       3.4979      2.00000
     86       3.5072      2.00000
     87       3.5249      2.00000
     88       3.5408      2.00000
     89       3.6710      2.00000
     90       3.7255      2.00000
     91       3.8994      2.00000
     92       3.9523      2.00000
     93       3.9780      2.00000
     94       3.9808      2.00000
     95       4.0005      2.00000
     96       4.0060      2.00000
     97       4.2306      2.00000
     98       4.2415      2.00000
     99       4.2700      2.00000
    100       4.3200      2.00000
    101       4.6285      2.00000
    102       4.6766      2.00000
    103       4.7499      2.00000
    104       4.8153      2.00000
    105       5.0593      2.00000
    106       5.3235      2.00000
    107       6.1163      0.02569
    108       6.1322      0.00735
    109       7.0209      0.00000
    110       7.0294      0.00000
    111       7.0578      0.00000
    112       7.0594      0.00000
    113       7.8782      0.00000
    114       7.8793      0.00000
    115       7.8829      0.00000
    116       7.8869      0.00000
    117       7.9175      0.00000
    118       7.9332      0.00000
    119       7.9431      0.00000
    120       7.9456      0.00000
    121       8.0415      0.00000
    122       8.0866      0.00000
    123       8.0995      0.00000
    124       8.1229      0.00000
    125       8.2500      0.00000
    126       8.3090      0.00000
    127       8.3163      0.00000
    128       8.3689      0.00000
    129       8.3859      0.00000
    130       8.4347      0.00000
    131       8.4974      0.00000
    132       8.5253      0.00000
    133       8.7202      0.00000
    134       8.7472      0.00000
    135       8.7675      0.00000
    136       8.7740      0.00000
    137       8.7833      0.00000
    138       8.7901      0.00000
    139       8.8321      0.00000
    140       8.8649      0.00000
    141       8.8818      0.00000
    142       8.9569      0.00000
    143       8.9591      0.00000
    144       9.0420      0.00000


--------------------------------------------------------------------------------------------------------


 soft charge-density along one line, spin component           1
         0         1         2         3         4         5         6         7         8         9
 total charge-density along one line
 
 pseudopotential strength for first ion, spin component:           1
 18.439  25.726  -0.000   0.001  -0.000  -0.001   0.002  -0.001
 25.726  35.897  -0.000   0.001  -0.001  -0.001   0.003  -0.001
 -0.000  -0.000   4.182   0.000  -0.000   7.792   0.000  -0.000
  0.001   0.001   0.000   4.182   0.000   0.000   7.793   0.000
 -0.000  -0.001  -0.000   0.000   4.181  -0.000   0.000   7.792
 -0.001  -0.001   7.792   0.000  -0.000  14.531   0.000  -0.000
  0.002   0.003   0.000   7.793   0.000   0.000  14.533   0.000
 -0.001  -0.001  -0.000   0.000   7.792  -0.000   0.000  14.531
 total augmentation occupancy for first ion, spin component:           1
  5.665  -2.145  -0.002   0.026  -0.002  -0.001  -0.007  -0.002
 -2.145   0.936   0.006  -0.013   0.009   0.000   0.003   0.000
 -0.002   0.006   2.976  -0.001   0.006  -0.669  -0.001  -0.001
  0.026  -0.013  -0.001   2.897  -0.001  -0.001  -0.659  -0.002
 -0.002   0.009   0.006  -0.001   2.981  -0.001  -0.002  -0.669
 -0.001   0.000  -0.669  -0.001  -0.001   0.159   0.000   0.000
 -0.007   0.003  -0.001  -0.659  -0.002   0.000   0.158   0.001
 -0.002   0.000  -0.001  -0.002  -0.669   0.000   0.001   0.159


------------------------ aborting loop because EDIFF is reached ----------------------------------------


 


 total charge     
 
# of ion       s       p       d       tot
------------------------------------------
    1        0.755   0.911   0.000   1.666
    2        0.755   0.911   0.000   1.666
    3        0.754   0.932   0.000   1.686
    4        0.751   0.943   0.000   1.694
    5        0.754   0.930   0.000   1.684
    6        0.754   0.931   0.000   1.685
    7        0.754   0.929   0.000   1.683
    8        0.751   0.940   0.000   1.691
    9        0.756   0.945   0.000   1.700
   10        0.751   0.943   0.000   1.694
   11        0.755   0.947   0.000   1.703
   12        0.752   0.942   0.000   1.694
   13        0.752   0.942   0.000   1.694
   14        0.751   0.942   0.000   1.693
[...]
   43        0.760   0.911   0.000   1.670
   44        0.760   0.909   0.000   1.669
   45        0.752   0.941   0.000   1.693
   46        0.752   0.942   0.000   1.694
   47        0.751   0.940   0.000   1.691
   48        0.752   0.940   0.000   1.692
   49        0.762   0.924   0.000   1.685
   50        0.762   0.925   0.000   1.687
   51        0.751   0.939   0.000   1.690
   52        0.762   0.914   0.000   1.676
   53        0.751   0.939   0.000   1.690
--------------------------------------------------
tot         40.113  49.029   0.000  89.142
 
    CHARGE:  cpu time    0.1630: real time    0.1641
    FORLOC:  cpu time    0.0312: real time    0.0314
    FORNL :  cpu time    1.5220: real time    1.5332
    STRESS:  cpu time    5.4137: real time    5.4602
    FORCOR:  cpu time    0.0976: real time    0.0982
    FORHAR:  cpu time    0.0439: real time    0.0441
    MIXING:  cpu time    0.0098: real time    0.0098
    OFIELD:  cpu time    0.0001: real time    0.0001

  FORCE on cell =-STRESS in cart. coord.  units (eV):
  Direction    XX          YY          ZZ          XY          YZ          ZX
  --------------------------------------------------------------------------------------
  Alpha Z    87.47481    87.47481    87.47481
  Ewald   -2000.18249 -2000.18249 -2000.18249    -0.00000    -0.00000    -0.00000
  Hartree   137.89351   137.89351   137.89351    -0.00000    -0.00000    -0.00000
  E(xc)    -669.06627  -669.06627  -669.06629    -0.00001    -0.00001    -0.00002
  Local    -791.81920  -791.81930  -791.81880     0.00014     0.00025     0.00035
  n-local  2048.36687  2061.14454  2072.28943    -2.16926    -0.78002     0.55158
  augment  -310.55573  -310.55563  -310.55611    -0.00014    -0.00023    -0.00033
  Kinetic  1476.72382  1491.53945  1506.15189    -1.91956    -0.88485     0.62567
  Fock        0.00000     0.00000     0.00000     0.00000     0.00000     0.00000
  -------------------------------------------------------------------------------------
  Total       5.81663     5.81663     5.81663     0.00000    -0.00000    -0.00000
  in kB       8.62103     8.62103     8.62103     0.00000    -0.00000    -0.00000
  external pressure =        8.62 kB  Pullay stress =        0.00 kB


 VOLUME and BASIS-vectors are now :
 -----------------------------------------------------------------------------
  energy-cutoff  :      550.00
  volume of cell :     1080.99
      direct lattice vectors                 reciprocal lattice vectors
     9.976465530  0.000000000  5.759915070     0.100235900 -0.035438742  0.000000000
     3.325488510  9.405901920  5.759915070     0.000000000  0.106316227  0.000000000
     0.000000000  0.000000000 11.519830140    -0.050117950 -0.035438742  0.086806836

  length of vectors
    11.519830124 11.519830136 11.519830140     0.106316227  0.106316227  0.106316227


 FORCES acting on ions
    electron-ion (+dipol)            ewald-force                    non-local-force                 convergence-correction
 -----------------------------------------------------------------------------------------------
   -.263E+01 -.186E+01 0.727E+01   0.242E+01 0.171E+01 -.746E+01   0.225E+00 0.159E+00 0.177E+00   -.168E-02 -.119E-02 0.111E-02
   -.263E+01 -.186E+01 -.727E+01   0.242E+01 0.171E+01 0.746E+01   0.225E+00 0.159E+00 -.177E+00   -.168E-02 -.119E-02 -.111E-02
   0.782E+00 0.779E+01 0.135E+01   -.945E+00 -.780E+01 -.164E+01   0.163E+00 -.146E-01 0.283E+00   -.522E-03 0.209E-02 -.904E-03
   -.607E+00 0.215E+00 0.171E-05   0.663E+00 -.235E+00 0.220E-11   -.523E-01 0.185E-01 -.278E-16   -.445E-03 0.157E-03 -.287E-09
   0.782E+00 0.779E+01 -.135E+01   -.945E+00 -.780E+01 0.164E+01   0.163E+00 -.146E-01 -.283E+00   -.522E-03 0.209E-02 0.904E-03
   -.341E+01 -.407E+01 -.591E+01   0.336E+01 0.438E+01 0.582E+01   0.613E-01 -.303E+00 0.106E+00   -.116E-02 0.287E-03 -.201E-02
   -.341E+01 -.407E+01 0.591E+01   0.336E+01 0.438E+01 -.582E+01   0.613E-01 -.303E+00 -.106E+00   -.116E-02 0.287E-03 0.201E-02
   -.959E-01 0.339E-01 -.274E-07   0.423E-01 -.150E-01 0.315E-11   0.348E-01 -.123E-01 0.104E-16   0.285E-02 -.101E-02 -.774E-08
   0.761E+01 -.186E+01 0.135E+01   -.767E+01 0.171E+01 -.164E+01   0.406E-01 0.159E+00 0.283E+00   0.180E-02 -.119E-02 -.904E-03
   0.895E-06 -.644E+00 0.171E-05   0.132E-06 0.704E+00 0.220E-11   -.260E-17 -.555E-01 0.000E+00   -.155E-09 -.472E-03 -.287E-09
   0.761E+01 -.186E+01 -.135E+01   -.767E+01 0.171E+01 0.164E+01   0.406E-01 0.159E+00 -.283E+00   0.180E-02 -.119E-02 0.904E-03
   0.304E+00 0.215E+00 -.526E+00   -.332E+00 -.235E+00 0.575E+00   0.262E-01 0.185E-01 -.453E-01   0.223E-03 0.157E-03 -.386E-03
   0.304E+00 0.215E+00 0.526E+00   -.332E+00 -.235E+00 -.575E+00   0.262E-01 0.185E-01 0.453E-01   0.223E-03 0.157E-03 0.386E-03
   0.251E+01 0.177E+01 0.315E-06   -.255E+01 -.180E+01 0.262E-11   0.636E-01 0.450E-01 0.312E-16   -.254E-02 -.179E-02 0.177E-08
   0.683E+01 -.407E+01 -.159E-05   -.672E+01 0.438E+01 -.259E-11   -.123E+00 -.303E+00 -.173E-16   0.232E-02 0.287E-03 0.475E-08
   0.125E+01 -.177E+01 0.217E+01   -.128E+01 0.180E+01 -.221E+01   0.318E-01 -.450E-01 0.551E-01   -.127E-02 0.179E-02 -.220E-02
   0.125E+01 -.177E+01 -.217E+01   -.128E+01 0.180E+01 0.221E+01   0.318E-01 -.450E-01 -.551E-01   -.127E-02 0.179E-02 0.220E-02
   -.498E+01 -.186E+01 -.591E+01   0.525E+01 0.171E+01 0.582E+01   -.265E+00 0.159E+00 0.106E+00   -.117E-03 -.119E-02 -.201E-02
   -.498E+01 -.186E+01 0.591E+01   0.525E+01 0.171E+01 -.582E+01   -.265E+00 0.159E+00 -.106E+00   -.117E-03 -.119E-02 0.201E-02
   -.755E-07 -.102E+00 -.274E-07   0.110E-06 0.449E-01 0.313E-11   0.434E-17 0.369E-01 0.347E-17   -.448E-08 0.302E-02 -.774E-08
   -.156E+01 0.779E+01 -.159E-05   0.189E+01 -.780E+01 -.261E-11   -.326E+00 -.146E-01 0.234E-16   0.104E-02 0.209E-02 0.475E-08
   -.125E+01 0.177E+01 0.217E+01   0.128E+01 -.180E+01 -.221E+01   -.318E-01 0.450E-01 0.551E-01   0.127E-02 -.179E-02 -.220E-02
   -.125E+01 0.177E+01 -.217E+01   0.128E+01 -.180E+01 0.221E+01   -.318E-01 0.450E-01 -.551E-01   0.127E-02 -.179E-02 0.220E-02
   0.479E-01 0.339E-01 -.831E-01   -.212E-01 -.150E-01 0.367E-01   -.174E-01 -.123E-01 0.302E-01   -.142E-02 -.101E-02 0.247E-02
   -.251E+01 -.177E+01 0.111E-05   0.255E+01 0.180E+01 0.632E-11   -.636E-01 -.450E-01 0.173E-16   0.254E-02 0.179E-02 0.209E-07
   0.479E-01 0.339E-01 0.831E-01   -.212E-01 -.150E-01 -.367E-01   -.174E-01 -.123E-01 -.302E-01   -.142E-02 -.101E-02 -.247E-02
   0.423E-06 0.203E-06 0.602E-06   -.128E-06 0.679E-07 0.670E-11   0.139E-16 0.208E-16 0.555E-16   -.521E-08 -.369E-08 -.903E-08
   -.328E+01 -.232E+01 -.158E+01   0.344E+01 0.243E+01 0.161E+01   -.143E+00 -.101E+00 -.280E-01   -.259E-02 -.183E-02 -.240E-03
   -.328E+01 -.232E+01 0.158E+01   0.344E+01 0.243E+01 -.161E+01   -.143E+00 -.101E+00 0.280E-01   -.259E-02 -.183E-02 0.240E-03
   -.210E+01 0.103E+01 -.363E+01   0.218E+01 -.112E+01 0.378E+01   -.793E-01 0.780E-01 -.137E+00   -.136E-02 0.163E-02 -.236E-02
   -.335E+02 0.118E+02 0.716E-06   0.313E+02 -.111E+02 0.384E-11   0.220E+01 -.777E+00 -.416E-16   0.389E-02 -.138E-02 -.902E-08
   -.210E+01 0.103E+01 0.363E+01   0.218E+01 -.112E+01 -.378E+01   -.793E-01 0.780E-01 0.137E+00   -.136E-02 0.163E-02 0.236E-02
   -.119E+01 0.361E+01 -.205E+01   0.125E+01 -.374E+01 0.217E+01   -.632E-01 0.124E+00 -.109E+00   -.122E-02 0.202E-02 -.212E-02
   -.119E+01 0.361E+01 0.205E+01   0.125E+01 -.374E+01 -.217E+01   -.632E-01 0.124E+00 0.109E+00   -.122E-02 0.202E-02 0.212E-02
   -.147E+01 0.520E+00 -.449E-06   0.139E+01 -.491E+00 0.160E-11   0.496E-01 -.175E-01 0.173E-17   0.335E-02 -.118E-02 0.221E-07
   0.274E+00 -.232E+01 -.363E+01   -.327E+00 0.243E+01 0.378E+01   0.471E-01 -.101E+00 -.137E+00   0.109E-02 -.183E-02 -.236E-02
   0.460E-06 -.355E+02 0.716E-06   -.108E-06 0.332E+02 0.388E-11   -.971E-16 0.233E+01 -.694E-16   -.522E-08 0.413E-02 -.902E-08
   0.274E+00 -.232E+01 0.363E+01   -.327E+00 0.243E+01 -.378E+01   0.471E-01 -.101E+00 0.137E+00   0.109E-02 -.183E-02 0.236E-02
   0.167E+02 0.118E+02 -.290E+02   -.156E+02 -.111E+02 0.271E+02   -.110E+01 -.777E+00 0.190E+01   -.195E-02 -.138E-02 0.337E-02
   0.167E+02 0.118E+02 0.290E+02   -.156E+02 -.111E+02 -.271E+02   -.110E+01 -.777E+00 -.190E+01   -.195E-02 -.138E-02 -.337E-02
   0.203E+01 0.144E+01 -.906E-06   -.172E+01 -.121E+01 -.450E-11   -.330E+00 -.233E+00 -.416E-16   0.125E-02 0.883E-03 -.270E-07
   0.237E+01 0.361E+01 0.114E-05   -.251E+01 -.374E+01 0.391E-11   0.126E+00 0.124E+00 0.694E-17   0.245E-02 0.202E-02 -.307E-09
   0.102E+01 -.144E+01 0.176E+01   -.858E+00 0.121E+01 -.149E+01   -.165E+00 0.233E+00 -.285E+00   0.625E-03 -.883E-03 0.108E-02
   0.102E+01 -.144E+01 -.176E+01   -.858E+00 0.121E+01 0.149E+01   -.165E+00 0.233E+00 0.285E+00   0.625E-03 -.883E-03 -.108E-02
   0.301E+01 -.232E+01 -.205E+01   -.311E+01 0.243E+01 0.217E+01   0.955E-01 -.101E+00 -.109E+00   0.150E-02 -.183E-02 -.212E-02
   0.301E+01 -.232E+01 0.205E+01   -.311E+01 0.243E+01 -.217E+01   0.955E-01 -.101E+00 0.109E+00   0.150E-02 -.183E-02 0.212E-02
   -.193E-06 -.156E+01 -.449E-06   -.111E-06 0.147E+01 0.163E-11   0.121E-16 0.526E-01 0.226E-16   0.128E-07 0.355E-02 0.221E-07
   0.419E+01 0.103E+01 0.114E-05   -.436E+01 -.112E+01 0.388E-11   0.159E+00 0.780E-01 0.295E-16   0.272E-02 0.163E-02 -.306E-09
   -.102E+01 0.144E+01 0.176E+01   0.858E+00 -.121E+01 -.149E+01   0.165E+00 -.233E+00 -.285E+00   -.625E-03 0.883E-03 0.108E-02
   -.102E+01 0.144E+01 -.176E+01   0.858E+00 -.121E+01 0.149E+01   0.165E+00 -.233E+00 0.285E+00   -.625E-03 0.883E-03 -.108E-02
   0.736E+00 0.520E+00 -.127E+01   -.695E+00 -.491E+00 0.120E+01   -.248E-01 -.175E-01 0.430E-01   -.167E-02 -.118E-02 0.290E-02
   -.203E+01 -.144E+01 -.883E-06   0.172E+01 0.121E+01 -.696E-11   0.330E+00 0.233E+00 -.234E-16   -.125E-02 -.883E-03 -.308E-09
   0.736E+00 0.520E+00 0.127E+01   -.695E+00 -.491E+00 -.120E+01   -.248E-01 -.175E-01 -.430E-01   -.167E-02 -.118E-02 -.290E-02
 -----------------------------------------------------------------------------------------------
   -.576E-06 -.413E-06 -.691E-06   -.290E-13 0.339E-13 -.258E-13   0.114E-15 0.607E-15 0.122E-14   0.500E-08 0.354E-08 0.866E-08
 
 
 POSITION                                       TOTAL-FORCE (eV/Angst)
 -----------------------------------------------------------------------------------
      3.88177      2.74483     10.51774         0.008034      0.005681     -0.016511
      3.88177      2.74483     14.44189         0.008034      0.005681      0.016511
      4.97710      5.84287      8.62058        -0.000749     -0.019162     -0.001298
      4.98670      5.87923     12.47982         0.003303     -0.001168      0.000000
      4.97710      5.84287     16.33905        -0.000749     -0.019162      0.001298
      6.10990      9.04693     10.58266         0.008783      0.007800      0.015213
      6.10990      9.04693     14.37697         0.008783      0.007800     -0.015213
      6.09665      9.01402     18.23973        -0.015905      0.005623     -0.000000
      7.16775      2.74483      8.62058        -0.018316      0.005681     -0.001298
      7.20523      2.74176     12.47982        -0.000000      0.003504      0.000000
      7.16775      2.74483     16.33905        -0.018316      0.005681      0.001298
      8.31449      5.87923     10.55852        -0.001652     -0.001168      0.002861
      8.31449      5.87923     14.40112        -0.001652     -0.001168     -0.002861
      8.30927      5.87554     18.23973         0.015805      0.011176      0.000000
      9.39587      9.04693     12.47982        -0.017567      0.007800     -0.000000
      9.41999      9.01714     16.31590         0.007902     -0.011176      0.013687
      9.41999      9.01714     20.16356         0.007902     -0.011176     -0.013687
     10.56616      2.74483     10.58266         0.010282      0.005681      0.015213
     10.56616      2.74483     14.37697         0.010282      0.005681     -0.015213
     10.53071      2.74330     18.23973         0.000000     -0.016870     -0.000000
     11.66148      5.84287     12.47982         0.001499     -0.019162      0.000000
     11.64144      5.87554     16.31590        -0.007902      0.011176      0.013687
     11.64144      5.87554     20.16356        -0.007902      0.011176     -0.013687
     12.74775      9.01402     14.39972         0.007952      0.005623     -0.013774
     12.75216      9.01714     18.23973        -0.015805     -0.011176     -0.000000
     12.74775      9.01402     22.07975         0.007952      0.005623      0.013774
      0.55425      0.39191      0.95999        -0.000000     -0.000000      0.000000
      0.55660      0.39358      4.79812         0.009262      0.006550      0.000817
      0.55660      0.39358      8.64168         0.009262      0.006550     -0.000817
      1.66340      3.52407      2.88109         0.004867     -0.005883      0.008430
      1.79743      3.47960      6.71990        -0.002883      0.001019      0.000000
      1.66340      3.52407     10.55871         0.004867     -0.005883     -0.008430
      2.77294      6.66233      4.80287         0.004395     -0.007216      0.007613
      2.77294      6.66233      8.63693         0.004395     -0.007216     -0.007613
      2.76913      6.66326     12.47982        -0.029622      0.010473      0.000000
      3.87699      0.39358      2.88109        -0.003924      0.006550      0.008430
      3.87974      0.53477      6.71990         0.000000     -0.003058      0.000000
      3.87699      0.39358     10.55871        -0.003924      0.006550     -0.008430
      4.92089      3.47960      4.91657         0.001441      0.001019     -0.002496
      4.92089      3.47960      8.52323         0.001441      0.001019      0.002496
      4.99175      3.52970     12.47982        -0.013088     -0.009255      0.000000
      6.09333      6.66233      6.71990        -0.008791     -0.007216      0.000000
      6.09849      6.66003     10.56289        -0.006544      0.009255     -0.011335
      6.09849      6.66003     14.39674        -0.006544      0.009255      0.011335
      7.20562      0.39358      4.80287        -0.005339      0.006550      0.007613
      7.20562      0.39358      8.63693        -0.005339      0.006550     -0.007613
      7.20523      0.38967     12.47982         0.000000     -0.031419      0.000000
      8.31241      3.52407      6.71990        -0.009734     -0.005883      0.000000
      8.31196      3.52970     10.56289         0.006544     -0.009255     -0.011335
      8.31196      3.52970     14.39674         0.006544     -0.009255      0.011335
      9.42328      6.66326      8.63804         0.014811      0.010473     -0.025653
      9.41870      6.66003     12.47982         0.013088      0.009255      0.000000
      9.42328      6.66326     16.32159         0.014811      0.010473      0.025653
 -----------------------------------------------------------------------------------
    total drift:                               -0.000001     -0.000000     -0.000001


--------------------------------------------------------------------------------------------------------



  FREE ENERGIE OF THE ION-ELECTRON SYSTEM (eV)
  ---------------------------------------------------
  free  energy   TOTEN  =      -284.12558576 eV

  energy  without entropy=     -284.12297568  energy(sigma->0) =     -284.12428072
 
 d Force = 0.2573949E-02[-0.166E-02, 0.680E-02]  d Energy = 0.2592145E-02-0.182E-04
 d Force = 0.1762150E+01[ 0.173E+01, 0.179E+01]  d Ewald  = 0.1762234E+01-0.841E-04


--------------------------------------------------------------------------------------------------------


    POTLOK:  cpu time    0.0870: real time    0.0877


--------------------------------------------------------------------------------------------------------


 Conjugate gradient step on ions:
 trial-energy change:   -0.002592  1 .order   -0.002574   -0.006804    0.001656
  (g-gl).g = 0.507E-02      g.g   = 0.380E-02  gl.gl    = 0.141E-01
 g(Force)  = 0.380E-02   g(Stress)= 0.000E+00 ortho     =-0.215E-04
 gamma     =   0.36038
 trial     =   1.79593
 opt step  =   1.44438  (harmonic =   1.44438) maximal distance =0.01025753
 next E    =  -284.125730   (d E  =  -0.00274)


--------------------------------------------------------------------------------------------------------


  
 reached required accuracy - stopping structural energy minimisation
 writing wavefunctions
     LOOP+:  cpu time   32.4790: real time   32.8035
    4ORBIT:  cpu time    0.0000: real time    0.0000
 


 total charge     
 
# of ion       s       p       d       tot
------------------------------------------
    1        0.755   0.899   0.000   1.655
    2        0.755   0.899   0.000   1.655
    3        0.755   0.922   0.000   1.676
    4        0.751   0.943   0.000   1.695
    5        0.755   0.919   0.000   1.674
    6        0.755   0.921   0.000   1.676
    7        0.755   0.918   0.000   1.673
    8        0.751   0.939   0.000   1.690
    9        0.757   0.935   0.000   1.692
   10        0.752   0.944   0.000   1.696
   11        0.757   0.938   0.000   1.695
   12        0.752   0.943   0.000   1.695
   13        0.752   0.943   0.000   1.695
   14        0.751   0.941   0.000   1.692
   15        0.757   0.924   0.000   1.681
   16        0.751   0.941   0.000   1.693
   17        0.751   0.941   0.000   1.693
   18        0.756   0.933   0.000   1.689
   19        0.756   0.936   0.000   1.691
   20        0.751   0.940   0.000   1.691
   21        0.756   0.922   0.000   1.678
   22        0.751   0.941   0.000   1.692
   23        0.751   0.941   0.000   1.692
   24        0.751   0.940   0.000   1.691
   25        0.751   0.941   0.000   1.692
   26        0.751   0.940   0.000   1.691
   27        0.751   0.943   0.000   1.694
   28        0.752   0.941   0.000   1.693
   29        0.752   0.941   0.000   1.693
   30        0.751   0.943   0.000   1.695
   31        0.815   0.897   0.000   1.712
   32        0.751   0.943   0.000   1.694
   33        0.752   0.943   0.000   1.695
   34        0.752   0.942   0.000   1.694
   35        0.751   0.941   0.000   1.692
   36        0.751   0.942   0.000   1.693
   37        0.792   0.811   0.000   1.602
   38        0.751   0.942   0.000   1.693
   39        0.790   0.799   0.000   1.589
   40        0.790   0.799   0.000   1.589
   41        0.760   0.894   0.000   1.653
   42        0.752   0.940   0.000   1.692
   43        0.760   0.911   0.000   1.670
   44        0.760   0.909   0.000   1.669
   45        0.752   0.941   0.000   1.693
   46        0.752   0.942   0.000   1.694
   47        0.751   0.940   0.000   1.691
   48        0.752   0.940   0.000   1.692
   49        0.762   0.924   0.000   1.685
   50        0.762   0.925   0.000   1.687
   51        0.751   0.939   0.000   1.690
   52        0.762   0.914   0.000   1.676
   53        0.751   0.939   0.000   1.690
--------------------------------------------------
tot         40.113  49.029   0.000  89.142
 

 total amount of memory used by VASP MPI-rank0   122888. kBytes
=======================================================================

   base      :      30000. kBytes
   nonl-proj :      43150. kBytes
   fftplans  :       5382. kBytes
   grid      :      19496. kBytes
   one-center:        162. kBytes
   wavefun   :      24698. kBytes
 
  
  
 General timing and accounting informations for this job:
 ========================================================
  
                  Total CPU time used (sec):      261.752
                            User time (sec):      255.157
                          System time (sec):        6.595
                         Elapsed time (sec):      269.639
  
                   Maximum memory used (kb):      418896.
                   Average memory used (kb):           0.
  
                          Minor page faults:        39838
                          Major page faults:            0
                 Voluntary context switches:         5385
