 vasp.5.4.4.18Apr17-6-g9f103f2a35 (build Jun 19 2019 10:34:07) complex          
  
 executed on               LB-5.4 date 2023.05.19  11:15:30
 running on   96 total cores
 distrk:  each k-point on   24 cores,    4 groups
 distr:  one band on NCORES_PER_BAND=   1 cores,   24 groups


--------------------------------------------------------------------------------------------------------


 INCAR:
 POTCAR:    PAW_PBE Si 05Jan2001                  
 POTCAR:    PAW_PBE B 06Sep2000                   
 POTCAR:    PAW_PBE P 06Sep2000                   

 ----------------------------------------------------------------------------- 
|                                                                             |
|           W    W    AA    RRRRR   N    N  II  N    N   GGGG   !!!           |
|           W    W   A  A   R    R  NN   N  II  NN   N  G    G  !!!           |
|           W    W  A    A  R    R  N N  N  II  N N  N  G       !!!           |
|           W WW W  AAAAAA  RRRRR   N  N N  II  N  N N  G  GGG   !            |
|           WW  WW  A    A  R   R   N   NN  II  N   NN  G    G                |
|           W    W  A    A  R    R  N    N  II  N    N   GGGG   !!!           |
|                                                                             |
|      For optimal performance we recommend to set                            |
|        NCORE= 4 - approx SQRT( number of cores)                             |
|      NCORE specifies how many cores store one orbital (NPAR=cpu/NCORE).     |
|      This setting can  greatly improve the performance of VASP for DFT.     |
|      The default,   NCORE=1            might be grossly inefficient         |
|      on modern multi-core architectures or massively parallel machines.     |
|      Do your own testing !!!!                                               |
|      Unfortunately you need to use the default for GW and RPA calculations. |
|      (for HF NCORE is supported but not extensively tested yet)             |
|                                                                             |
 ----------------------------------------------------------------------------- 


 ----------------------------------------------------------------------------- 
|                                                                             |
|           W    W    AA    RRRRR   N    N  II  N    N   GGGG   !!!           |
|           W    W   A  A   R    R  NN   N  II  NN   N  G    G  !!!           |
|           W    W  A    A  R    R  N N  N  II  N N  N  G       !!!           |
|           W WW W  AAAAAA  RRRRR   N  N N  II  N  N N  G  GGG   !            |
|           WW  WW  A    A  R   R   N   NN  II  N   NN  G    G                |
|           W    W  A    A  R    R  N    N  II  N    N   GGGG   !!!           |
|                                                                             |
|      You have enabled k-point parallelism (KPAR>1).                         |
|      This developmental code was originally  written by Paul Kent at ORNL,  |
|      and carefully double checked in Vienna.                                |
|      GW as well as linear response parallelism added by Martijn Marsman     |
|      and Georg Kresse.                                                      |
|      Carefully verify results versus KPAR=1.                                |
|      Report problems to Paul Kent and Vienna.                               |
|                                                                             |
 ----------------------------------------------------------------------------- 

 POTCAR:    PAW_PBE Si 05Jan2001                  
   VRHFIN =Si: s2p2                                                             
   LEXCH  = PE                                                                  
   EATOM  =   103.0669 eV,    7.5752 Ry                                         
                                                                                
   TITEL  = PAW_PBE Si 05Jan2001                                                
   LULTRA =        F    use ultrasoft PP ?                                      
   IUNSCR =        1    unscreen: 0-lin 1-nonlin 2-no                           
   RPACOR =    1.500    partial core radius                                     
   POMASS =   28.085; ZVAL   =    4.000    mass and valenz                      
   RCORE  =    1.900    outmost cutoff radius                                   
   RWIGS  =    2.480; RWIGS  =    1.312    wigner-seitz radius (au A)           
   ENMAX  =  245.345; ENMIN  =  184.009 eV                                      
   ICORE  =        2    local potential                                         
   LCOR   =        T    correct aug charges                                     
   LPAW   =        T    paw PP                                                  
   EAUG   =  322.069                                                            
   DEXC   =    0.000                                                            
   RMAX   =    1.950    core radius for proj-oper                               
   RAUG   =    1.300    factor for augmentation sphere                          
   RDEP   =    1.993    radius for radial grids                                 
   RDEPT  =    1.837    core radius for aug-charge                              
                                                                                
   Atomic configuration                                                         
    6 entries                                                                   
     n  l   j            E        occ.                                          
     1  0  0.50     -1785.8828   2.0000                                         
     2  0  0.50      -139.4969   2.0000                                         
     2  1  1.50       -95.5546   6.0000                                         
     3  0  0.50       -10.8127   2.0000                                         
     3  1  0.50        -4.0811   2.0000                                         
     3  2  1.50        -4.0817   0.0000                                         
   Description                                                                  
     l       E           TYP  RCUT    TYP  RCUT                                 
     0    -10.8127223     23  1.900                                             
     0     -7.6451159     23  1.900                                             
     1     -4.0811372     23  1.900                                             
     1      2.4879257     23  1.900                                             
     2     -4.0817478      7  1.900                                             
  local pseudopotential read in
  partial core-charges read in
  partial kinetic energy density read in
  atomic valenz-charges read in
  non local Contribution for L=           0  read in
    real space projection operators read in
  non local Contribution for L=           0  read in
    real space projection operators read in
  non local Contribution for L=           1  read in
    real space projection operators read in
  non local Contribution for L=           1  read in
    real space projection operators read in
    PAW grid and wavefunctions read in
 
   number of l-projection  operators is LMAX  =           4
   number of lm-projection operators is LMMAX =           8
 
 POTCAR:    PAW_PBE B 06Sep2000                   
   VRHFIN =B: s2p1                                                              
   LEXCH  = PE                                                                  
   EATOM  =    71.1703 eV,    5.2309 Ry                                         
                                                                                
   TITEL  = PAW_PBE B 06Sep2000                                                 
   LULTRA =        F    use ultrasoft PP ?                                      
   IUNSCR =        1    unscreen: 0-lin 1-nonlin 2-no                           
   RPACOR =    1.200    partial core radius                                     
   POMASS =   10.811; ZVAL   =    3.000    mass and valenz                      
   RCORE  =    1.700    outmost cutoff radius                                   
   RWIGS  =    1.710; RWIGS  =    0.905    wigner-seitz radius (au A)           
   ENMAX  =  318.614; ENMIN  =  238.960 eV                                      
   ICORE  =        2    local potential                                         
   LCOR   =        T    correct aug charges                                     
   LPAW   =        T    paw PP                                                  
   EAUG   =  535.514                                                            
   DEXC   =    0.000                                                            
   RMAX   =    1.732    core radius for proj-oper                               
   RAUG   =    1.300    factor for augmentation sphere                          
   RDEP   =    1.757    radius for radial grids                                 
   RDEPT  =    1.436    core radius for aug-charge                              
                                                                                
   Atomic configuration                                                         
    4 entries                                                                   
     n  l   j            E        occ.                                          
     1  0  0.50      -180.5896   2.0000                                         
     2  0  0.50        -9.4431   2.0000                                         
     2  1  0.50        -3.6068   1.0000                                         
     3  2  1.50        -4.0817   0.0000                                         
   Description                                                                  
     l       E           TYP  RCUT    TYP  RCUT                                 
     0     -9.4430752     23  1.500                                             
     0      0.8675899     23  1.500                                             
     1     -3.6067955     23  1.700                                             
     1      6.1086146     23  1.700                                             
     2     -4.0817478      7  1.700                                             
  local pseudopotential read in
  partial core-charges read in
  partial kinetic energy density read in
  atomic valenz-charges read in
  non local Contribution for L=           0  read in
    real space projection operators read in
  non local Contribution for L=           0  read in
    real space projection operators read in
  non local Contribution for L=           1  read in
    real space projection operators read in
  non local Contribution for L=           1  read in
    real space projection operators read in
    PAW grid and wavefunctions read in
 
   number of l-projection  operators is LMAX  =           4
   number of lm-projection operators is LMMAX =           8
 
 POTCAR:    PAW_PBE P 06Sep2000                   
   VRHFIN =P : s2p3                                                             
   LEXCH  = PE                                                                  
   EATOM  =   176.0430 eV,   12.9388 Ry                                         
                                                                                
   TITEL  = PAW_PBE P 06Sep2000                                                 
   LULTRA =        F    use ultrasoft PP ?                                      
   IUNSCR =        1    unscreen: 0-lin 1-nonlin 2-no                           
   RPACOR =    1.500    partial core radius                                     
   POMASS =   30.974; ZVAL   =    5.000    mass and valenz                      
   RCORE  =    1.900    outmost cutoff radius                                   
   RWIGS  =    2.330; RWIGS  =    1.233    wigner-seitz radius (au A)           
   ENMAX  =  255.040; ENMIN  =  191.280 eV                                      
   ICORE  =        2    local potential                                         
   LCOR   =        T    correct aug charges                                     
   LPAW   =        T    paw PP                                                  
   EAUG   =  342.924                                                            
   DEXC   =    0.000                                                            
   RMAX   =    1.935    core radius for proj-oper                               
   RAUG   =    1.300    factor for augmentation sphere                          
   RDEP   =    1.931    radius for radial grids                                 
   RDEPT  =    1.794    core radius for aug-charge                              
                                                                                
   Atomic configuration                                                         
    6 entries                                                                   
     n  l   j            E        occ.                                          
     1  0  0.50     -2084.0982   2.0000                                         
     2  0  0.50      -173.9859   2.0000                                         
     2  1  1.50      -124.4865   6.0000                                         
     3  0  0.50       -13.9692   2.0000                                         
     3  1  0.50        -5.5067   3.0000                                         
     3  2  1.50        -5.4423   0.0000                                         
   Description                                                                  
     l       E           TYP  RCUT    TYP  RCUT                                 
     0    -13.9691527     23  1.900                                             
     0    -11.7794650     23  1.900                                             
     1     -5.5066937     23  1.900                                             
     1     -0.2556953     23  1.900                                             
     2     -5.4423304     23  1.900                                             
  local pseudopotential read in
  partial core-charges read in
  partial kinetic energy density read in
  atomic valenz-charges read in
  non local Contribution for L=           0  read in
    real space projection operators read in
  non local Contribution for L=           0  read in
    real space projection operators read in
  non local Contribution for L=           1  read in
    real space projection operators read in
  non local Contribution for L=           1  read in
    real space projection operators read in
    PAW grid and wavefunctions read in
 
   number of l-projection  operators is LMAX  =           4
   number of lm-projection operators is LMMAX =           8
 

 ----------------------------------------------------------------------------- 
|                                                                             |
|  ADVICE TO THIS USER RUNNING 'VASP/VAMP'   (HEAR YOUR MASTER'S VOICE ...):  |
|                                                                             |
|      You have a (more or less) 'large supercell' and for larger cells       |
|      it might be more efficient to use real space projection opertators     |
|      So try LREAL= Auto  in the INCAR   file.                               |
|      Mind:          For very  accurate calculation you might also keep the  |
|      reciprocal projection scheme          (i.e. LREAL=.FALSE.)             |
|                                                                             |
 ----------------------------------------------------------------------------- 

  PAW_PBE Si 05Jan2001                  :
 energy of atom  1       EATOM= -103.0669
 kinetic energy error for atom=    0.0004 (will be added to EATOM!!)
  PAW_PBE B 06Sep2000                   :
 energy of atom  2       EATOM=  -71.1703
 kinetic energy error for atom=    0.0009 (will be added to EATOM!!)
  PAW_PBE P 06Sep2000                   :
 energy of atom  3       EATOM= -176.0430
 kinetic energy error for atom=    0.0008 (will be added to EATOM!!)
 
 
 POSCAR: Si52 B1 P1                              
  positions in direct lattice
  velocities in cartesian coordinates
 exchange correlation table for  LEXCH =        8
   RHO(1)=    0.500       N(1)  =     2000
   RHO(2)=  100.500       N(2)  =     4000
 


--------------------------------------------------------------------------------------------------------


 ion  position               nearest neighbor table
   1  0.292  0.292  0.625-  32 2.35  53 2.35  40 2.35  38 2.35
   2  0.292  0.292  0.958-  30 2.35  39 2.35  40 2.35  36 2.35
   3  0.292  0.625  0.292-  34 2.35  41 2.35  42 2.35  53 2.35
   4  0.292  0.625  0.625-  35 2.35  42 2.35  43 2.35  40 2.35
   5  0.292  0.625  0.958-  33 2.35  41 2.35  43 2.35  39 2.35
   6  0.292  0.958  0.292-  28 2.35  36 2.35  37 2.35  42 2.35
   7  0.292  0.958  0.625-  29 2.35  37 2.35  38 2.35  43 2.35
   8  0.292  0.958  0.958-  27 2.35  36 2.35  38 2.35  41 2.35
   9  0.625  0.292  0.292-  53 2.35  47 2.35  48 2.35  45 2.35
  10  0.625  0.292  0.625-  40 2.35  48 2.35  49 2.35  46 2.35
  11  0.625  0.292  0.958-  39 2.35  47 2.35  49 2.35  44 2.35
  12  0.625  0.625  0.292-  42 2.35  50 2.35  51 2.35  48 2.35
  13  0.625  0.625  0.625-  43 2.35  51 2.35  52 2.35  49 2.35
  14  0.625  0.625  0.958-  41 2.35  50 2.35  52 2.35  47 2.35
  15  0.625  0.958  0.292-  37 2.35  44 2.35  45 2.35  51 2.35
  16  0.625  0.958  0.625-  38 2.35  45 2.35  46 2.35  52 2.35
  17  0.625  0.958  0.958-  36 2.35  44 2.35  46 2.35  50 2.35
  18  0.958  0.292  0.292-  48 2.35  31 2.35  30 2.35  28 2.35
  19  0.958  0.292  0.625-  49 2.35  32 2.35  31 2.35  29 2.35
  20  0.958  0.292  0.958-  47 2.35  30 2.35  32 2.35  27 2.35
  21  0.958  0.625  0.292-  51 2.35  34 2.35  33 2.35  31 2.35
  22  0.958  0.625  0.625-  52 2.35  35 2.35  34 2.35  32 2.35
  23  0.958  0.625  0.958-  50 2.35  33 2.35  35 2.35  30 2.35
  24  0.958  0.958  0.292-  45 2.35  28 2.35  27 2.35  34 2.35
  25  0.958  0.958  0.625-  46 2.35  29 2.35  28 2.35  35 2.35
  26  0.958  0.958  0.958-  44 2.35  27 2.35  29 2.35  33 2.35
  27  0.042  0.042  0.042-   8 2.35  26 2.35  24 2.35  20 2.35
  28  0.042  0.042  0.375-   6 2.35  24 2.35  25 2.35  18 2.35
  29  0.042  0.042  0.708-   7 2.35  25 2.35  26 2.35  19 2.35
  30  0.042  0.375  0.042-   2 2.35  20 2.35  18 2.35  23 2.35
  31  0.042  0.375  0.375-  54 2.35  19 2.35  18 2.35  21 2.35
  32  0.042  0.375  0.708-   1 2.35  19 2.35  20 2.35  22 2.35
  33  0.042  0.708  0.042-   5 2.35  23 2.35  21 2.35  26 2.35
  34  0.042  0.708  0.375-   3 2.35  21 2.35  22 2.35  24 2.35
  35  0.042  0.708  0.708-   4 2.35  22 2.35  23 2.35  25 2.35
  36  0.375  0.042  0.042-  17 2.35   8 2.35   6 2.35   2 2.35
  37  0.375  0.042  0.375-  15 2.35   7 2.35   6 2.35  54 2.35
  38  0.375  0.042  0.708-  16 2.35   8 2.35   7 2.35   1 2.35
  39  0.375  0.375  0.042-  11 2.35   2 2.35  54 2.35   5 2.35
  40  0.375  0.375  0.708-  10 2.35   2 2.35   1 2.35   4 2.35
  41  0.375  0.708  0.042-  14 2.35   5 2.35   3 2.35   8 2.35
  42  0.375  0.708  0.375-  12 2.35   4 2.35   3 2.35   6 2.35
  43  0.375  0.708  0.708-  13 2.35   5 2.35   4 2.35   7 2.35
  44  0.708  0.042  0.042-  26 2.35  17 2.35  15 2.35  11 2.35
  45  0.708  0.042  0.375-  24 2.35  16 2.35  15 2.35   9 2.35
  46  0.708  0.042  0.708-  25 2.35  17 2.35  16 2.35  10 2.35
  47  0.708  0.375  0.042-  20 2.35  11 2.35   9 2.35  14 2.35
  48  0.708  0.375  0.375-  18 2.35  10 2.35   9 2.35  12 2.35
  49  0.708  0.375  0.708-  19 2.35  11 2.35  10 2.35  13 2.35
  50  0.708  0.708  0.042-  23 2.35  14 2.35  12 2.35  17 2.35
  51  0.708  0.708  0.375-  21 2.35  13 2.35  12 2.35  15 2.35
  52  0.708  0.708  0.708-  22 2.35  14 2.35  13 2.35  16 2.35
  53  0.375  0.375  0.375-   9 2.35   1 2.35  54 2.35   3 2.35
  54  0.292  0.292  0.292-  31 2.35  39 2.35  53 2.35  37 2.35
 
  LATTYP: Found a face centered cubic cell.
 ALAT       =    16.2915000202
  
  Lattice vectors:
  
 A1 = (   9.9764655300,   0.0000000000,   5.7599150700)
 A2 = (   3.3254885100,   9.4059019200,   5.7599150700)
 A3 = (   0.0000000000,   0.0000000000,  11.5198301400)


Analysis of symmetry for initial positions (statically):
=====================================================================
 Subroutine PRICEL returns:
 Original cell was already a primitive cell.
 

 Routine SETGRP: Setting up the symmetry group for a 
 face centered cubic supercell.


 Subroutine GETGRP returns: Found  6 space group operations
 (whereof  6 operations were pure point group operations)
 out of a pool of 48 trial point group operations.


The static configuration has the point symmetry C_3v.


Analysis of symmetry for dynamics (positions and initial velocities):
=====================================================================
 Subroutine PRICEL returns:
 Original cell was already a primitive cell.
 

 Routine SETGRP: Setting up the symmetry group for a 
 face centered cubic supercell.


 Subroutine GETGRP returns: Found  6 space group operations
 (whereof  6 operations were pure point group operations)
 out of a pool of 48 trial point group operations.


The dynamic configuration has the point symmetry C_3v.


 Subroutine INISYM returns: Found  6 space group operations
 (whereof  6 operations are pure point group operations),
 and found     1 'primitive' translations

 
 
 KPOINTS: pymatgen with grid density = 1000 / numb

Automatic generation of k-mesh.
Space group operators:
 irot       det(A)        alpha          n_x          n_y          n_z        tau_x        tau_y        tau_z
    1     1.000000     0.000000     1.000000     0.000000     0.000000     0.000000     0.000000     0.000000
    2     1.000000   120.000000    -0.471405    -0.333333    -0.816497     0.000000     0.000000     0.000000
    3     1.000000   120.000000     0.471405     0.333333     0.816497     0.000000     0.000000     0.000000
    4    -1.000000   180.000000     0.288675     0.816497    -0.500000     0.000000     0.000000     0.000000
    5    -1.000000   180.000000     0.577350    -0.816497     0.000000     0.000000     0.000000     0.000000
    6    -1.000000   180.000000     0.866025     0.000000    -0.500000     0.000000     0.000000     0.000000
 
 Subroutine IBZKPT returns following result:
 ===========================================
 
 Found     13 irreducible k-points:
 
 Following reciprocal coordinates:
            Coordinates               Weight
  0.000000  0.000000  0.000000      1.000000
  0.250000  0.000000  0.000000      6.000000
  0.500000  0.000000  0.000000      3.000000
  0.250000  0.250000  0.000000      6.000000
  0.500000  0.250000  0.000000     12.000000
 -0.250000  0.250000  0.000000      6.000000
  0.500000  0.500000  0.000000      3.000000
  0.250000  0.250000  0.250000      2.000000
  0.500000  0.250000  0.250000      6.000000
 -0.250000  0.250000  0.250000      6.000000
  0.500000  0.500000  0.250000      6.000000
 -0.250000  0.500000  0.250000      6.000000
  0.500000  0.500000  0.500000      1.000000
 
 Following cartesian coordinates:
            Coordinates               Weight
  0.000000  0.000000  0.000000      1.000000
  0.025059 -0.008860  0.000000      6.000000
  0.050118 -0.017719  0.000000      3.000000
  0.025059  0.017719  0.000000      6.000000
  0.050118  0.008860  0.000000     12.000000
 -0.025059  0.035439  0.000000      6.000000
  0.050118  0.035439  0.000000      3.000000
  0.012529  0.008860  0.021702      2.000000
  0.037588  0.000000  0.021702      6.000000
 -0.037588  0.026579  0.021702      6.000000
  0.037588  0.026579  0.021702      6.000000
 -0.037588  0.053158  0.021702      6.000000
  0.025059  0.017719  0.043403      1.000000
 


--------------------------------------------------------------------------------------------------------




 Dimension of arrays:
   k-points           NKPTS =     13   k-points in BZ     NKDIM =     13   number of bands    NBANDS=    144
   number of dos      NEDOS =    301   number of ions     NIONS =     54
   non local maximal  LDIM  =      4   non local SUM 2l+1 LMDIM =      8
   total plane-waves  NPLWV = 343000
   max r-space proj   IRMAX =      1   max aug-charges    IRDMAX=  10807
   dimension x,y,z NGX =    70 NGY =   70 NGZ =   70
   dimension x,y,z NGXF=   140 NGYF=  140 NGZF=  140
   support grid    NGXF=   140 NGYF=  140 NGZF=  140
   ions per type =              52   1   1
   NGX,Y,Z   is equivalent  to a cutoff of  10.10, 10.10, 10.10 a.u.
   NGXF,Y,Z  is equivalent  to a cutoff of  20.20, 20.20, 20.20 a.u.

 SYSTEM =  Si                                      
 POSCAR =  Si52 B1 P1                              

 Startparameter for this run:
   NWRITE =      2    write-flag & timer
   PREC   = normal    normal or accurate (medium, high low for compatibility)
   ISTART =      1    job   : 0-new  1-cont  2-samecut
   ICHARG =      0    charge: 1-file 2-atom 10-const
   ISPIN  =      1    spin polarized calculation?
   LNONCOLLINEAR =      F non collinear calculations
   LSORBIT =      F    spin-orbit coupling
   INIWAV =      1    electr: 0-lowe 1-rand  2-diag
   LASPH  =      F    aspherical Exc in radial PAW
   METAGGA=      F    non-selfconsistent MetaGGA calc.

 Electronic Relaxation 1
   ENCUT  =  550.0 eV  40.42 Ry    6.36 a.u.  22.03 22.03 22.03*2*pi/ulx,y,z
   ENINI  =  550.0     initial cutoff
   ENAUG  =  535.5 eV  augmentation charge cutoff
   NELM   =    200;   NELMIN=  2; NELMDL=  0     # of ELM steps 
   EDIFF  = 0.1E-04   stopping-criterion for ELM
   LREAL  =      F    real-space projection
   NLSPLINE    = F    spline interpolate recip. space projectors
   LCOMPAT=      F    compatible to vasp.4.4
   GGA_COMPAT  = T    GGA compatible to vasp.4.4-vasp.4.6
   LMAXPAW     = -100 max onsite density
   LMAXMIX     =    2 max onsite mixed and CHGCAR
   VOSKOWN=      0    Vosko Wilk Nusair interpolation
   ROPT   =    0.00000   0.00000   0.00000
 Ionic relaxation
   EDIFFG = -.5E-01   stopping-criterion for IOM
   NSW    =    100    number of steps for IOM
   NBLOCK =      1;   KBLOCK =    100    inner block; outer block 
   IBRION =      2    ionic relax: 0-MD 1-quasi-New 2-CG
   NFREE  =      1    steps in history (QN), initial steepest desc. (CG)
   ISIF   =      2    stress and relaxation
   IWAVPR =     11    prediction:  0-non 1-charg 2-wave 3-comb
   ISYM   =      2    0-nonsym 1-usesym 2-fastsym
   LCORR  =      T    Harris-Foulkes like correction to forces

   POTIM  = 0.5000    time-step for ionic-motion
   TEIN   =    0.0    initial temperature
   TEBEG  =    0.0;   TEEND  =   0.0 temperature during run
   SMASS  =  -3.00    Nose mass-parameter (am)
   estimated Nose-frequenzy (Omega)   =  0.10E-29 period in steps =****** mass=  -0.303E-26a.u.
   SCALEE = 1.0000    scale energy and forces
   NPACO  =    256;   APACO  = 16.0  distance and # of slots for P.C.
   PSTRESS=    0.0 pullay stress

  Mass of Ions in am
   POMASS =  28.09 10.81 30.97
  Ionic Valenz
   ZVAL   =   4.00  3.00  5.00
  Atomic Wigner-Seitz radii
   RWIGS  =  -1.00 -1.00 -1.00
  virtual crystal weights 
   VCA    =   1.00  1.00  1.00
   NELECT =     215.0000    total number of electrons
   NUPDOWN=      -1.0000    fix difference up-down

 DOS related values:
   EMIN   =  10.00;   EMAX   =-10.00  energy-range for DOS
   EFERMI =   0.00
   ISMEAR =     0;   SIGMA  =   0.05  broadening in eV -4-tet -1-fermi 0-gaus

 Electronic relaxation 2 (details)
   IALGO  =     38    algorithm
   LDIAG  =      T    sub-space diagonalisation (order eigenvalues)
   LSUBROT=      F    optimize rotation matrix (better conditioning)
   TURBO    =      0    0=normal 1=particle mesh
   IRESTART =      0    0=no restart 2=restart with 2 vectors
   NREBOOT  =      0    no. of reboots
   NMIN     =      0    reboot dimension
   EREF     =   0.00    reference energy to select bands
   IMIX   =      4    mixing-type and parameters
     AMIX     =   0.20;   BMIX     =  1.00
     AMIX_MAG =   0.80;   BMIX_MAG =  1.00
     AMIN     =   0.10
     WC   =   100.;   INIMIX=   1;  MIXPRE=   1;  MAXMIX= -45

 Intra band minimization:
   WEIMIN = 0.0010     energy-eigenvalue tresh-hold
   EBREAK =  0.17E-07  absolut break condition
   DEPER  =   0.30     relativ break condition  

   TIME   =   0.40     timestep for ELM

  volume/ion in A,a.u.               =      20.02       135.09
  Fermi-wavevector in a.u.,A,eV,Ry     =   0.955608  1.805838 12.424666  0.913187
  Thomas-Fermi vector in A             =   2.084461
 
 Write flags
   LWAVE        =      T    write WAVECAR
   LDOWNSAMPLE  =      F    k-point downsampling of WAVECAR
   LCHARG       =      T    write CHGCAR
   LVTOT        =      F    write LOCPOT, total local potential
   LVHAR        =      F    write LOCPOT, Hartree potential only
   LELF         =      F    write electronic localiz. function (ELF)
   LORBIT       =     10    0 simple, 1 ext, 2 COOP (PROOUT), +10 PAW based schemes


 Dipole corrections
   LMONO  =      F    monopole corrections only (constant potential shift)
   LDIPOL =      F    correct potential (dipole corrections)
   IDIPOL =      0    1-x, 2-y, 3-z, 4-all directions 
   EPSILON=  1.0000000 bulk dielectric constant

 Exchange correlation treatment:
   GGA     =    --    GGA type
   LEXCH   =     8    internal setting for exchange type
   VOSKOWN=      0    Vosko Wilk Nusair interpolation
   LHFCALC =     F    Hartree Fock is set to
   LHFONE  =     F    Hartree Fock one center treatment
   AEXX    =    0.0000 exact exchange contribution

 Linear response parameters
   LEPSILON=     F    determine dielectric tensor
   LRPA    =     F    only Hartree local field effects (RPA)
   LNABLA  =     F    use nabla operator in PAW spheres
   LVEL    =     F    velocity operator in full k-point grid
   LINTERFAST=   F  fast interpolation
   KINTER  =     0    interpolate to denser k-point grid
   CSHIFT  =0.1000    complex shift for real part using Kramers Kronig
   OMEGAMAX=  -1.0    maximum frequency
   DEG_THRESHOLD= 0.2000000E-02 threshold for treating states as degnerate
   RTIME   =   -0.100 relaxation time in fs
  (WPLASMAI=    0.000 imaginary part of plasma frequency in eV, 0.658/RTIME)
   DFIELD  = 0.0000000 0.0000000 0.0000000 field for delta impulse in time
 
 Orbital magnetization related:
   ORBITALMAG=     F  switch on orbital magnetization
   LCHIMAG   =     F  perturbation theory with respect to B field
   DQ        =  0.001000  dq finite difference perturbation B field
   LLRAUG    =     F  two centre corrections for induced B field



--------------------------------------------------------------------------------------------------------


 conjugate gradient relaxation of ions
 charge density and potential will be updated during run
 non-spin polarized calculation
 Variant of blocked Davidson
 Davidson routine will perform the subspace rotation
 perform sub-space diagonalisation
    after iterative eigenvector-optimisation
 modified Broyden-mixing scheme, WC =      100.0
 initial mixing is a Kerker type mixing with AMIX =  0.2000 and BMIX =      1.0000
 Hartree-type preconditioning will be used
 using additional bands           36
 reciprocal scheme for non local part
 use partial core corrections
 calculate Harris-corrections to forces 
   (improved forces if not selfconsistent)
 use gradient corrections 
 use of overlap-Matrix (Vanderbilt PP)
 Gauss-broadening in eV      SIGMA  =   0.05


--------------------------------------------------------------------------------------------------------


  energy-cutoff  :      550.00
  volume of cell :     1080.99
      direct lattice vectors                 reciprocal lattice vectors
     9.976465530  0.000000000  5.759915070     0.100235900 -0.035438742  0.000000000
     3.325488510  9.405901920  5.759915070     0.000000000  0.106316227  0.000000000
     0.000000000  0.000000000 11.519830140    -0.050117950 -0.035438742  0.086806836

  length of vectors
    11.519830124 11.519830136 11.519830140     0.106316227  0.106316227  0.106316227


 
 old parameters found on file WAVECAR:
  energy-cutoff  :      550.00
  volume of cell :     1080.99
      direct lattice vectors                 reciprocal lattice vectors
     9.976465530  0.000000000  5.759915070     0.100235900 -0.035438742  0.000000000
     3.325488510  9.405901920  5.759915070     0.000000000  0.106316227  0.000000000
     0.000000000  0.000000000 11.519830140    -0.050117950 -0.035438742  0.086806836

  length of vectors

 
 k-points in units of 2pi/SCALE and weight: pymatgen with grid density = 1000 / numb
   0.00000000  0.00000000  0.00000000       0.016
   0.02505897 -0.00885969  0.00000000       0.094
   0.05011795 -0.01771937  0.00000000       0.047
   0.02505897  0.01771937  0.00000000       0.094
   0.05011795  0.00885969  0.00000000       0.188
  -0.02505897  0.03543874  0.00000000       0.094
   0.05011795  0.03543874  0.00000000       0.047
   0.01252949  0.00885969  0.02170171       0.031
   0.03758846  0.00000000  0.02170171       0.094
  -0.03758846  0.02657906  0.02170171       0.094
   0.03758846  0.02657906  0.02170171       0.094
  -0.03758846  0.05315811  0.02170171       0.094
   0.02505897  0.01771937  0.04340342       0.016
 
 k-points in reciprocal lattice and weights: pymatgen with grid density = 1000 / numb
   0.00000000  0.00000000  0.00000000       0.016
   0.25000000  0.00000000  0.00000000       0.094
   0.50000000  0.00000000  0.00000000       0.047
   0.25000000  0.25000000  0.00000000       0.094
   0.50000000  0.25000000  0.00000000       0.188
  -0.25000000  0.25000000  0.00000000       0.094
   0.50000000  0.50000000  0.00000000       0.047
   0.25000000  0.25000000  0.25000000       0.031
   0.50000000  0.25000000  0.25000000       0.094
  -0.25000000  0.25000000  0.25000000       0.094
   0.50000000  0.50000000  0.25000000       0.094
  -0.25000000  0.50000000  0.25000000       0.094
   0.50000000  0.50000000  0.50000000       0.016
 
 position of ions in fractional coordinates (direct lattice) 
   0.29166667  0.29166667  0.62500000
   0.29166667  0.29166667  0.95833333
   0.29166667  0.62500000  0.29166667
   0.29166667  0.62500000  0.62500000
   0.29166667  0.62500000  0.95833333
   0.29166667  0.95833333  0.29166667
   0.29166667  0.95833333  0.62500000
   0.29166667  0.95833333  0.95833333
   0.62500000  0.29166667  0.29166667
   0.62500000  0.29166667  0.62500000
   0.62500000  0.29166667  0.95833333
   0.62500000  0.62500000  0.29166667
   0.62500000  0.62500000  0.62500000
   0.62500000  0.62500000  0.95833333
   0.62500000  0.95833333  0.29166667
   0.62500000  0.95833333  0.62500000
   0.62500000  0.95833333  0.95833333
   0.95833333  0.29166667  0.29166667
   0.95833333  0.29166667  0.62500000
   0.95833333  0.29166667  0.95833333
   0.95833333  0.62500000  0.29166667
   0.95833333  0.62500000  0.62500000
   0.95833333  0.62500000  0.95833333
   0.95833333  0.95833333  0.29166667
   0.95833333  0.95833333  0.62500000
   0.95833333  0.95833333  0.95833333
   0.04166667  0.04166667  0.04166667
   0.04166667  0.04166667  0.37500000
   0.04166667  0.04166667  0.70833333
   0.04166667  0.37500000  0.04166667
   0.04166667  0.37500000  0.37500000
   0.04166667  0.37500000  0.70833333
   0.04166667  0.70833333  0.04166667
   0.04166667  0.70833333  0.37500000
   0.04166667  0.70833333  0.70833333
   0.37500000  0.04166667  0.04166667
   0.37500000  0.04166667  0.37500000
   0.37500000  0.04166667  0.70833333
   0.37500000  0.37500000  0.04166667
   0.37500000  0.37500000  0.70833333
   0.37500000  0.70833333  0.04166667
   0.37500000  0.70833333  0.37500000
   0.37500000  0.70833333  0.70833333
   0.70833333  0.04166667  0.04166667
   0.70833333  0.04166667  0.37500000
   0.70833333  0.04166667  0.70833333
   0.70833333  0.37500000  0.04166667
   0.70833333  0.37500000  0.37500000
   0.70833333  0.37500000  0.70833333
   0.70833333  0.70833333  0.04166667
   0.70833333  0.70833333  0.37500000
   0.70833333  0.70833333  0.70833333
   0.37500000  0.37500000  0.37500000
   0.29166667  0.29166667  0.29166667
 
 position of ions in cartesian coordinates  (Angst):
   3.87973659  2.74338806 10.55984429
   3.87973659  2.74338806 14.39978767
   4.98823276  5.87868870  8.63987260
   4.98823276  5.87868870 12.47981598
   4.98823276  5.87868870 16.31975937
   6.09672893  9.01398934 10.55984429
   6.09672893  9.01398934 14.39978767
   6.09672893  9.01398934 18.23973106
   7.20522510  2.74338806  8.63987260
   7.20522510  2.74338806 12.47981598
   7.20522510  2.74338806 16.31975937
   8.31372128  5.87868870 10.55984429
   8.31372128  5.87868870 14.39978767
   8.31372128  5.87868870 18.23973106
   9.42221745  9.01398934 12.47981598
   9.42221745  9.01398934 16.31975937
   9.42221745  9.01398934 20.15970275
  10.53071362  2.74338806 10.55984429
  10.53071362  2.74338806 14.39978767
  10.53071362  2.74338806 18.23973106
  11.63920979  5.87868870 12.47981598
  11.63920979  5.87868870 16.31975937
  11.63920979  5.87868870 20.15970275
  12.74770596  9.01398934 14.39978767
  12.74770596  9.01398934 18.23973106
  12.74770596  9.01398934 22.07967444
   0.55424808  0.39191258  0.95998584
   0.55424808  0.39191258  4.79992922
   0.55424808  0.39191258  8.63987260
   1.66274425  3.52721322  2.87995753
   1.66274425  3.52721322  6.71990091
   1.66274425  3.52721322 10.55984430
   2.77124042  6.66251386  4.79992922
   2.77124042  6.66251386  8.63987261
   2.77124042  6.66251386 12.47981599
   3.87973659  0.39191258  2.87995753
   3.87973659  0.39191258  6.71990091
   3.87973659  0.39191258 10.55984430
   4.98823277  3.52721322  4.79992922
   4.98823277  3.52721322 12.47981599
   6.09672894  6.66251386  6.71990091
   6.09672894  6.66251386 10.55984430
   6.09672894  6.66251386 14.39978768
   7.20522511  0.39191258  4.79992922
   7.20522511  0.39191258  8.63987261
   7.20522511  0.39191258 12.47981599
   8.31372128  3.52721322  6.71990091
   8.31372128  3.52721322 10.55984430
   8.31372128  3.52721322 14.39978768
   9.42221745  6.66251386  8.63987260
   9.42221745  6.66251386 12.47981599
   9.42221745  6.66251386 16.31975937
   4.98823277  3.52721322  8.63987261
   3.87973659  2.74338806  6.71990091
 


--------------------------------------------------------------------------------------------------------


 k-point  1 :   0.0000 0.0000 0.0000  plane waves:   31415
 k-point  2 :   0.2500 0.0000 0.0000  plane waves:   31608
 k-point  3 :   0.5000 0.0000 0.0000  plane waves:   31638
 k-point  4 :   0.2500 0.2500 0.0000  plane waves:   31695
 k-point  5 :   0.5000 0.2500 0.0000  plane waves:   31649
 k-point  6 :  -0.2500 0.2500 0.0000  plane waves:   31674
 k-point  7 :   0.5000 0.5000 0.0000  plane waves:   31716
 k-point  8 :   0.2500 0.2500 0.2500  plane waves:   31608
 k-point  9 :   0.5000 0.2500 0.2500  plane waves:   31674
 k-point 10 :  -0.2500 0.2500 0.2500  plane waves:   31649
 k-point 11 :   0.5000 0.5000 0.2500  plane waves:   31649
 k-point 12 :  -0.2500 0.5000 0.2500  plane waves:   31684
 k-point 13 :   0.5000 0.5000 0.5000  plane waves:   31638

 maximum and minimum number of plane-waves per node :     31716    31415

 maximum number of plane-waves:     31716
 maximum index in each direction: 
   IXMAX=   22   IYMAX=   22   IZMAX=   22
   IXMIN=  -22   IYMIN=  -22   IZMIN=  -22


 serial   3D FFT for wavefunctions
 parallel 3D FFT for charge:
    minimum data exchange during FFTs selected (reduces bandwidth)


 total amount of memory used by VASP MPI-rank0   203693. kBytes
=======================================================================

   base      :      30000. kBytes
   nonl-proj :     106606. kBytes
   fftplans  :       5382. kBytes
   grid      :      21405. kBytes
   one-center:        165. kBytes
   wavefun   :      40135. kBytes
 
     INWAV:  cpu time   15.8775: real time   18.2906
 Broyden mixing: mesh for mixing (old mesh)
   NGX = 45   NGY = 45   NGZ = 45
  (NGX  =140   NGY  =140   NGZ  =140)
  gives a total of  91125 points

 charge density for first step will be calculated from the start-wavefunctions


--------------------------------------------------------------------------------------------------------


 Maximum index for augmentation-charges          503 (set IRDMAX)


--------------------------------------------------------------------------------------------------------


 initial charge from wavefunction
 First call to EWALD:  gamma=   0.173
 Maximum number of real-space cells 3x 3x 3
 Maximum number of reciprocal cells 3x 3x 3

    FEWALD:  cpu time    0.0071: real time    0.0202


--------------------------------------- Iteration      1(   1)  ---------------------------------------


    POTLOK:  cpu time    0.1012: real time    0.1041
    SETDIJ:  cpu time    0.0054: real time    0.0057
     EDDAV:  cpu time    4.5990: real time    5.0694
       DOS:  cpu time    0.0171: real time    0.0184
    CHARGE:  cpu time    0.2256: real time    0.2272
    MIXING:  cpu time    0.0048: real time    0.0058
    --------------------------------------------
      LOOP:  cpu time    4.9531: real time    5.4307

 eigenvalue-minimisations  :  2808
 total energy-change (2. order) :-0.2982536E+03  (-0.4537316E-06)
 number of electron     215.0000000 magnetization 
 augmentation part      -12.4645343 magnetization 

 Broyden mixing:
  rms(total) = 0.25150E-03    rms(broyden)= 0.25150E-03
  rms(prec ) = 0.50154E-03
  weight for this iteration     100.00

 Free energy of the ion-electron system (eV)
  ---------------------------------------------------
  alpha Z        PSCENC =        96.03250935
  Ewald energy   TEWEN  =     -6176.92747578
  -Hartree energ DENC   =      -414.05625925
  -exchange      EXHF   =         0.00000000
  -V(xc)+E(xc)   XCENC  =      -461.21071565
  PAW double counting   =     22648.52143628   -21730.19596083
  entropy T*S    EENTRO =        -0.00239400
  eigenvalues    EBANDS =       132.91731916
  atomic energy  EATOM  =      5606.66798631
  Solvation  Ediel_sol  =         0.00000000
  ---------------------------------------------------
  free energy    TOTEN  =      -298.25355442 eV

  energy without entropy =     -298.25116042  energy(sigma->0) =     -298.25235742


--------------------------------------------------------------------------------------------------------




--------------------------------------- Iteration      1(   2)  ---------------------------------------


    POTLOK:  cpu time    0.0874: real time    0.0880
    SETDIJ:  cpu time    0.0097: real time    0.0097
     EDDAV:  cpu time    5.9915: real time    6.5155
       DOS:  cpu time    0.4715: real time    0.4810
    --------------------------------------------
      LOOP:  cpu time    6.5601: real time    7.0942

 eigenvalue-minimisations  :  2808
 total energy-change (2. order) : 0.3075129E-06  (-0.1360573E-06)
 number of electron     215.0000000 magnetization 
 augmentation part      -12.4645343 magnetization 

 Free energy of the ion-electron system (eV)
  ---------------------------------------------------
  alpha Z        PSCENC =        96.03250935
  Ewald energy   TEWEN  =     -6176.92747578
  -Hartree energ DENC   =      -414.05545002
  -exchange      EXHF   =         0.00000000
  -V(xc)+E(xc)   XCENC  =      -461.21078840
  PAW double counting   =     22648.58499726   -21730.25944971
  entropy T*S    EENTRO =        -0.00239492
  eigenvalues    EBANDS =       132.91651180
  atomic energy  EATOM  =      5606.66798631
  Solvation  Ediel_sol  =         0.00000000
  ---------------------------------------------------
  free energy    TOTEN  =      -298.25355411 eV

  energy without entropy =     -298.25115919  energy(sigma->0) =     -298.25235665


--------------------------------------------------------------------------------------------------------




 average (electrostatic) potential at core
  the test charge radii are     0.9892  0.7672  0.9587
  (the norm of the test charge is              1.0000)
       1 -83.2719       2 -83.4271       3 -83.2719       4 -83.3674       5 -83.4663
       6 -83.4271       7 -83.4663       8 -83.3437       9 -83.2719      10 -83.3674
      11 -83.4663      12 -83.3674      13 -83.4077      14 -83.3517      15 -83.4663
      16 -83.3517      17 -83.3837      18 -83.4271      19 -83.4663      20 -83.3437
      21 -83.4663      22 -83.3517      23 -83.3837      24 -83.3437      25 -83.3837
      26 -83.4071      27 -83.3650      28 -83.3979      29 -83.4158      30 -83.3979
      31 -83.8346      32 -83.3151      33 -83.4158      34 -83.3151      35 -83.3728
      36 -83.3979      37 -83.8346      38 -83.3151      39 -83.8346      40 -83.3643
      41 -83.3151      42 -83.3643      43 -83.4629      44 -83.4158      45 -83.3151
      46 -83.3728      47 -83.3151      48 -83.3643      49 -83.4629      50 -83.3728
      51 -83.4629      52 -83.3595      53 -27.3139      54 -83.5240
 
 
 
 E-fermi :   5.4744     XC(G=0):  -9.3708     alpha+bet :-11.8423


 k-point     1 :       0.0000    0.0000    0.0000
  band No.  band energies     occupation 
      1      -6.4825      2.00000
      2      -5.8249      2.00000
      3      -4.9142      2.00000
      4      -4.9142      2.00000
      5      -4.8930      2.00000
      6      -4.8486      2.00000
      7      -4.8409      2.00000
      8      -4.8409      2.00000
      9      -4.7170      2.00000
     10      -4.5240      2.00000
     11      -4.3613      2.00000
     12      -4.3613      2.00000
     13      -4.3100      2.00000
     14      -4.3100      2.00000
     15      -4.1276      2.00000
     16      -3.4771      2.00000
     17      -3.0777      2.00000
     18      -3.0777      2.00000
     19      -2.9893      2.00000
     20      -2.9893      2.00000
     21      -2.9878      2.00000
     22      -2.9814      2.00000
     23      -2.9786      2.00000
     24      -2.9786      2.00000
     25      -2.8752      2.00000
     26      -2.8752      2.00000
     27      -2.5243      2.00000
     28      -1.3912      2.00000
     29      -1.1840      2.00000
     30      -1.1840      2.00000
     31      -1.0628      2.00000
     32      -1.0628      2.00000
     33      -1.0603      2.00000
     34      -1.0508      2.00000
     35      -1.0460      2.00000
     36      -1.0460      2.00000
     37      -0.9300      2.00000
     38      -0.9300      2.00000
     39      -0.7132      2.00000
     40       0.2285      2.00000
     41       0.2748      2.00000
     42       0.2748      2.00000
     43       0.3519      2.00000
     44       0.4098      2.00000
     45       0.4274      2.00000
     46       0.4274      2.00000
     47       0.4449      2.00000
     48       0.6190      2.00000
     49       0.6704      2.00000
     50       0.6704      2.00000
     51       0.7670      2.00000
     52       0.7670      2.00000
     53       0.8207      2.00000
     54       1.1385      2.00000
     55       1.1385      2.00000
     56       1.3097      2.00000
     57       1.3097      2.00000
     58       1.3113      2.00000
     59       1.3120      2.00000
     60       1.3147      2.00000
     61       1.3263      2.00000
     62       1.3263      2.00000
     63       1.3950      2.00000
     64       1.5087      2.00000
     65       1.5087      2.00000
     66       2.9257      2.00000
     67       2.9257      2.00000
     68       3.2198      2.00000
     69       3.2661      2.00000
     70       3.2689      2.00000
     71       3.2689      2.00000
     72       3.3031      2.00000
     73       3.3241      2.00000
     74       3.3241      2.00000
     75       3.3456      2.00000
     76       3.3722      2.00000
     77       3.3722      2.00000
     78       3.5158      2.00000
     79       3.5158      2.00000
     80       3.5685      2.00000
     81       3.5821      2.00000
     82       3.5833      2.00000
     83       3.5833      2.00000
     84       3.6043      2.00000
     85       3.6389      2.00000
     86       3.6389      2.00000
     87       3.6412      2.00000
     88       3.8136      2.00000
     89       3.8136      2.00000
     90       4.4928      2.00000
     91       4.4928      2.00000
     92       4.6184      2.00000
     93       4.6910      2.00000
     94       4.6910      2.00000
     95       4.6963      2.00000
     96       4.7013      2.00000
     97       4.7013      2.00000
     98       4.7205      2.00000
     99       4.7282      2.00000
    100       4.7282      2.00000
    101       4.7351      2.00000
    102       4.7351      2.00000
    103       4.7393      2.00000
    104       5.0127      2.00000
    105       5.0127      2.00000
    106       5.6895      0.00000
    107       5.7456      0.00000
    108       5.7456      0.00000
    109       6.3041      0.00000
    110       6.4429      0.00000
    111       6.4429      0.00000
    112       6.4597      0.00000
    113       6.4949      0.00000
    114       6.4949      0.00000
    115       6.8468      0.00000
    116       7.2315      0.00000
    117       7.2388      0.00000
    118       7.2388      0.00000
    119       7.2885      0.00000
    120       7.2885      0.00000
    121       7.2913      0.00000
    122       7.3302      0.00000
    123       7.3365      0.00000
    124       7.3365      0.00000
    125       7.3671      0.00000
    126       7.3671      0.00000
    127       7.3772      0.00000
    128       7.4255      0.00000
    129       7.4820      0.00000
    130       7.4820      0.00000
    131       7.4925      0.00000
    132       7.5567      0.00000
    133       7.5567      0.00000
    134       7.5681      0.00000
    135       7.7102      0.00000
    136       7.7545      0.00000
    137       7.7892      0.00000
    138       7.7892      0.00000
    139       7.8206      0.00000
    140       7.8206      0.00000
    141       8.2605      0.00000
    142       8.2605      0.00000
    143       8.3001      0.00000
    144       8.9961      0.00000

 k-point     2 :       0.2500    0.0000    0.0000
  band No.  band energies     occupation 
      1      -6.4332      2.00000
      2      -5.8454      2.00000
      3      -5.3428      2.00000
      4      -5.0118      2.00000
      5      -4.9499      2.00000
      6      -4.8574      2.00000
      7      -4.7141      2.00000
      8      -4.6790      2.00000
      9      -4.6437      2.00000
     10      -4.5836      2.00000
     11      -4.4554      2.00000
     12      -4.2977      2.00000
     13      -3.9946      2.00000
     14      -3.8062      2.00000
     15      -3.7530      2.00000
     16      -3.6682      2.00000
     17      -3.5876      2.00000
     18      -3.4927      2.00000
     19      -3.1898      2.00000
     20      -3.0205      2.00000
     21      -2.9795      2.00000
     22      -2.9782      2.00000
     23      -2.9282      2.00000
     24      -2.8057      2.00000
     25      -2.7623      2.00000
     26      -2.6999      2.00000
     27      -2.4887      2.00000
     28      -1.4967      2.00000
     29      -1.3539      2.00000
     30      -1.2886      2.00000
     31      -1.2351      2.00000
     32      -1.1622      2.00000
     33      -1.0900      2.00000
     34      -1.0885      2.00000
     35      -1.0395      2.00000
     36      -0.9330      2.00000
     37      -0.7342      2.00000
     38      -0.6238      2.00000
     39      -0.5749      2.00000
     40      -0.4756      2.00000
     41      -0.1978      2.00000
     42      -0.1306      2.00000
     43      -0.0440      2.00000
     44       0.0053      2.00000
     45       0.0663      2.00000
     46       0.1485      2.00000
     47       0.7755      2.00000
     48       0.8043      2.00000
     49       0.8636      2.00000
     50       1.1814      2.00000
     51       1.2456      2.00000
     52       1.2763      2.00000
     53       1.3687      2.00000
     54       1.3887      2.00000
     55       1.4835      2.00000
     56       1.4878      2.00000
     57       1.5068      2.00000
     58       1.5073      2.00000
     59       1.5356      2.00000
     60       1.5653      2.00000
     61       1.5722      2.00000
     62       1.6582      2.00000
     63       1.7521      2.00000
     64       1.7817      2.00000
     65       1.8953      2.00000
     66       2.6409      2.00000
     67       2.7328      2.00000
     68       2.8270      2.00000
     69       2.9717      2.00000
     70       3.0481      2.00000
     71       3.1495      2.00000
     72       3.1698      2.00000
     73       3.2272      2.00000
     74       3.2654      2.00000
     75       3.2788      2.00000
     76       3.3018      2.00000
     77       3.3066      2.00000
     78       3.3207      2.00000
     79       3.3403      2.00000
     80       3.3717      2.00000
     81       3.3744      2.00000
     82       3.4471      2.00000
     83       3.5036      2.00000
     84       3.5137      2.00000
     85       3.6075      2.00000
     86       3.6308      2.00000
     87       3.7889      2.00000
     88       3.8810      2.00000
     89       3.9478      2.00000
     90       3.9480      2.00000
     91       4.0235      2.00000
     92       4.0689      2.00000
     93       4.2963      2.00000
     94       4.3534      2.00000
     95       4.3849      2.00000
     96       4.4161      2.00000
     97       4.4580      2.00000
     98       4.5229      2.00000
     99       4.5850      2.00000
    100       4.5965      2.00000
    101       4.6915      2.00000
    102       4.7123      2.00000
    103       4.8137      2.00000
    104       4.9154      2.00000
    105       4.9576      2.00000
    106       5.0441      2.00000
    107       5.5544      0.02378
    108       5.6070      0.00018
    109       6.5429      0.00000
    110       6.6182      0.00000
    111       6.6341      0.00000
    112       6.8002      0.00000
    113       6.9470      0.00000
    114       6.9506      0.00000
    115       6.9589      0.00000
    116       6.9953      0.00000
    117       7.0095      0.00000
    118       7.2417      0.00000
    119       7.4309      0.00000
    120       7.5985      0.00000
    121       7.6011      0.00000
    122       7.6427      0.00000
    123       7.7283      0.00000
    124       7.7611      0.00000
    125       7.7760      0.00000
    126       7.7969      0.00000
    127       7.8060      0.00000
    128       7.8687      0.00000
    129       7.8803      0.00000
    130       7.8943      0.00000
    131       7.9031      0.00000
    132       7.9178      0.00000
    133       7.9470      0.00000
    134       7.9795      0.00000
    135       8.0073      0.00000
    136       8.0623      0.00000
    137       8.0964      0.00000
    138       8.2919      0.00000
    139       8.4486      0.00000
    140       8.4836      0.00000
    141       8.5143      0.00000
    142       8.5559      0.00000
    143       8.5693      0.00000
    144       8.8898      0.00000

 k-point     3 :       0.5000    0.0000    0.0000
  band No.  band energies     occupation 
      1      -6.3694      2.00000
      2      -5.8791      2.00000
      3      -5.5345      2.00000
      4      -5.0137      2.00000
      5      -4.9540      2.00000
      6      -4.9385      2.00000
      7      -4.8822      2.00000
      8      -4.7846      2.00000
      9      -4.4979      2.00000
     10      -4.1783      2.00000
     11      -4.1773      2.00000
     12      -4.1135      2.00000
     13      -4.1132      2.00000
     14      -3.9966      2.00000
     15      -3.9211      2.00000
     16      -3.4988      2.00000
     17      -3.2219      2.00000
     18      -3.2165      2.00000
     19      -3.1651      2.00000
     20      -3.1596      2.00000
     21      -3.1135      2.00000
     22      -3.0052      2.00000
     23      -3.0001      2.00000
     24      -2.9730      2.00000
     25      -2.9713      2.00000
     26      -2.9053      2.00000
     27      -2.5577      2.00000
     28      -1.4149      2.00000
     29      -1.2743      2.00000
     30      -1.2171      2.00000
     31      -1.1249      2.00000
     32      -1.1231      2.00000
     33      -1.0856      2.00000
     34      -1.0665      2.00000
     35      -0.9446      2.00000
     36      -0.8777      2.00000
     37      -0.8700      2.00000
     38      -0.8141      2.00000
     39      -0.7845      2.00000
     40      -0.6156      2.00000
     41      -0.3478      2.00000
     42      -0.3334      2.00000
     43      -0.2887      2.00000
     44      -0.2479      2.00000
     45      -0.1840      2.00000
     46      -0.1369      2.00000
     47       1.1164      2.00000
     48       1.1236      2.00000
     49       1.2608      2.00000
     50       1.2941      2.00000
     51       1.3149      2.00000
     52       1.3578      2.00000
     53       1.6518      2.00000
     54       1.6719      2.00000
     55       1.6965      2.00000
     56       1.7100      2.00000
     57       1.7437      2.00000
     58       1.7456      2.00000
     59       1.8934      2.00000
     60       2.0277      2.00000
     61       2.0831      2.00000
     62       2.1037      2.00000
     63       2.1306      2.00000
     64       2.1514      2.00000
     65       2.4147      2.00000
     66       2.6129      2.00000
     67       2.6445      2.00000
     68       2.6766      2.00000
     69       2.7047      2.00000
     70       2.7399      2.00000
     71       2.8654      2.00000
     72       2.8787      2.00000
     73       2.9643      2.00000
     74       2.9664      2.00000
     75       2.9941      2.00000
     76       3.0204      2.00000
     77       3.0576      2.00000
     78       3.1510      2.00000
     79       3.1629      2.00000
     80       3.1814      2.00000
     81       3.1974      2.00000
     82       3.2962      2.00000
     83       3.3188      2.00000
     84       3.3880      2.00000
     85       3.6266      2.00000
     86       3.6539      2.00000
     87       3.7096      2.00000
     88       3.7443      2.00000
     89       3.7981      2.00000
     90       3.7993      2.00000
     91       3.8789      2.00000
     92       3.9473      2.00000
     93       3.9954      2.00000
     94       3.9964      2.00000
     95       4.0529      2.00000
     96       4.1179      2.00000
     97       4.3153      2.00000
     98       4.3920      2.00000
     99       4.3993      2.00000
    100       4.4217      2.00000
    101       4.4368      2.00000
    102       4.4760      2.00000
    103       4.5214      2.00000
    104       4.6823      2.00000
    105       5.2341      2.00000
    106       5.2667      2.00000
    107       5.2675      2.00000
    108       5.3476      1.99967
    109       6.6420      0.00000
    110       6.7648      0.00000
    111       6.7912      0.00000
    112       6.8157      0.00000
    113       6.8517      0.00000
    114       6.8893      0.00000
    115       7.1966      0.00000
    116       7.5034      0.00000
    117       7.6544      0.00000
    118       7.6843      0.00000
    119       7.6900      0.00000
    120       7.7298      0.00000
    121       7.7317      0.00000
    122       7.9222      0.00000
    123       8.0499      0.00000
    124       8.1195      0.00000
    125       8.1402      0.00000
    126       8.1690      0.00000
    127       8.1756      0.00000
    128       8.2058      0.00000
    129       8.2457      0.00000
    130       8.3328      0.00000
    131       8.4033      0.00000
    132       8.4341      0.00000
    133       8.4396      0.00000
    134       8.4811      0.00000
    135       8.5100      0.00000
    136       8.8213      0.00000
    137       8.9066      0.00000
    138       8.9125      0.00000
    139       8.9184      0.00000
    140       8.9350      0.00000
    141       9.0371      0.00000
    142       9.0585      0.00000
    143       9.0609      0.00000
    144       9.0787      0.00000

 k-point     4 :       0.2500    0.2500    0.0000
  band No.  band energies     occupation 
      1      -6.4208      2.00000
      2      -5.8283      2.00000
      3      -5.2107      2.00000
      4      -5.1938      2.00000
      5      -5.1615      2.00000
      6      -5.0858      2.00000
      7      -4.7481      2.00000
      8      -4.3973      2.00000
      9      -4.3765      2.00000
     10      -4.3338      2.00000
     11      -4.2891      2.00000
     12      -4.2566      2.00000
     13      -4.2036      2.00000
     14      -4.0904      2.00000
     15      -3.7349      2.00000
     16      -3.5444      2.00000
     17      -3.4910      2.00000
     18      -3.4477      2.00000
     19      -3.3483      2.00000
     20      -3.2657      2.00000
     21      -3.1943      2.00000
     22      -3.1838      2.00000
     23      -3.0019      2.00000
     24      -2.5751      2.00000
     25      -2.4813      2.00000
     26      -2.4221      2.00000
     27      -2.2827      2.00000
     28      -1.6767      2.00000
     29      -1.5801      2.00000
     30      -1.5083      2.00000
     31      -1.4463      2.00000
     32      -1.1526      2.00000
     33      -1.0825      2.00000
     34      -1.0818      2.00000
     35      -1.0001      2.00000
     36      -0.7592      2.00000
     37      -0.5953      2.00000
     38      -0.5530      2.00000
     39      -0.4719      2.00000
     40      -0.4634      2.00000
     41      -0.3816      2.00000
     42      -0.3571      2.00000
     43      -0.3362      2.00000
     44      -0.2345      2.00000
     45       0.4467      2.00000
     46       0.4741      2.00000
     47       0.5759      2.00000
     48       0.5976      2.00000
     49       1.1474      2.00000
     50       1.2399      2.00000
     51       1.3100      2.00000
     52       1.3244      2.00000
     53       1.4071      2.00000
     54       1.4095      2.00000
     55       1.4932      2.00000
     56       1.4936      2.00000
     57       1.5591      2.00000
     58       1.5867      2.00000
     59       1.6120      2.00000
     60       1.6406      2.00000
     61       1.7933      2.00000
     62       1.8304      2.00000
     63       1.8608      2.00000
     64       1.9180      2.00000
     65       2.2092      2.00000
     66       2.6612      2.00000
     67       2.6943      2.00000
     68       2.8588      2.00000
     69       2.8856      2.00000
     70       2.9172      2.00000
     71       2.9387      2.00000
     72       2.9507      2.00000
     73       2.9584      2.00000
     74       3.0262      2.00000
     75       3.0305      2.00000
     76       3.2367      2.00000
     77       3.2673      2.00000
     78       3.3394      2.00000
     79       3.3401      2.00000
     80       3.5057      2.00000
     81       3.5716      2.00000
     82       3.6206      2.00000
     83       3.6397      2.00000
     84       3.6698      2.00000
     85       3.6984      2.00000
     86       3.7330      2.00000
     87       3.7346      2.00000
     88       3.8418      2.00000
     89       3.8717      2.00000
     90       3.9088      2.00000
     91       4.0270      2.00000
     92       4.0550      2.00000
     93       4.0560      2.00000
     94       4.1135      2.00000
     95       4.1426      2.00000
     96       4.1572      2.00000
     97       4.2249      2.00000
     98       4.2530      2.00000
     99       4.3097      2.00000
    100       4.4407      2.00000
    101       4.4467      2.00000
    102       4.9506      2.00000
    103       4.9916      2.00000
    104       5.0316      2.00000
    105       5.0668      2.00000
    106       5.1131      2.00000
    107       5.2896      2.00000
    108       5.3802      1.99229
    109       6.3024      0.00000
    110       6.7504      0.00000
    111       6.9086      0.00000
    112       7.0305      0.00000
    113       7.0898      0.00000
    114       7.1130      0.00000
    115       7.1507      0.00000
    116       7.2861      0.00000
    117       7.3880      0.00000
    118       7.4256      0.00000
    119       7.4619      0.00000
    120       7.4882      0.00000
    121       7.4907      0.00000
    122       7.5176      0.00000
    123       7.5218      0.00000
    124       7.6764      0.00000
    125       7.8063      0.00000
    126       7.8583      0.00000
    127       7.8854      0.00000
    128       8.0021      0.00000
    129       8.0435      0.00000
    130       8.1244      0.00000
    131       8.1386      0.00000
    132       8.1592      0.00000
    133       8.2061      0.00000
    134       8.2225      0.00000
    135       8.2285      0.00000
    136       8.2312      0.00000
    137       8.2626      0.00000
    138       8.3147      0.00000
    139       8.3308      0.00000
    140       8.3524      0.00000
    141       8.7944      0.00000
    142       8.8050      0.00000
    143       8.8584      0.00000
    144       8.9755      0.00000

 k-point     5 :       0.5000    0.2500    0.0000
  band No.  band energies     occupation 
      1      -6.3606      2.00000
      2      -5.8025      2.00000
      3      -5.5645      2.00000
      4      -5.3235      2.00000
      5      -5.1389      2.00000
      6      -4.9467      2.00000
      7      -4.6888      2.00000
      8      -4.4910      2.00000
      9      -4.3871      2.00000
     10      -4.2468      2.00000
     11      -4.1109      2.00000
     12      -4.0564      2.00000
     13      -3.9494      2.00000
     14      -3.8967      2.00000
     15      -3.7709      2.00000
     16      -3.6471      2.00000
     17      -3.5973      2.00000
     18      -3.5299      2.00000
     19      -3.4294      2.00000
     20      -3.3609      2.00000
     21      -3.3455      2.00000
     22      -3.1473      2.00000
     23      -2.7631      2.00000
     24      -2.6640      2.00000
     25      -2.5845      2.00000
     26      -2.5011      2.00000
     27      -2.3102      2.00000
     28      -1.6438      2.00000
     29      -1.4983      2.00000
     30      -1.4361      2.00000
     31      -1.3879      2.00000
     32      -1.3175      2.00000
     33      -1.1314      2.00000
     34      -1.0596      2.00000
     35      -1.0322      2.00000
     36      -0.9614      2.00000
     37      -0.7823      2.00000
     38      -0.6792      2.00000
     39      -0.6563      2.00000
     40      -0.5997      2.00000
     41      -0.5506      2.00000
     42      -0.3558      2.00000
     43      -0.1887      2.00000
     44      -0.0142      2.00000
     45       0.0529      2.00000
     46       0.1229      2.00000
     47       0.7012      2.00000
     48       0.7748      2.00000
     49       0.8588      2.00000
     50       1.5297      2.00000
     51       1.6257      2.00000
     52       1.6878      2.00000
     53       1.7264      2.00000
     54       1.7558      2.00000
     55       1.8050      2.00000
     56       1.8808      2.00000
     57       1.9891      2.00000
     58       2.0263      2.00000
     59       2.1685      2.00000
     60       2.2157      2.00000
     61       2.2343      2.00000
     62       2.2589      2.00000
     63       2.2842      2.00000
     64       2.3009      2.00000
     65       2.3605      2.00000
     66       2.4653      2.00000
     67       2.5025      2.00000
     68       2.5913      2.00000
     69       2.6611      2.00000
     70       2.7056      2.00000
     71       2.7462      2.00000
     72       2.7725      2.00000
     73       2.7966      2.00000
     74       2.8531      2.00000
     75       2.9169      2.00000
     76       2.9515      2.00000
     77       3.0338      2.00000
     78       3.0724      2.00000
     79       3.0987      2.00000
     80       3.1391      2.00000
     81       3.1668      2.00000
     82       3.2055      2.00000
     83       3.3651      2.00000
     84       3.4629      2.00000
     85       3.4910      2.00000
     86       3.5327      2.00000
     87       3.5918      2.00000
     88       3.6382      2.00000
     89       3.7440      2.00000
     90       3.7811      2.00000
     91       3.8394      2.00000
     92       3.9207      2.00000
     93       3.9356      2.00000
     94       4.0103      2.00000
     95       4.0659      2.00000
     96       4.0989      2.00000
     97       4.1483      2.00000
     98       4.1710      2.00000
     99       4.2366      2.00000
    100       4.2682      2.00000
    101       4.3367      2.00000
    102       4.4575      2.00000
    103       4.6778      2.00000
    104       4.7877      2.00000
    105       4.8594      2.00000
    106       4.9308      2.00000
    107       5.1711      2.00000
    108       5.3541      1.99934
    109       6.5159      0.00000
    110       7.0091      0.00000
    111       7.1594      0.00000
    112       7.2401      0.00000
    113       7.2677      0.00000
    114       7.4059      0.00000
    115       7.4562      0.00000
    116       7.4844      0.00000
    117       7.6597      0.00000
    118       7.7505      0.00000
    119       7.8096      0.00000
    120       7.8541      0.00000
    121       7.8861      0.00000
    122       7.9359      0.00000
    123       8.0418      0.00000
    124       8.1467      0.00000
    125       8.2072      0.00000
    126       8.2704      0.00000
    127       8.3144      0.00000
    128       8.3542      0.00000
    129       8.3753      0.00000
    130       8.3942      0.00000
    131       8.4376      0.00000
    132       8.4974      0.00000
    133       8.6472      0.00000
    134       8.6725      0.00000
    135       8.7005      0.00000
    136       8.7387      0.00000
    137       8.7454      0.00000
    138       8.7780      0.00000
    139       8.8505      0.00000
    140       8.8846      0.00000
    141       8.9126      0.00000
    142       8.9488      0.00000
    143       8.9696      0.00000
    144       8.9927      0.00000

 k-point     6 :      -0.2500    0.2500    0.0000
  band No.  band energies     occupation 
      1      -6.3760      2.00000
      2      -5.8387      2.00000
      3      -5.5152      2.00000
      4      -5.2819      2.00000
      5      -4.9953      2.00000
      6      -4.9109      2.00000
      7      -4.6438      2.00000
      8      -4.6373      2.00000
      9      -4.5032      2.00000
     10      -4.3467      2.00000
     11      -4.1853      2.00000
     12      -4.1103      2.00000
     13      -4.0634      2.00000
     14      -3.9880      2.00000
     15      -3.7228      2.00000
     16      -3.5614      2.00000
     17      -3.4988      2.00000
     18      -3.3820      2.00000
     19      -3.3367      2.00000
     20      -3.1842      2.00000
     21      -3.1722      2.00000
     22      -3.0526      2.00000
     23      -3.0126      2.00000
     24      -2.9270      2.00000
     25      -2.7455      2.00000
     26      -2.5373      2.00000
     27      -2.2770      2.00000
     28      -1.7964      2.00000
     29      -1.3905      2.00000
     30      -1.2245      2.00000
     31      -1.1382      2.00000
     32      -1.1054      2.00000
     33      -1.0337      2.00000
     34      -0.9792      2.00000
     35      -0.9399      2.00000
     36      -0.8945      2.00000
     37      -0.8913      2.00000
     38      -0.8406      2.00000
     39      -0.8021      2.00000
     40      -0.7774      2.00000
     41      -0.6861      2.00000
     42      -0.5437      2.00000
     43       0.1776      2.00000
     44       0.2218      2.00000
     45       0.2561      2.00000
     46       0.4018      2.00000
     47       0.4548      2.00000
     48       0.5117      2.00000
     49       0.5285      2.00000
     50       1.4618      2.00000
     51       1.5244      2.00000
     52       1.5726      2.00000
     53       1.6916      2.00000
     54       1.7448      2.00000
     55       1.7768      2.00000
     56       1.7948      2.00000
     57       1.8148      2.00000
     58       1.8236      2.00000
     59       1.9929      2.00000
     60       2.0303      2.00000
     61       2.1022      2.00000
     62       2.1230      2.00000
     63       2.1948      2.00000
     64       2.2978      2.00000
     65       2.3347      2.00000
     66       2.4384      2.00000
     67       2.5069      2.00000
     68       2.6371      2.00000
     69       2.6493      2.00000
     70       2.7236      2.00000
     71       2.7420      2.00000
     72       2.7716      2.00000
     73       2.8347      2.00000
     74       3.0085      2.00000
     75       3.0518      2.00000
     76       3.0682      2.00000
     77       3.1168      2.00000
     78       3.1507      2.00000
     79       3.1978      2.00000
     80       3.2676      2.00000
     81       3.2997      2.00000
     82       3.3481      2.00000
     83       3.3807      2.00000
     84       3.4478      2.00000
     85       3.4922      2.00000
     86       3.5375      2.00000
     87       3.6421      2.00000
     88       3.7259      2.00000
     89       3.7494      2.00000
     90       3.7874      2.00000
     91       3.8834      2.00000
     92       3.8855      2.00000
     93       4.0529      2.00000
     94       4.1101      2.00000
     95       4.2448      2.00000
     96       4.3035      2.00000
     97       4.3518      2.00000
     98       4.3941      2.00000
     99       4.4141      2.00000
    100       4.4550      2.00000
    101       4.4901      2.00000
    102       4.5378      2.00000
    103       4.6160      2.00000
    104       4.6415      2.00000
    105       4.8115      2.00000
    106       4.8344      2.00000
    107       4.9635      2.00000
    108       5.5880      0.00131
    109       6.6701      0.00000
    110       6.9125      0.00000
    111       6.9497      0.00000
    112       7.0984      0.00000
    113       7.1794      0.00000
    114       7.3018      0.00000
    115       7.4413      0.00000
    116       7.5041      0.00000
    117       7.5392      0.00000
    118       7.5752      0.00000
    119       7.6094      0.00000
    120       7.6406      0.00000
    121       7.6475      0.00000
    122       7.7433      0.00000
    123       7.8279      0.00000
    124       8.0401      0.00000
    125       8.1444      0.00000
    126       8.1711      0.00000
    127       8.1933      0.00000
    128       8.2650      0.00000
    129       8.3195      0.00000
    130       8.3425      0.00000
    131       8.3618      0.00000
    132       8.3700      0.00000
    133       8.3783      0.00000
    134       8.3887      0.00000
    135       8.4196      0.00000
    136       8.5599      0.00000
    137       8.6039      0.00000
    138       8.6494      0.00000
    139       8.7847      0.00000
    140       8.8658      0.00000
    141       8.9400      0.00000
    142       8.9684      0.00000
    143       9.0336      0.00000
    144       9.0647      0.00000

 k-point     7 :       0.5000    0.5000    0.0000
  band No.  band energies     occupation 
      1      -6.3485      2.00000
      2      -5.7439      2.00000
      3      -5.5629      2.00000
      4      -5.3009      2.00000
      5      -5.2996      2.00000
      6      -5.2059      2.00000
      7      -4.6929      2.00000
      8      -4.0489      2.00000
      9      -3.9937      2.00000
     10      -3.9750      2.00000
     11      -3.9566      2.00000
     12      -3.9558      2.00000
     13      -3.8921      2.00000
     14      -3.8902      2.00000
     15      -3.8418      2.00000
     16      -3.7994      2.00000
     17      -3.7736      2.00000
     18      -3.7568      2.00000
     19      -3.7376      2.00000
     20      -3.7085      2.00000
     21      -3.6583      2.00000
     22      -3.3312      2.00000
     23      -2.3728      2.00000
     24      -2.1371      2.00000
     25      -2.0646      2.00000
     26      -2.0516      2.00000
     27      -2.0130      2.00000
     28      -2.0020      2.00000
     29      -1.9691      2.00000
     30      -1.9139      2.00000
     31      -1.9084      2.00000
     32      -1.6542      2.00000
     33      -1.0028      2.00000
     34      -0.9755      2.00000
     35      -0.8957      2.00000
     36      -0.8946      2.00000
     37      -0.8840      2.00000
     38      -0.8669      2.00000
     39      -0.7853      2.00000
     40      -0.7214      2.00000
     41      -0.1002      2.00000
     42      -0.0368      2.00000
     43       0.0465      2.00000
     44       0.0632      2.00000
     45       0.0776      2.00000
     46       0.1062      2.00000
     47       0.1918      2.00000
     48       0.2651      2.00000
     49       1.6927      2.00000
     50       1.7044      2.00000
     51       1.8827      2.00000
     52       1.9761      2.00000
     53       2.0148      2.00000
     54       2.0189      2.00000
     55       2.0620      2.00000
     56       2.0752      2.00000
     57       2.0801      2.00000
     58       2.0842      2.00000
     59       2.0878      2.00000
     60       2.0919      2.00000
     61       2.1301      2.00000
     62       2.1425      2.00000
     63       2.1570      2.00000
     64       2.1756      2.00000
     65       2.1837      2.00000
     66       2.2143      2.00000
     67       2.2460      2.00000
     68       2.3461      2.00000
     69       2.7687      2.00000
     70       2.7828      2.00000
     71       2.8523      2.00000
     72       2.8695      2.00000
     73       2.9172      2.00000
     74       2.9298      2.00000
     75       2.9659      2.00000
     76       2.9663      2.00000
     77       3.0034      2.00000
     78       3.0298      2.00000
     79       3.2157      2.00000
     80       3.2298      2.00000
     81       3.3195      2.00000
     82       3.3313      2.00000
     83       3.3793      2.00000
     84       3.3974      2.00000
     85       3.4097      2.00000
     86       3.4115      2.00000
     87       3.4307      2.00000
     88       3.4611      2.00000
     89       3.5357      2.00000
     90       3.5599      2.00000
     91       3.6555      2.00000
     92       3.7260      2.00000
     93       3.7477      2.00000
     94       3.9110      2.00000
     95       3.9303      2.00000
     96       3.9404      2.00000
     97       3.9440      2.00000
     98       3.9733      2.00000
     99       4.1001      2.00000
    100       4.1251      2.00000
    101       4.4660      2.00000
    102       4.5231      2.00000
    103       4.5591      2.00000
    104       4.6324      2.00000
    105       5.0920      2.00000
    106       5.1323      2.00000
    107       5.1508      2.00000
    108       5.2954      2.00000
    109       6.4269      0.00000
    110       6.4572      0.00000
    111       7.3000      0.00000
    112       7.4274      0.00000
    113       7.5766      0.00000
    114       7.6885      0.00000
    115       7.7458      0.00000
    116       7.7704      0.00000
    117       7.7744      0.00000
    118       7.7819      0.00000
    119       7.7874      0.00000
    120       7.9389      0.00000
    121       8.2859      0.00000
    122       8.3211      0.00000
    123       8.3453      0.00000
    124       8.4350      0.00000
    125       8.4501      0.00000
    126       8.4709      0.00000
    127       8.4789      0.00000
    128       8.5133      0.00000
    129       8.5314      0.00000
    130       8.5441      0.00000
    131       8.5581      0.00000
    132       8.5823      0.00000
    133       8.5839      0.00000
    134       8.5919      0.00000
    135       8.6378      0.00000
    136       8.6897      0.00000
    137       8.6908      0.00000
    138       8.7329      0.00000
    139       8.7648      0.00000
    140       8.8513      0.00000
    141       9.1529      0.00000
    142       9.1655      0.00000
    143       9.2830      0.00000
[...]
   50        0.752   0.932   0.000   1.684
   51        0.752   0.927   0.000   1.679
   52        0.752   0.934   0.000   1.686
   53        0.653   1.084   0.000   1.738
   54        1.018   1.432   0.000   2.450
--------------------------------------------------
tot         40.770  50.595   0.000  91.365
 
    CHARGE:  cpu time    0.2942: real time    0.2969
    FORLOC:  cpu time    0.0614: real time    0.0620
    FORNL :  cpu time    3.4771: real time    3.5196
    STRESS:  cpu time    9.7666: real time    9.8436
    FORCOR:  cpu time    0.1134: real time    0.1141
    FORHAR:  cpu time    0.0517: real time    0.0521
    MIXING:  cpu time    0.0040: real time    0.0040
    OFIELD:  cpu time    0.0001: real time    0.0001

  FORCE on cell =-STRESS in cart. coord.  units (eV):
  Direction    XX          YY          ZZ          XY          YZ          ZX
  --------------------------------------------------------------------------------------
  Alpha Z    96.03251    96.03251    96.03251
  Ewald   -2058.33897 -2058.83393 -2056.35914     0.69997     1.21239     1.71458
  Hartree   139.86672   139.46205   141.48537     0.57228     0.99122     1.40179
  E(xc)    -679.90222  -679.90605  -679.88686     0.00543     0.00940     0.01330
  Local    -795.85737  -794.95816  -799.45420    -1.27167    -2.20260    -3.11495
  n-local  2056.55985  2069.33808  2074.66144    -3.14369    -2.75081     0.12486
  augment  -312.94729  -312.92301  -313.04440    -0.03433    -0.05947    -0.08410
  Kinetic  1519.76033  1540.36534  1546.62972    -4.04236    -4.86223    -1.41185
  Fock        0.00000     0.00000     0.00000     0.00000     0.00000     0.00000
  -------------------------------------------------------------------------------------
  Total      -8.73817    -8.74794    -8.69907     0.01382     0.02394     0.03386
  in kB     -12.95113   -12.96562   -12.89318     0.02049     0.03549     0.05019
  external pressure =      -12.94 kB  Pullay stress =        0.00 kB


 VOLUME and BASIS-vectors are now :
 -----------------------------------------------------------------------------
  energy-cutoff  :      550.00
  volume of cell :     1080.99
      direct lattice vectors                 reciprocal lattice vectors
     9.976465530  0.000000000  5.759915070     0.100235900 -0.035438742  0.000000000
     3.325488510  9.405901920  5.759915070     0.000000000  0.106316227  0.000000000
     0.000000000  0.000000000 11.519830140    -0.050117950 -0.035438742  0.086806836

  length of vectors
    11.519830124 11.519830136 11.519830140     0.106316227  0.106316227  0.106316227


 FORCES acting on ions
    electron-ion (+dipol)            ewald-force                    non-local-force                 convergence-correction
 -----------------------------------------------------------------------------------------------
   0.277E+01 0.196E+01 -.118E+02   -.299E+01 -.211E+01 0.114E+02   0.223E+00 0.158E+00 0.423E+00   -.119E-02 -.845E-03 -.253E-02
   -.249E+01 -.176E+01 0.215E+01   0.156E+01 0.111E+01 -.244E+01   0.925E+00 0.654E+00 0.292E+00   -.160E-02 -.113E-02 0.175E-02
   -.203E+01 -.116E+02 -.351E+01   0.179E+01 0.114E+02 0.311E+01   0.234E+00 0.188E+00 0.405E+00   -.133E-02 -.122E-02 -.230E-02
   -.236E+00 -.153E+01 -.264E+01   0.262E+00 0.138E+01 0.241E+01   -.289E-01 0.153E+00 0.234E+00   0.155E-03 0.437E-03 0.803E-03
   -.149E+01 -.287E+01 0.533E+01   0.138E+01 0.322E+01 -.478E+01   0.112E+00 -.342E+00 -.553E+00   -.387E-03 -.817E-04 0.455E-03
   -.624E+00 0.351E+01 -.108E+01   0.761E-01 -.310E+01 0.132E+00   0.547E+00 -.416E+00 0.947E+00   -.297E-03 0.256E-02 -.514E-03
   0.165E+01 0.602E+01 -.110E+00   -.175E+01 -.563E+01 0.641E+00   0.948E-01 -.391E+00 -.523E+00   -.153E-03 0.582E-03 0.492E-04
   -.701E+00 0.826E+00 0.944E+00   0.443E+00 -.495E+00 -.553E+00   0.254E+00 -.322E+00 -.380E+00   -.110E-02 0.121E-02 0.135E-02
   -.116E+02 0.196E+01 -.351E+01   0.114E+02 -.211E+01 0.311E+01   0.255E+00 0.158E+00 0.405E+00   -.159E-02 -.845E-03 -.230E-02
   -.152E+01 0.288E+00 -.264E+01   0.139E+01 -.214E+00 0.241E+01   0.135E+00 -.784E-01 0.234E+00   0.464E-03 0.511E-07 0.803E-03
   -.321E+01 -.451E+00 0.533E+01   0.350E+01 0.227E+00 -.478E+01   -.285E+00 0.220E+00 -.553E+00   -.206E-03 -.338E-03 0.455E-03
   -.217E+01 -.153E+01 -.152E+01   0.195E+01 0.138E+01 0.143E+01   0.217E+00 0.153E+00 0.918E-01   0.618E-03 0.437E-03 0.536E-03
   0.906E-01 0.641E-01 0.157E+00   -.649E-01 -.459E-01 -.112E+00   -.247E-01 -.175E-01 -.428E-01   -.370E-03 -.262E-03 -.641E-03
   -.273E+01 -.193E+01 0.152E+01   0.257E+01 0.181E+01 -.145E+01   0.173E+00 0.122E+00 -.743E-01   0.418E-03 0.295E-03 0.366E-03
   -.919E+00 0.602E+01 0.137E+01   0.143E+01 -.563E+01 -.120E+01   -.500E+00 -.391E+00 -.180E+00   0.119E-03 0.582E-03 -.108E-03
   -.926E+00 0.317E+01 -.160E+01   0.865E+00 -.300E+01 0.150E+01   0.649E-01 -.183E+00 0.112E+00   0.315E-03 0.396E-05 0.545E-03
   -.594E-01 0.210E+00 0.309E+00   0.514E-01 -.244E+00 -.368E+00   0.941E-02 0.320E-01 0.577E-01   -.247E-02 0.535E-03 -.554E-03
   0.310E+01 -.176E+01 -.108E+01   -.290E+01 0.111E+01 0.132E+00   -.210E+00 0.654E+00 0.947E+00   0.231E-02 -.113E-02 -.514E-03
   0.622E+01 -.451E+00 -.110E+00   -.589E+01 0.227E+00 0.641E+00   -.337E+00 0.220E+00 -.523E+00   0.498E-03 -.338E-03 0.492E-04
   0.545E+00 -.937E+00 0.944E+00   -.319E+00 0.583E+00 -.553E+00   -.219E+00 0.347E+00 -.380E+00   0.779E-03 -.144E-02 0.135E-02
   0.537E+01 -.287E+01 0.137E+01   -.483E+01 0.322E+01 -.120E+01   -.535E+00 -.342E+00 -.180E+00   0.588E-03 -.817E-04 -.108E-03
   0.268E+01 -.193E+01 -.160E+01   -.254E+01 0.181E+01 0.150E+01   -.151E+00 0.122E+00 0.112E+00   0.109E-03 0.295E-03 0.545E-03
   0.178E+00 -.126E+00 0.309E+00   -.213E+00 0.130E+00 -.368E+00   0.333E-01 -.179E-02 0.577E-01   -.320E-03 -.251E-02 -.554E-03
   0.117E+01 0.826E+00 -.135E+00   -.700E+00 -.495E+00 0.108E+00   -.456E+00 -.322E+00 0.299E-01   0.172E-02 0.121E-02 -.275E-03
   0.297E+00 0.210E+00 0.103E+00   -.345E+00 -.244E+00 -.140E+00   0.452E-01 0.320E-01 0.370E-01   0.756E-03 0.535E-03 -.242E-02
   -.245E-03 -.173E-03 -.424E-03   0.304E-01 0.215E-01 0.527E-01   -.294E-01 -.208E-01 -.510E-01   0.123E-02 0.870E-03 0.213E-02
   -.513E+00 -.363E+00 -.888E+00   0.542E+00 0.383E+00 0.939E+00   -.301E-01 -.213E-01 -.521E-01   0.777E-03 0.549E-03 0.135E-02
   0.675E+00 0.477E+00 0.784E+00   -.701E+00 -.496E+00 -.834E+00   0.368E-01 0.260E-01 0.569E-01   0.986E-03 0.697E-03 -.106E-02
   0.223E+01 0.158E+01 0.153E+00   -.222E+01 -.157E+01 -.144E+00   -.147E-01 -.104E-01 -.815E-02   0.189E-02 0.133E-02 0.562E-03
   0.564E+00 0.163E+00 0.976E+00   -.591E+00 -.185E+00 -.102E+01   0.348E-01 0.204E-01 0.603E-01   0.187E-03 -.156E-02 0.325E-03
   0.899E+01 0.532E+00 0.606E+01   -.121E+02 0.899E+00 -.555E+01   0.314E+01 -.142E+01 -.513E+00   0.200E-02 -.110E-02 -.648E-03
   0.216E+01 0.196E+01 -.701E+01   -.202E+01 -.159E+01 0.643E+01   -.140E+00 -.365E+00 0.587E+00   0.197E-03 -.447E-03 -.561E-03
   0.116E+01 -.145E+01 0.201E+01   -.115E+01 0.145E+01 -.199E+01   -.971E-02 0.375E-02 -.168E-01   0.111E-02 -.875E-03 0.192E-02
   -.115E+01 -.739E+01 -.128E+01   0.925E+00 0.673E+01 0.133E+01   0.225E+00 0.667E+00 -.446E-01   0.212E-03 -.402E-03 -.589E-03
   0.194E+00 -.535E+00 -.762E+00   -.188E+00 0.495E+00 0.700E+00   -.748E-02 0.425E-01 0.651E-01   0.392E-05 -.962E-03 -.157E-02
   0.342E+00 0.477E+00 0.976E+00   -.372E+00 -.496E+00 -.102E+01   0.308E-01 0.260E-01 0.603E-01   -.141E-02 0.697E-03 0.325E-03
   0.350E+01 0.830E+01 0.606E+01   -.320E+01 -.118E+02 -.555E+01   -.296E+00 0.343E+01 -.513E+00   -.374E-03 0.225E-02 -.648E-03
   0.257E+01 0.138E+01 -.701E+01   -.217E+01 -.137E+01 0.643E+01   -.390E+00 -.102E-01 0.587E+00   -.356E-03 0.334E-03 -.561E-03
   0.752E+00 0.532E+00 0.108E+02   0.127E+01 0.899E+00 -.133E+02   -.201E+01 -.142E+01 0.246E+01   -.156E-02 -.110E-02 0.141E-02
   0.430E+01 0.304E+01 -.411E+01   -.339E+01 -.240E+01 0.369E+01   -.916E+00 -.648E+00 0.405E+00   0.315E-03 0.222E-03 0.122E-02
   -.538E+00 -.739E+01 -.163E+01   0.691E+00 0.673E+01 0.147E+01   -.151E+00 0.667E+00 0.172E+00   -.616E-03 -.402E-03 -.110E-03
   0.965E+00 -.640E+01 0.167E+01   -.631E+00 0.541E+01 -.109E+01   -.341E+00 0.978E+00 -.591E+00   0.510E-03 0.774E-03 0.883E-03
   0.788E+00 -.400E+00 -.199E+00   -.571E+00 0.798E-01 -.199E+00   -.210E+00 0.322E+00 0.405E+00   -.156E-02 0.477E-03 -.121E-03
   -.982E+00 0.158E+01 0.201E+01   0.984E+00 -.157E+01 -.199E+01   0.296E-03 -.104E-01 -.168E-01   -.457E-03 0.133E-02 0.192E-02
   -.735E+01 0.138E+01 -.128E+01   0.665E+01 -.137E+01 0.133E+01   0.704E+00 -.102E-01 -.446E-01   -.308E-03 0.334E-03 -.589E-03
   -.440E+00 0.362E+00 -.762E+00   0.404E+00 -.342E+00 0.700E+00   0.376E-01 -.212E-01 0.651E-01   -.905E-03 0.324E-03 -.157E-02
   -.715E+01 0.196E+01 -.163E+01   0.657E+01 -.159E+01 0.147E+01   0.578E+00 -.365E+00 0.172E+00   -.584E-03 -.447E-03 -.110E-03
   -.571E+01 0.304E+01 0.167E+01   0.489E+01 -.240E+01 -.109E+01   0.809E+00 -.648E+00 -.591E+00   0.900E-03 0.222E-03 0.883E-03
   -.115E+00 0.876E+00 -.199E+00   -.115E+00 -.565E+00 -.199E+00   0.234E+00 -.305E+00 0.405E+00   -.698E-04 -.163E-02 -.121E-03
   -.757E+00 -.535E+00 -.213E+00   0.700E+00 0.495E+00 0.187E+00   0.601E-01 0.425E-01 0.261E-01   -.136E-02 -.962E-03 -.781E-03
   -.566E+00 -.400E+00 0.582E+00   0.113E+00 0.798E-01 -.594E+00   0.455E+00 0.322E+00 0.208E-01   0.675E-03 0.477E-03 -.141E-02
   -.252E+00 -.178E+00 -.437E+00   0.262E+00 0.185E+00 0.453E+00   -.119E-01 -.839E-02 -.205E-01   0.121E-02 0.856E-03 0.210E-02
   -.399E+01 -.282E+01 -.691E+01   0.496E+01 0.351E+01 0.859E+01   -.981E+00 -.694E+00 -.170E+01   -.201E-02 -.142E-02 -.347E-02
   0.580E+01 0.410E+01 0.100E+02   -.562E+01 -.397E+01 -.973E+01   -.193E+00 -.136E+00 -.334E+00   0.133E-02 0.939E-03 0.230E-02
 -----------------------------------------------------------------------------------------------
   -.118E+01 -.836E+00 -.205E+01   -.533E-13 0.910E-13 0.338E-13   0.118E+01 0.836E+00 0.205E+01   -.211E-03 -.149E-03 -.366E-03
 
 
 POSITION                                       TOTAL-FORCE (eV/Angst)
 -----------------------------------------------------------------------------------
      3.98961      2.82108     10.35053         0.004258      0.003011     -0.011308
      3.87369      2.73911     14.40147        -0.000952     -0.000673     -0.004144
      4.98275      5.63010      8.63037        -0.001135     -0.012244     -0.001966
      4.99381      5.87298     12.47371        -0.002973      0.002926      0.003062
      4.99100      5.88378     16.34128        -0.001759      0.010797     -0.001910
      6.09419      9.01964     10.55545        -0.001672     -0.002710     -0.002897
      6.10285      9.02856     14.41550        -0.007107     -0.004329      0.007353
      6.09791      9.00910     18.23242        -0.005204      0.009593      0.012661
      6.96902      2.82108      8.63037        -0.011922      0.003011     -0.001966
      7.20170      2.75055     12.47371         0.001768     -0.003778      0.003062
      7.21095      2.74430     16.34128         0.009593     -0.005258     -0.001910
      8.30564      5.87298     10.56162         0.004138      0.002926     -0.001043
      8.31579      5.88015     14.40337         0.000579      0.000409      0.001002
      8.30482      5.87239     18.23533         0.007347      0.005195      0.001039
      9.43277      9.02856     12.49297         0.009921     -0.004329     -0.002479
      9.41650      9.01669     16.30985         0.003973     -0.004347      0.006882
      9.42253      9.01217     20.15691        -0.001065     -0.001208     -0.002587
     10.53519      2.73911     10.55545        -0.003113     -0.000673     -0.002897
     10.54649      2.74430     14.41550        -0.006451     -0.005258      0.007353
     10.52649      2.74613     18.23242         0.007310     -0.008104      0.012661
     11.65646      5.88378     12.49297        -0.000775      0.010797     -0.002479
     11.63985      5.87239     16.30985        -0.002774      0.005195      0.006882
     11.63760      5.87959     20.15691        -0.001493     -0.000601     -0.002587
     12.74079      9.00910     14.39716         0.013567      0.009593      0.001824
     12.74513      9.01217     18.23861        -0.001708     -0.001208     -0.002215
     12.75010      9.01568     22.08382         0.001977      0.001398      0.003425
      0.55763      0.39430      0.96584         0.000048      0.000034      0.000084
      0.54976      0.38874      4.79509         0.011539      0.008159      0.005927
      0.55375      0.39156      8.63936        -0.001925     -0.001361      0.000855
      1.65910      3.52644      2.87365         0.007480     -0.003320      0.012956
      1.72006      3.51864      6.73899        -0.019228      0.006375     -0.000691
      1.71835      3.51922     10.55524         0.005047      0.001235      0.003892
      2.77084      6.66245      4.79924        -0.000716      0.002059     -0.001240
      2.82002      6.63520      8.64710         0.004747      0.000387      0.004411
      2.77330      6.65802     12.47367        -0.000726      0.001017      0.001242
      3.87779      0.38874      2.87365        -0.000636      0.008159      0.012956
      3.89076      0.44881      6.73899        -0.000399     -0.020254     -0.000691
      3.89074      0.44700     10.55524         0.002847      0.004347      0.003892
      4.97610      3.51864      4.85911         0.009016      0.006375     -0.016998
      4.97940      3.52097     12.42703        -0.004703     -0.003326     -0.016795
      6.07860      6.63520      6.76576         0.001446      0.000387      0.006317
      6.07708      6.62566     10.52581        -0.007200     -0.010387     -0.012470
      6.09760      6.65908     14.39467         0.005338      0.001923      0.006222
      7.20503      0.39156      4.79924         0.001703     -0.001361     -0.001240
      7.19573      0.44700      8.64710         0.001947      0.004347      0.004411
      7.20168      0.39536     12.47367         0.000717     -0.001024      0.001242
      8.28193      3.51922      6.76576         0.000847      0.001235      0.006317
      8.27242      3.52097     10.52581        -0.012193     -0.003326     -0.012470
      8.31077      3.52918     14.39467         0.003592      0.004392      0.006222
      9.41587      6.65802      8.63859         0.001438      0.001017     -0.000008
      9.41735      6.65908     12.47801         0.002719      0.001923      0.007734
      9.42412      6.66386     16.32306        -0.001354     -0.000957     -0.002345
      4.96885      3.51351      8.60630        -0.015702     -0.011103     -0.027197
      3.98450      2.81747      6.90136        -0.010019     -0.007085     -0.017354
 -----------------------------------------------------------------------------------
    total drift:                                0.000565      0.000399      0.000979


--------------------------------------------------------------------------------------------------------



  FREE ENERGIE OF THE ION-ELECTRON SYSTEM (eV)
  ---------------------------------------------------
  free  energy   TOTEN  =      -299.39545247 eV

  energy  without entropy=     -299.39307723  energy(sigma->0) =     -299.39426485
 
 d Force = 0.1032913E-02[ 0.631E-03, 0.143E-02]  d Energy = 0.1026062E-02 0.685E-05
 d Force =-0.6881858E-01[-0.693E-01,-0.683E-01]  d Ewald  =-0.6882436E-01 0.578E-05


--------------------------------------------------------------------------------------------------------


    POTLOK:  cpu time    0.0863: real time    0.0896


--------------------------------------------------------------------------------------------------------


 Conjugate gradient step on ions:
 trial-energy change:   -0.001026  1 .order   -0.001033   -0.001434   -0.000631
  (g-gl).g = 0.996E-03      g.g   = 0.101E-02  gl.gl    = 0.373E-02
 g(Force)  = 0.101E-02   g(Stress)= 0.000E+00 ortho     = 0.506E-04
 gamma     =   0.26735
 trial     =   1.39494
 opt step  =   2.49182  (harmonic =   2.49182) maximal distance =0.00240809
 next E    =  -299.395708   (d E  =  -0.00128)


--------------------------------------------------------------------------------------------------------


  
 reached required accuracy - stopping structural energy minimisation
 writing wavefunctions
     LOOP+:  cpu time   50.9487: real time   51.4733
    4ORBIT:  cpu time    0.0000: real time    0.0000
 


 total charge     
 
# of ion       s       p       d       tot
------------------------------------------
    1        0.749   0.895   0.000   1.644
    2        0.752   0.919   0.000   1.671
    3        0.749   0.894   0.000   1.643
    4        0.752   0.934   0.000   1.686
    5        0.752   0.930   0.000   1.682
    6        0.751   0.919   0.000   1.670
    7        0.752   0.930   0.000   1.683
    8        0.751   0.925   0.000   1.676
    9        0.750   0.893   0.000   1.643
   10        0.752   0.934   0.000   1.686
   11        0.751   0.929   0.000   1.681
   12        0.752   0.935   0.000   1.687
   13        0.752   0.936   0.000   1.688
   14        0.752   0.932   0.000   1.685
   15        0.752   0.929   0.000   1.681
   16        0.752   0.933   0.000   1.685
   17        0.752   0.933   0.000   1.685
   18        0.751   0.918   0.000   1.669
   19        0.752   0.930   0.000   1.682
   20        0.751   0.926   0.000   1.677
   21        0.752   0.930   0.000   1.682
   22        0.752   0.933   0.000   1.686
   23        0.752   0.933   0.000   1.685
   24        0.751   0.925   0.000   1.676
   25        0.752   0.934   0.000   1.686
   26        0.752   0.935   0.000   1.686
   27        0.752   0.935   0.000   1.687
   28        0.752   0.936   0.000   1.688
   29        0.752   0.934   0.000   1.686
   30        0.752   0.936   0.000   1.688
   31        0.753   0.888   0.000   1.641
   32        0.752   0.925   0.000   1.677
   33        0.752   0.934   0.000   1.686
   34        0.752   0.924   0.000   1.676
   35        0.752   0.933   0.000   1.685
   36        0.752   0.936   0.000   1.688
   37        0.754   0.886   0.000   1.641
   38        0.752   0.925   0.000   1.677
   39        0.754   0.886   0.000   1.640
   40        0.753   0.916   0.000   1.669
   41        0.752   0.925   0.000   1.677
   42        0.752   0.916   0.000   1.668
   43        0.752   0.928   0.000   1.680
   44        0.752   0.934   0.000   1.686
   45        0.752   0.924   0.000   1.676
   46        0.752   0.932   0.000   1.684
   47        0.752   0.924   0.000   1.677
   48        0.752   0.915   0.000   1.667
   49        0.751   0.927   0.000   1.678
   50        0.752   0.932   0.000   1.684
   51        0.752   0.927   0.000   1.679
   52        0.752   0.934   0.000   1.686
   53        0.653   1.084   0.000   1.738
   54        1.018   1.432   0.000   2.450
--------------------------------------------------
tot         40.770  50.595   0.000  91.365
 

 total amount of memory used by VASP MPI-rank0   203693. kBytes
=======================================================================

   base      :      30000. kBytes
   nonl-proj :     106606. kBytes
   fftplans  :       5382. kBytes
   grid      :      21405. kBytes
   one-center:        165. kBytes
   wavefun   :      40135. kBytes
 
  
  
 General timing and accounting informations for this job:
 ========================================================
  
                  Total CPU time used (sec):      571.443
                            User time (sec):      564.462
                          System time (sec):        6.981
                         Elapsed time (sec):      586.926
  
                   Maximum memory used (kb):      507692.
                   Average memory used (kb):           0.
  
                          Minor page faults:        60524
                          Major page faults:            0
                 Voluntary context switches:         5767
