<?xml version="1.0" encoding="ISO-8859-1"?>
<modeling>
 <generator>
  <i name="program" type="string">vasp </i>
  <i name="version" type="string">5.4.4.18Apr17-6-g9f103f2a35  </i>
  <i name="subversion" type="string">(build Jun 19 2019 10:34:07) complex            parallel </i>
  <i name="platform" type="string">LB-5.4 </i>
  <i name="date" type="string">2023 05 15 </i>
  <i name="time" type="string">18:32:31 </i>
 </generator>
 <incar>
  <i type="string" name="SYSTEM"> Si</i>
  <i type="string" name="PREC">normal</i>
  <i type="string" name="ALGO"> Normal</i>
  <i type="int" name="ISPIN">     1</i>
  <i name="AMIX">      0.20000000</i>
  <i type="int" name="NELM">   200</i>
  <i type="int" name="IBRION">     2</i>
  <i name="EDIFF">      0.00000100</i>
  <i name="EDIFFG">     -0.05000000</i>
  <i type="int" name="NSW">     0</i>
  <i type="int" name="ISIF">     2</i>
  <i type="int" name="ISYM">     2</i>
  <i name="ENCUT">    550.00000000</i>
  <i name="NELECT">    220.00000000</i>
  <i type="logical" name="LREAL"> F  </i>
  <i type="int" name="ISMEAR">     0</i>
  <i name="SIGMA">      0.05000000</i>
  <i type="logical" name="LWAVE"> T  </i>
  <i type="logical" name="LCHARG"> T  </i>
  <i type="int" name="LORBIT">    10</i>
  <v type="int" name="KPOINT_BSE">    -1     0     0     0</v>
  <i type="int" name="NELM">   200</i>
 </incar>
 <structure name="primitive_cell" >
  <crystal>
   <varray name="basis" >
    <v>       9.97646553       0.00000000       5.75991507 </v>
    <v>       3.32548851       9.40590192       5.75991507 </v>
    <v>       0.00000000       0.00000000      11.51983014 </v>
   </varray>
   <i name="volume">   1080.99386112 </i>
   <varray name="rec_basis" >
    <v>       0.10023590      -0.03543874       0.00000000 </v>
    <v>       0.00000000       0.10631623       0.00000000 </v>
    <v>      -0.05011795      -0.03543874       0.08680684 </v>
   </varray>
  </crystal>
  <varray name="positions" >
   <v>       0.29166667       0.29166667       0.29166667 </v>
   <v>       0.04166667       0.37500000       0.37500000 </v>
   <v>       0.37500000       0.37500000       0.04166667 </v>
   <v>       0.37500000       0.37500000       0.37500000 </v>
   <v>       0.37500000       0.04166667       0.37500000 </v>
   <v>      -0.04166667       0.29166667       0.29166667 </v>
   <v>      -0.37500000       0.29166667      -0.04166667 </v>
   <v>      -0.04166667       0.29166667      -0.37500000 </v>
   <v>      -0.37500000       0.29166667       0.29166667 </v>
   <v>      -0.37500000      -0.04166667       0.29166667 </v>
   <v>      -0.04166667      -0.37500000       0.29166667 </v>
   <v>       0.29166667      -0.04166667       0.29166667 </v>
   <v>       0.29166667      -0.37500000      -0.04166667 </v>
   <v>       0.29166667      -0.04166667      -0.37500000 </v>
   <v>       0.29166667      -0.37500000       0.29166667 </v>
   <v>       0.29166667       0.29166667      -0.04166667 </v>
   <v>       0.29166667       0.29166667      -0.37500000 </v>
   <v>      -0.29166667       0.37500000       0.04166667 </v>
   <v>       0.04166667       0.04166667       0.37500000 </v>
   <v>      -0.29166667       0.04166667       0.04166667 </v>
   <v>       0.04166667       0.04166667      -0.29166667 </v>
   <v>      -0.29166667       0.04166667       0.37500000 </v>
   <v>       0.37500000      -0.29166667       0.04166667 </v>
   <v>       0.04166667       0.37500000       0.04166667 </v>
   <v>       0.04166667       0.37500000      -0.29166667 </v>
   <v>       0.04166667      -0.29166667       0.04166667 </v>
   <v>       0.04166667      -0.29166667       0.37500000 </v>
   <v>       0.37500000       0.04166667       0.04166667 </v>
   <v>       0.37500000       0.04166667      -0.29166667 </v>
   <v>      -0.04166667      -0.04166667      -0.37500000 </v>
   <v>      -0.37500000      -0.37500000      -0.04166667 </v>
   <v>      -0.37500000      -0.04166667      -0.04166667 </v>
   <v>      -0.04166667      -0.37500000      -0.04166667 </v>
   <v>      -0.37500000      -0.04166667      -0.37500000 </v>
   <v>      -0.04166667      -0.37500000      -0.37500000 </v>
   <v>      -0.29166667       0.37500000       0.37500000 </v>
   <v>      -0.29166667       0.37500000      -0.29166667 </v>
   <v>      -0.29166667      -0.29166667       0.37500000 </v>
   <v>       0.37500000      -0.29166667      -0.29166667 </v>
   <v>       0.37500000      -0.29166667       0.37500000 </v>
   <v>       0.37500000       0.37500000      -0.29166667 </v>
   <v>      -0.37500000       0.29166667      -0.37500000 </v>
   <v>      -0.04166667       0.29166667      -0.04166667 </v>
   <v>      -0.37500000      -0.37500000       0.29166667 </v>
   <v>      -0.04166667      -0.04166667      -0.04166667 </v>
   <v>      -0.37500000      -0.37500000      -0.37500000 </v>
   <v>      -0.04166667      -0.04166667       0.29166667 </v>
   <v>       0.29166667      -0.37500000      -0.37500000 </v>
   <v>       0.29166667      -0.04166667      -0.04166667 </v>
   <v>      -0.45833333      -0.45833333      -0.45833333 </v>
   <v>      -0.29166667       0.04166667      -0.29166667 </v>
   <v>       0.04166667       0.04166667       0.04166667 </v>
   <v>      -0.29166667      -0.29166667      -0.29166667 </v>
   <v>      -0.29166667      -0.29166667       0.04166667 </v>
   <v>       0.04166667      -0.29166667      -0.29166667 </v>
  </varray>
 </structure>
 <varray name="primitive_index" >
  <v type="int" >        1 </v>
  <v type="int" >       32 </v>
  <v type="int" >       40 </v>
  <v type="int" >       41 </v>
  <v type="int" >       38 </v>
  <v type="int" >       19 </v>
  <v type="int" >       12 </v>
  <v type="int" >       20 </v>
  <v type="int" >       10 </v>
  <v type="int" >       16 </v>
  <v type="int" >       22 </v>
  <v type="int" >        7 </v>
  <v type="int" >        6 </v>
  <v type="int" >        8 </v>
  <v type="int" >        4 </v>
  <v type="int" >        3 </v>
  <v type="int" >        2 </v>
  <v type="int" >       49 </v>
  <v type="int" >       29 </v>
  <v type="int" >       46 </v>
  <v type="int" >       30 </v>
  <v type="int" >       47 </v>
  <v type="int" >       43 </v>
  <v type="int" >       31 </v>
  <v type="int" >       33 </v>
  <v type="int" >       34 </v>
  <v type="int" >       35 </v>
  <v type="int" >       37 </v>
  <v type="int" >       39 </v>
  <v type="int" >       26 </v>
  <v type="int" >       15 </v>
  <v type="int" >       18 </v>
  <v type="int" >       24 </v>
  <v type="int" >       17 </v>
  <v type="int" >       23 </v>
  <v type="int" >       50 </v>
  <v type="int" >       51 </v>
  <v type="int" >       53 </v>
  <v type="int" >       45 </v>
  <v type="int" >       44 </v>
  <v type="int" >       42 </v>
  <v type="int" >       11 </v>
  <v type="int" >       21 </v>
  <v type="int" >       13 </v>
  <v type="int" >       27 </v>
  <v type="int" >       14 </v>
  <v type="int" >       25 </v>
  <v type="int" >        5 </v>
  <v type="int" >        9 </v>
  <v type="int" >       55 </v>
  <v type="int" >       48 </v>
  <v type="int" >       28 </v>
  <v type="int" >       54 </v>
  <v type="int" >       52 </v>
  <v type="int" >       36 </v>
 </varray>
 <kpoints>
  <generation param="Gamma">
   <v type="int" name="divisions">       4        4        4 </v>
   <v name="usershift">      0.00000000       0.00000000       0.00000000 </v>
   <v name="genvec1">      0.25000000       0.00000000       0.00000000 </v>
   <v name="genvec2">      0.00000000       0.25000000       0.00000000 </v>
   <v name="genvec3">     -0.00000000      -0.00000000       0.25000000 </v>
   <v name="shift">      0.00000000       0.00000000       0.00000000 </v>
  </generation>
  <varray name="kpointlist" >
   <v>       0.00000000       0.00000000       0.00000000 </v>
   <v>       0.25000000       0.00000000       0.00000000 </v>
   <v>       0.50000000       0.00000000       0.00000000 </v>
   <v>       0.25000000       0.25000000       0.00000000 </v>
   <v>       0.50000000       0.25000000       0.00000000 </v>
   <v>      -0.25000000       0.25000000       0.00000000 </v>
   <v>       0.50000000       0.50000000       0.00000000 </v>
   <v>      -0.25000000       0.50000000       0.25000000 </v>
  </varray>
  <varray name="weights" >
   <v>       0.01562500 </v>
   <v>       0.12500000 </v>
   <v>       0.06250000 </v>
   <v>       0.09375000 </v>
   <v>       0.37500000 </v>
   <v>       0.18750000 </v>
   <v>       0.04687500 </v>
   <v>       0.09375000 </v>
  </varray>
 </kpoints>
 <parameters>
  <separator name="general" >
   <i type="string" name="SYSTEM">Si</i>
   <i type="logical" name="LCOMPAT"> F  </i>
  </separator>
  <separator name="electronic" >
   <i type="string" name="PREC">normal</i>
   <i name="ENMAX">    550.00000000</i>
   <i name="ENAUG">    322.06900000</i>
   <i name="EDIFF">      0.00000100</i>
   <i type="int" name="IALGO">    38</i>
   <i type="int" name="IWAVPR">    10</i>
   <i type="int" name="NBANDS">   144</i>
   <i name="NELECT">    220.00000000</i>
   <i type="int" name="TURBO">     0</i>
   <i type="int" name="IRESTART">     0</i>
   <i type="int" name="NREBOOT">     0</i>
   <i type="int" name="NMIN">     0</i>
   <i name="EREF">      0.00000000</i>
   <separator name="electronic smearing" >
    <i type="int" name="ISMEAR">     0</i>
    <i name="SIGMA">      0.05000000</i>
    <i name="KSPACING">      0.50000000</i>
    <i type="logical" name="KGAMMA"> T  </i>
   </separator>
   <separator name="electronic projectors" >
    <i type="logical" name="LREAL"> F  </i>
    <v name="ROPT">      0.00000000</v>
    <i type="int" name="LMAXPAW">  -100</i>
    <i type="int" name="LMAXMIX">     2</i>
    <i type="logical" name="NLSPLINE"> F  </i>
   </separator>
   <separator name="electronic startup" >
    <i type="int" name="ISTART">     0</i>
    <i type="int" name="ICHARG">     2</i>
    <i type="int" name="INIWAV">     1</i>
   </separator>
   <separator name="electronic spin" >
    <i type="int" name="ISPIN">     1</i>
    <i type="logical" name="LNONCOLLINEAR"> F  </i>
    <v name="MAGMOM">      1.00000000      1.00000000      1.00000000      1.00000000      1.00000000      1.00000000      1.00000000      1.00000000      1.00000000      1.00000000      1.00000000      1.00000000      1.00000000      1.00000000      1.00000000      1.00000000      1.00000000      1.00000000      1.00000000      1.00000000
      1.00000000      1.00000000      1.00000000      1.00000000      1.00000000      1.00000000      1.00000000      1.00000000      1.00000000      1.00000000      1.00000000      1.00000000      1.00000000      1.00000000      1.00000000      1.00000000      1.00000000      1.00000000      1.00000000      1.00000000
      1.00000000      1.00000000      1.00000000      1.00000000      1.00000000      1.00000000      1.00000000      1.00000000      1.00000000      1.00000000      1.00000000      1.00000000      1.00000000      1.00000000      1.00000000</v>
    <i name="NUPDOWN">     -1.00000000</i>
    <i type="logical" name="LSORBIT"> F  </i>
    <v name="SAXIS">      0.00000000      0.00000000      1.00000000</v>
    <i type="logical" name="LSPIRAL"> F  </i>
    <v name="QSPIRAL">      0.00000000      0.00000000      0.00000000</v>
    <i type="logical" name="LZEROZ"> F  </i>
   </separator>
   <separator name="electronic exchange-correlation" >
    <i type="logical" name="LASPH"> F  </i>
    <i type="logical" name="LMETAGGA"> F  </i>
   </separator>
   <separator name="electronic convergence" >
    <i type="int" name="NELM">   200</i>
    <i type="int" name="NELMDL">    -5</i>
    <i type="int" name="NELMIN">     2</i>
    <i name="ENINI">    550.00000000</i>
    <separator name="electronic convergence detail" >
     <i type="logical" name="LDIAG"> T  </i>
     <i type="logical" name="LSUBROT"> F  </i>
     <i name="WEIMIN">      0.00000000</i>
     <i name="EBREAK">      0.00000000</i>
     <i name="DEPER">      0.30000000</i>
     <i type="int" name="NRMM">     4</i>
     <i name="TIME">      0.40000000</i>
    </separator>
   </separator>
   <separator name="electronic mixer" >
    <i name="AMIX">      0.20000000</i>
    <i name="BMIX">      1.00000000</i>
    <i name="AMIN">      0.10000000</i>
    <i name="AMIX_MAG">      0.80000000</i>
    <i name="BMIX_MAG">      1.00000000</i>
    <separator name="electronic mixer details" >
     <i type="int" name="IMIX">     4</i>
     <i type="logical" name="MIXFIRST"> F  </i>
     <i type="int" name="MAXMIX">   -45</i>
     <i name="WC">    100.00000000</i>
     <i type="int" name="INIMIX">     1</i>
     <i type="int" name="MIXPRE">     1</i>
     <i type="int" name="MREMOVE">     5</i>
    </separator>
   </separator>
   <separator name="electronic dipolcorrection" >
    <i type="logical" name="LDIPOL"> F  </i>
    <i type="logical" name="LMONO"> F  </i>
    <i type="int" name="IDIPOL">     0</i>
    <i name="EPSILON">      1.00000000</i>
    <v name="DIPOL">   -100.00000000   -100.00000000   -100.00000000</v>
    <i name="EFIELD">      0.00000000</i>
   </separator>
  </separator>
  <separator name="grids" >
   <i type="int" name="NGX">    70</i>
   <i type="int" name="NGY">    70</i>
   <i type="int" name="NGZ">    70</i>
   <i type="int" name="NGXF">   140</i>
   <i type="int" name="NGYF">   140</i>
   <i type="int" name="NGZF">   140</i>
   <i type="logical" name="ADDGRID"> F  </i>
  </separator>
  <separator name="ionic" >
   <i type="int" name="NSW">     0</i>
   <i type="int" name="IBRION">    -1</i>
   <i type="int" name="MDALGO">     0</i>
   <i type="int" name="ISIF">     2</i>
   <i name="PSTRESS">      0.00000000</i>
   <i name="EDIFFG">     -0.05000000</i>
   <i type="int" name="NFREE">     1</i>
   <i name="POTIM">      0.50000000</i>
   <i name="SMASS">     -3.00000000</i>
   <i name="SCALEE">      1.00000000</i>
  </separator>
  <separator name="ionic md" >
   <i name="TEBEG">      0.00010000</i>
   <i name="TEEND">      0.00010000</i>
   <i type="int" name="NBLOCK">     1</i>
   <i type="int" name="KBLOCK">     1</i>
   <i type="int" name="NPACO">   256</i>
   <i name="APACO">     16.00000000</i>
  </separator>
  <separator name="symmetry" >
   <i type="int" name="ISYM">     2</i>
   <i name="SYMPREC">      0.00001000</i>
  </separator>
  <separator name="dos" >
   <i type="int" name="LORBIT">    10</i>
   <v name="RWIGS">     -1.00000000</v>
   <i type="int" name="NEDOS">   301</i>
   <i name="EMIN">     10.00000000</i>
   <i name="EMAX">    -10.00000000</i>
   <i name="EFERMI">      0.00000000</i>
  </separator>
  <separator name="writing" >
   <i type="int" name="NWRITE">     2</i>
   <i type="logical" name="LWAVE"> T  </i>
   <i type="logical" name="LDOWNSAMPLE"> F  </i>
   <i type="logical" name="LCHARG"> T  </i>
   <i type="logical" name="LPARD"> F  </i>
   <i type="logical" name="LVTOT"> F  </i>
   <i type="logical" name="LVHAR"> F  </i>
   <i type="logical" name="LELF"> F  </i>
   <i type="logical" name="LOPTICS"> F  </i>
   <v name="STM">      0.00000000      0.00000000      0.00000000      0.00000000      0.00000000      0.00000000      0.00000000</v>
  </separator>
  <separator name="performance" >
   <i type="int" name="NPAR">    24</i>
   <i type="int" name="NSIM">     4</i>
   <i type="int" name="NBLK">    -1</i>
   <i type="logical" name="LPLANE"> T  </i>
   <i type="logical" name="LSCALAPACK"> T  </i>
   <i type="logical" name="LSCAAWARE"> F  </i>
   <i type="logical" name="LSCALU"> F  </i>
   <i type="logical" name="LASYNC"> F  </i>
   <i type="logical" name="LORBITALREAL"> F  </i>
  </separator>
  <separator name="miscellaneous" >
   <i type="int" name="IDIOT">     3</i>
   <i type="int" name="ISPECIAL">     0</i>
   <i type="logical" name="LMUSIC"> F  </i>
   <v name="POMASS">     28.08500000</v>
   <v name="DARWINR">      0.00000000</v>
   <v name="DARWINV">      1.00000000</v>
   <i type="logical" name="LCORR"> T  </i>
  </separator>
  <i type="logical" name="GGA_COMPAT"> T  </i>
  <i type="logical" name="LBERRY"> F  </i>
  <i type="int" name="ICORELEVEL">     0</i>
  <i type="logical" name="LDAU"> F  </i>
  <i type="int" name="I_CONSTRAINED_M">     0</i>
  <separator name="electronic exchange-correlation" >
   <i type="string" name="GGA">--</i>
   <i type="int" name="VOSKOWN">     0</i>
   <i type="logical" name="LHFCALC"> F  </i>
   <i type="string" name="PRECFOCK"></i>
   <i type="logical" name="LSYMGRAD"> F  </i>
   <i type="logical" name="LHFONE"> F  </i>
   <i type="logical" name="LRHFCALC"> F  </i>
   <i type="logical" name="LTHOMAS"> F  </i>
   <i type="logical" name="LMODELHF"> F  </i>
   <i name="ENCUT4O">     -1.00000000</i>
   <i type="int" name="EXXOEP">     0</i>
   <i type="int" name="FOURORBIT">     0</i>
   <i name="AEXX">      0.00000000</i>
   <i name="HFALPHA">      0.00000000</i>
   <i name="MCALPHA">      0.00000000</i>
   <i name="ALDAX">      1.00000000</i>
   <i name="AGGAX">      1.00000000</i>
   <i name="ALDAC">      1.00000000</i>
   <i name="AGGAC">      1.00000000</i>
   <i type="int" name="NKREDX">     1</i>
   <i type="int" name="NKREDY">     1</i>
   <i type="int" name="NKREDZ">     1</i>
   <i type="logical" name="SHIFTRED"> F  </i>
   <i type="logical" name="ODDONLY"> F  </i>
   <i type="logical" name="EVENONLY"> F  </i>
   <i type="int" name="LMAXFOCK">     0</i>
   <i type="int" name="NMAXFOCKAE">     0</i>
   <i type="logical" name="LFOCKAEDFT"> F  </i>
   <i name="HFSCREEN">      0.00000000</i>
   <i name="HFSCREENC">      0.00000000</i>
   <i type="int" name="NBANDSGWLOW">     0</i>
  </separator>
  <separator name="vdW DFT" >
   <i type="logical" name="LUSE_VDW"> F  </i>
   <i name="Zab_VDW">     -0.84910000</i>
   <i name="PARAM1">      0.12340000</i>
   <i name="PARAM2">      1.00000000</i>
   <i name="PARAM3">      0.00000000</i>
  </separator>
  <separator name="model GW" >
   <i type="int" name="MODEL_GW">     0</i>
   <i name="MODEL_EPS0">     11.79266030</i>
   <i name="MODEL_ALPHA">      1.00000000</i>
  </separator>
  <separator name="linear response parameters" >
   <i type="logical" name="LEPSILON"> F  </i>
   <i type="logical" name="LRPA"> F  </i>
   <i type="logical" name="LNABLA"> F  </i>
   <i type="logical" name="LVEL"> F  </i>
   <i type="int" name="KINTER">     0</i>
   <i name="CSHIFT">      0.10000000</i>
   <i name="OMEGAMAX">     -1.00000000</i>
   <i name="DEG_THRESHOLD">      0.00200000</i>
   <i name="RTIME">     -0.10000000</i>
   <i name="WPLASMAI">      0.00000000</i>
   <v name="DFIELD">      0.00000000      0.00000000      0.00000000</v>
   <v name="WPLASMA">      0.00000000      0.00000000      0.00000000      0.00000000      0.00000000      0.00000000      0.00000000      0.00000000      0.00000000</v>
  </separator>
  <separator name="orbital magnetization" >
   <i type="logical" name="NUCIND"> F  </i>
   <v name="MAGPOS">      0.00000000      0.00000000      0.00000000</v>
   <i type="logical" name="LNICSALL"> T  </i>
   <i type="logical" name="ORBITALMAG"> F  </i>
   <i type="logical" name="LMAGBLOCH"> F  </i>
   <i type="logical" name="LCHIMAG"> F  </i>
   <i type="logical" name="LGAUGE"> T  </i>
   <i type="int" name="MAGATOM">     0</i>
   <v name="MAGDIPOL">      0.00000000      0.00000000      0.00000000</v>
   <v name="AVECCONST">      0.00000000      0.00000000      0.00000000</v>
  </separator>
  <separator name="response functions" >
   <i type="logical" name="LADDER"> F  </i>
   <i type="logical" name="LRPAFORCE"> F  </i>
   <i type="logical" name="LFXC"> F  </i>
   <i type="logical" name="LHARTREE"> T  </i>
   <i type="int" name="IBSE">     0</i>
   <v type="int" name="KPOINT">    -1     0     0     0</v>
   <i type="logical" name="LTCTE"> F  </i>
   <i type="logical" name="LTETE"> F  </i>
   <i type="logical" name="LTRIPLET"> F  </i>
   <i type="logical" name="LFXCEPS"> F  </i>
   <i type="logical" name="LFXHEG"> F  </i>
   <i type="int" name="NATURALO">     2</i>
   <i type="logical" name="L2ORDER"> F  </i>
   <i type="logical" name="LMP2LT"> F  </i>
   <i type="logical" name="LUSEW"> F  </i>
   <i name="ENCUTGW">     -2.00000000</i>
   <i name="ENCUTGWSOFT">     -2.00000000</i>
   <i name="ENCUTLF">     -1.00000000</i>
   <i type="int" name="LMAXMP2">    -1</i>
   <i name="SCISSOR">      0.00000000</i>
   <i type="int" name="NOMEGA">     0</i>
   <i type="int" name="NOMEGAR">     0</i>
   <i type="int" name="NBANDSGW">    -1</i>
   <i type="int" name="NBANDSO">    -1</i>
   <i type="int" name="NBANDSV">    -1</i>
   <i type="int" name="NELM">   200</i>
   <i type="int" name="NELMHF">     1</i>
   <i type="int" name="DIM">     3</i>
   <i type="int" name="ANTIRES">     0</i>
   <i name="OMEGAMAX">    -30.00000000</i>
   <i name="OMEGAMIN">    -30.00000000</i>
   <i name="OMEGATL">   -200.00000000</i>
   <i type="int" name="OMEGAGRID">   140</i>
   <i name="CSHIFT">     -0.10000000</i>
   <i type="logical" name="SELFENERGY"> F  </i>
   <i type="logical" name="LSPECTRAL"> F  </i>
   <i type="logical" name="LSPECTRALGW"> F  </i>
   <i type="logical" name="LSINGLES"> F  </i>
   <i type="logical" name="LFERMIGW"> F  </i>
   <i type="logical" name="ODDONLYGW"> F  </i>
   <i type="logical" name="EVENONLYGW"> F  </i>
   <i type="int" name="NKREDLFX">     1</i>
   <i type="int" name="NKREDLFY">     1</i>
   <i type="int" name="NKREDLFZ">     1</i>
   <i type="int" name="MAXMEM">  2800</i>
   <i type="int" name="TELESCOPE">     0</i>
   <i type="int" name="TAUPAR">     1</i>
   <i type="int" name="OMEGAPAR">    -1</i>
   <i name="LAMBDA">      1.00000000</i>
  </separator>
  <separator name="External order field" >
   <i name="OFIELD_KAPPA">      0.00000000</i>
   <v name="OFIELD_K">      0.00000000      0.00000000      0.00000000</v>
   <i name="OFIELD_Q6_NEAR">      0.00000000</i>
   <i name="OFIELD_Q6_FAR">      0.00000000</i>
   <i name="OFIELD_A">      0.00000000</i>
  </separator>
 </parameters>
 <atominfo>
  <atoms>      55 </atoms>
  <types>       1 </types>
  <array name="atoms" >
   <dimension dim="1">ion</dimension>
   <field type="string">element</field>
   <field type="int">atomtype</field>
   <set>
    <rc><c>Si</c><c>   1</c></rc>
    <rc><c>Si</c><c>   1</c></rc>
    <rc><c>Si</c><c>   1</c></rc>
    <rc><c>Si</c><c>   1</c></rc>
    <rc><c>Si</c><c>   1</c></rc>
    <rc><c>Si</c><c>   1</c></rc>
    <rc><c>Si</c><c>   1</c></rc>
    <rc><c>Si</c><c>   1</c></rc>
    <rc><c>Si</c><c>   1</c></rc>
    <rc><c>Si</c><c>   1</c></rc>
    <rc><c>Si</c><c>   1</c></rc>
    <rc><c>Si</c><c>   1</c></rc>
    <rc><c>Si</c><c>   1</c></rc>
    <rc><c>Si</c><c>   1</c></rc>
    <rc><c>Si</c><c>   1</c></rc>
    <rc><c>Si</c><c>   1</c></rc>
    <rc><c>Si</c><c>   1</c></rc>
    <rc><c>Si</c><c>   1</c></rc>
    <rc><c>Si</c><c>   1</c></rc>
    <rc><c>Si</c><c>   1</c></rc>
    <rc><c>Si</c><c>   1</c></rc>
    <rc><c>Si</c><c>   1</c></rc>
    <rc><c>Si</c><c>   1</c></rc>
    <rc><c>Si</c><c>   1</c></rc>
    <rc><c>Si</c><c>   1</c></rc>
    <rc><c>Si</c><c>   1</c></rc>
    <rc><c>Si</c><c>   1</c></rc>
    <rc><c>Si</c><c>   1</c></rc>
    <rc><c>Si</c><c>   1</c></rc>
    <rc><c>Si</c><c>   1</c></rc>
    <rc><c>Si</c><c>   1</c></rc>
    <rc><c>Si</c><c>   1</c></rc>
    <rc><c>Si</c><c>   1</c></rc>
    <rc><c>Si</c><c>   1</c></rc>
    <rc><c>Si</c><c>   1</c></rc>
    <rc><c>Si</c><c>   1</c></rc>
    <rc><c>Si</c><c>   1</c></rc>
    <rc><c>Si</c><c>   1</c></rc>
    <rc><c>Si</c><c>   1</c></rc>
    <rc><c>Si</c><c>   1</c></rc>
    <rc><c>Si</c><c>   1</c></rc>
    <rc><c>Si</c><c>   1</c></rc>
    <rc><c>Si</c><c>   1</c></rc>
    <rc><c>Si</c><c>   1</c></rc>
    <rc><c>Si</c><c>   1</c></rc>
    <rc><c>Si</c><c>   1</c></rc>
    <rc><c>Si</c><c>   1</c></rc>
    <rc><c>Si</c><c>   1</c></rc>
    <rc><c>Si</c><c>   1</c></rc>
    <rc><c>Si</c><c>   1</c></rc>
    <rc><c>Si</c><c>   1</c></rc>
    <rc><c>Si</c><c>   1</c></rc>
    <rc><c>Si</c><c>   1</c></rc>
    <rc><c>Si</c><c>   1</c></rc>
    <rc><c>Si</c><c>   1</c></rc>
   </set>
  </array>
  <array name="atomtypes" >
   <dimension dim="1">type</dimension>
   <field type="int">atomspertype</field>
   <field type="string">element</field>
   <field>mass</field>
   <field>valence</field>
   <field type="string">pseudopotential</field>
   <set>
    <rc><c>  55</c><c>Si</c><c>     28.08500000</c><c>      4.00000000</c><c>  PAW_PBE Si 05Jan2001                  </c></rc>
   </set>
  </array>
 </atominfo>
 <structure name="initialpos" >
  <crystal>
   <varray name="basis" >
    <v>       9.97646553       0.00000000       5.75991507 </v>
    <v>       3.32548851       9.40590192       5.75991507 </v>
    <v>       0.00000000       0.00000000      11.51983014 </v>
   </varray>
   <i name="volume">   1080.99386112 </i>
   <varray name="rec_basis" >
    <v>       0.10023590      -0.03543874       0.00000000 </v>
    <v>       0.00000000       0.10631623       0.00000000 </v>
    <v>      -0.05011795      -0.03543874       0.08680684 </v>
   </varray>
  </crystal>
  <varray name="positions" >
   <v>       0.29166667       0.29166667       0.29166667 </v>
   <v>       0.29166667       0.29166667       0.62500000 </v>
   <v>       0.29166667       0.29166667       0.95833333 </v>
   <v>       0.29166667       0.62500000       0.29166667 </v>
   <v>       0.29166667       0.62500000       0.62500000 </v>
   <v>       0.29166667       0.62500000       0.95833333 </v>
   <v>       0.29166667       0.95833333       0.29166667 </v>
   <v>       0.29166667       0.95833333       0.62500000 </v>
   <v>       0.29166667       0.95833333       0.95833333 </v>
   <v>       0.62500000       0.29166667       0.29166667 </v>
   <v>       0.62500000       0.29166667       0.62500000 </v>
   <v>       0.62500000       0.29166667       0.95833333 </v>
   <v>       0.62500000       0.62500000       0.29166667 </v>
   <v>       0.62500000       0.62500000       0.62500000 </v>
   <v>       0.62500000       0.62500000       0.95833333 </v>
   <v>       0.62500000       0.95833333       0.29166667 </v>
   <v>       0.62500000       0.95833333       0.62500000 </v>
   <v>       0.62500000       0.95833333       0.95833333 </v>
   <v>       0.95833333       0.29166667       0.29166667 </v>
   <v>       0.95833333       0.29166667       0.62500000 </v>
   <v>       0.95833333       0.29166667       0.95833333 </v>
   <v>       0.95833333       0.62500000       0.29166667 </v>
   <v>       0.95833333       0.62500000       0.62500000 </v>
   <v>       0.95833333       0.62500000       0.95833333 </v>
   <v>       0.95833333       0.95833333       0.29166667 </v>
   <v>       0.95833333       0.95833333       0.62500000 </v>
   <v>       0.95833333       0.95833333       0.95833333 </v>
   <v>       0.04166667       0.04166667       0.04166667 </v>
   <v>       0.04166667       0.04166667       0.37500000 </v>
   <v>       0.04166667       0.04166667       0.70833333 </v>
   <v>       0.04166667       0.37500000       0.04166667 </v>
   <v>       0.04166667       0.37500000       0.37500000 </v>
   <v>       0.04166667       0.37500000       0.70833333 </v>
   <v>       0.04166667       0.70833333       0.04166667 </v>
   <v>       0.04166667       0.70833333       0.37500000 </v>
   <v>       0.04166667       0.70833333       0.70833333 </v>
   <v>       0.37500000       0.04166667       0.04166667 </v>
   <v>       0.37500000       0.04166667       0.37500000 </v>
   <v>       0.37500000       0.04166667       0.70833333 </v>
   <v>       0.37500000       0.37500000       0.04166667 </v>
   <v>       0.37500000       0.37500000       0.37500000 </v>
   <v>       0.37500000       0.37500000       0.70833333 </v>
   <v>       0.37500000       0.70833333       0.04166667 </v>
   <v>       0.37500000       0.70833333       0.37500000 </v>
   <v>       0.37500000       0.70833333       0.70833333 </v>
   <v>       0.70833333       0.04166667       0.04166667 </v>
   <v>       0.70833333       0.04166667       0.37500000 </v>
   <v>       0.70833333       0.04166667       0.70833333 </v>
   <v>       0.70833333       0.37500000       0.04166667 </v>
   <v>       0.70833333       0.37500000       0.37500000 </v>
   <v>       0.70833333       0.37500000       0.70833333 </v>
   <v>       0.70833333       0.70833333       0.04166667 </v>
   <v>       0.70833333       0.70833333       0.37500000 </v>
   <v>       0.70833333       0.70833333       0.70833333 </v>
   <v>       0.54166667       0.54166667       0.54166667 </v>
  </varray>
 </structure>
 <calculation>
  <scstep>
   <time name="dav">    4.01    4.05</time>
   <time name="total">    4.63    4.69</time>
   <energy>
    <i name="alphaZ">     94.20124788 </i>
    <i name="ewald">  -6283.32455330 </i>
    <i name="hartreedc">   -334.73833171 </i>
    <i name="XCdc">   -509.16019900 </i>
    <i name="pawpsdc">   4846.80897882 </i>
    <i name="pawaedc">  -3879.17847845 </i>
    <i name="eentropy">     -0.01111084 </i>
    <i name="bandstr">    986.85063290 </i>
    <i name="atom">   5668.65580356 </i>
    <i name="e_fr_energy">    590.10398987 </i>
    <i name="e_wo_entrp">    590.11510071 </i>
    <i name="e_0_energy">    590.10954529 </i>
   </energy>
  </scstep>
  <scstep>
   <time name="dav">    4.20    4.24</time>
   <time name="total">    4.20    4.24</time>
   <energy>
    <i name="e_fr_energy">   -246.32024460 </i>
    <i name="e_wo_entrp">   -246.29919354 </i>
    <i name="e_0_energy">   -246.30971907 </i>
   </energy>
  </scstep>
  <scstep>
   <time name="dav">    4.22    4.26</time>
   <time name="total">    4.61    4.66</time>
   <energy>
    <i name="e_fr_energy">   -297.71797302 </i>
    <i name="e_wo_entrp">   -297.70020967 </i>
    <i name="e_0_energy">   -297.70909135 </i>
   </energy>
  </scstep>
  <scstep>
   <time name="dav">    5.89    5.95</time>
   <time name="total">    6.45    6.52</time>
   <energy>
    <i name="e_fr_energy">   -298.92221322 </i>
    <i name="e_wo_entrp">   -298.90557412 </i>
    <i name="e_0_energy">   -298.91389367 </i>
   </energy>
  </scstep>
  <scstep>
   <time name="dav">    4.19    4.24</time>
   <time name="total">    4.38    4.43</time>
   <energy>
    <i name="e_fr_energy">   -298.94602459 </i>
    <i name="e_wo_entrp">   -298.92932872 </i>
    <i name="e_0_energy">   -298.93767666 </i>
   </energy>
  </scstep>
  <scstep>
   <time name="dav">    5.40    5.45</time>
   <time name="total">    6.41    6.49</time>
   <energy>
    <i name="e_fr_energy">   -296.98262864 </i>
    <i name="e_wo_entrp">   -296.96136465 </i>
    <i name="e_0_energy">   -296.97199665 </i>
   </energy>
  </scstep>
  <scstep>
   <time name="dav">    4.85    4.90</time>
   <time name="total">    5.28    5.33</time>
   <energy>
    <i name="e_fr_energy">   -294.03009706 </i>
    <i name="e_wo_entrp">   -294.00818936 </i>
    <i name="e_0_energy">   -294.01914321 </i>
   </energy>
  </scstep>
  <scstep>
   <time name="dav">    4.04    4.07</time>
   <time name="total">    4.30    4.34</time>
   <energy>
    <i name="e_fr_energy">   -294.04848958 </i>
    <i name="e_wo_entrp">   -294.02714871 </i>
    <i name="e_0_energy">   -294.03781914 </i>
   </energy>
  </scstep>
  <scstep>
   <time name="dav">    4.15    4.18</time>
   <time name="total">    4.41    4.44</time>
   <energy>
    <i name="e_fr_energy">   -294.04390140 </i>
    <i name="e_wo_entrp">   -294.02291298 </i>
    <i name="e_0_energy">   -294.03340719 </i>
   </energy>
  </scstep>
  <scstep>
   <time name="dav">    3.96    3.99</time>
   <time name="total">    4.23    4.26</time>
   <energy>
    <i name="e_fr_energy">   -294.04671150 </i>
    <i name="e_wo_entrp">   -294.02588668 </i>
    <i name="e_0_energy">   -294.03629909 </i>
   </energy>
  </scstep>
  <scstep>
   <time name="dav">    3.77    3.80</time>
   <time name="total">    4.02    4.06</time>
   <energy>
    <i name="e_fr_energy">   -294.05125718 </i>
    <i name="e_wo_entrp">   -294.03045100 </i>
    <i name="e_0_energy">   -294.04085409 </i>
   </energy>
  </scstep>
  <scstep>
   <time name="dav">    4.21    4.25</time>
   <time name="total">    4.48    4.52</time>
   <energy>
    <i name="e_fr_energy">   -294.05209386 </i>
    <i name="e_wo_entrp">   -294.03124230 </i>
    <i name="e_0_energy">   -294.04166808 </i>
   </energy>
  </scstep>
  <scstep>
   <time name="dav">    3.74    3.77</time>
   <time name="total">    4.00    4.04</time>
   <energy>
    <i name="e_fr_energy">   -294.05316178 </i>
    <i name="e_wo_entrp">   -294.03227336 </i>
    <i name="e_0_energy">   -294.04271757 </i>
   </energy>
  </scstep>
  <scstep>
   <time name="dav">    3.95    3.99</time>
   <time name="total">    4.22    4.25</time>
   <energy>
    <i name="e_fr_energy">   -294.05322424 </i>
    <i name="e_wo_entrp">   -294.03233962 </i>
    <i name="e_0_energy">   -294.04278193 </i>
   </energy>
  </scstep>
  <scstep>
   <time name="dav">    3.99    4.03</time>
   <time name="total">    4.26    4.30</time>
   <energy>
    <i name="e_fr_energy">   -294.05324786 </i>
    <i name="e_wo_entrp">   -294.03236807 </i>
    <i name="e_0_energy">   -294.04280796 </i>
   </energy>
  </scstep>
  <scstep>
   <time name="dav">    3.84    4.07</time>
   <time name="total">    4.10    4.34</time>
   <energy>
    <i name="e_fr_energy">   -294.05324996 </i>
    <i name="e_wo_entrp">   -294.03237332 </i>
    <i name="e_0_energy">   -294.04281164 </i>
   </energy>
  </scstep>
  <scstep>
   <time name="dav">    3.92    3.95</time>
   <time name="total">    4.19    4.22</time>
   <energy>
    <i name="e_fr_energy">   -294.05325580 </i>
    <i name="e_wo_entrp">   -294.03237897 </i>
    <i name="e_0_energy">   -294.04281738 </i>
   </energy>
  </scstep>
  <scstep>
   <time name="dav">    2.75    2.77</time>
   <time name="total">    2.85    2.87</time>
   <energy>
    <i name="alphaZ">     94.20124788 </i>
    <i name="ewald">  -6283.32455330 </i>
    <i name="hartreedc">   -437.48723194 </i>
    <i name="XCdc">   -492.38707470 </i>
    <i name="pawpsdc">  24064.42465916 </i>
    <i name="pawaedc"> -23102.80091786 </i>
    <i name="eentropy">     -0.02087626 </i>
    <i name="bandstr">    194.68568850 </i>
    <i name="atom">   5668.65580356 </i>
    <i name="e_fr_energy">   -294.05325495 </i>
    <i name="e_wo_entrp">   -294.03237868 </i>
    <i name="e_0_energy">   -294.04281682 </i>
   </energy>
  </scstep>
  <structure>
   <crystal>
    <varray name="basis" >
     <v>       9.97646553       0.00000000       5.75991507 </v>
     <v>       3.32548851       9.40590192       5.75991507 </v>
     <v>       0.00000000       0.00000000      11.51983014 </v>
    </varray>
    <i name="volume">   1080.99386112 </i>
    <varray name="rec_basis" >
     <v>       0.10023590      -0.03543874       0.00000000 </v>
     <v>       0.00000000       0.10631623       0.00000000 </v>
     <v>      -0.05011795      -0.03543874       0.08680684 </v>
    </varray>
   </crystal>
   <varray name="positions" >
    <v>       0.29166667       0.29166667       0.29166667 </v>
    <v>       0.29166667       0.29166667       0.62500000 </v>
    <v>       0.29166667       0.29166667       0.95833333 </v>
    <v>       0.29166667       0.62500000       0.29166667 </v>
    <v>       0.29166667       0.62500000       0.62500000 </v>
    <v>       0.29166667       0.62500000       0.95833333 </v>
    <v>       0.29166667       0.95833333       0.29166667 </v>
    <v>       0.29166667       0.95833333       0.62500000 </v>
    <v>       0.29166667       0.95833333       0.95833333 </v>
    <v>       0.62500000       0.29166667       0.29166667 </v>
    <v>       0.62500000       0.29166667       0.62500000 </v>
    <v>       0.62500000       0.29166667       0.95833333 </v>
    <v>       0.62500000       0.62500000       0.29166667 </v>
    <v>       0.62500000       0.62500000       0.62500000 </v>
    <v>       0.62500000       0.62500000       0.95833333 </v>
    <v>       0.62500000       0.95833333       0.29166667 </v>
    <v>       0.62500000       0.95833333       0.62500000 </v>
    <v>       0.62500000       0.95833333       0.95833333 </v>
    <v>       0.95833333       0.29166667       0.29166667 </v>
    <v>       0.95833333       0.29166667       0.62500000 </v>
    <v>       0.95833333       0.29166667       0.95833333 </v>
    <v>       0.95833333       0.62500000       0.29166667 </v>
    <v>       0.95833333       0.62500000       0.62500000 </v>
    <v>       0.95833333       0.62500000       0.95833333 </v>
    <v>       0.95833333       0.95833333       0.29166667 </v>
    <v>       0.95833333       0.95833333       0.62500000 </v>
    <v>       0.95833333       0.95833333       0.95833333 </v>
    <v>       0.04166667       0.04166667       0.04166667 </v>
    <v>       0.04166667       0.04166667       0.37500000 </v>
    <v>       0.04166667       0.04166667       0.70833333 </v>
    <v>       0.04166667       0.37500000       0.04166667 </v>
    <v>       0.04166667       0.37500000       0.37500000 </v>
    <v>       0.04166667       0.37500000       0.70833333 </v>
    <v>       0.04166667       0.70833333       0.04166667 </v>
    <v>       0.04166667       0.70833333       0.37500000 </v>
    <v>       0.04166667       0.70833333       0.70833333 </v>
    <v>       0.37500000       0.04166667       0.04166667 </v>
    <v>       0.37500000       0.04166667       0.37500000 </v>
    <v>       0.37500000       0.04166667       0.70833333 </v>
    <v>       0.37500000       0.37500000       0.04166667 </v>
    <v>       0.37500000       0.37500000       0.37500000 </v>
    <v>       0.37500000       0.37500000       0.70833333 </v>
    <v>       0.37500000       0.70833333       0.04166667 </v>
    <v>       0.37500000       0.70833333       0.37500000 </v>
    <v>       0.37500000       0.70833333       0.70833333 </v>
    <v>       0.70833333       0.04166667       0.04166667 </v>
    <v>       0.70833333       0.04166667       0.37500000 </v>
    <v>       0.70833333       0.04166667       0.70833333 </v>
    <v>       0.70833333       0.37500000       0.04166667 </v>
    <v>       0.70833333       0.37500000       0.37500000 </v>
    <v>       0.70833333       0.37500000       0.70833333 </v>
    <v>       0.70833333       0.70833333       0.04166667 </v>
    <v>       0.70833333       0.70833333       0.37500000 </v>
    <v>       0.70833333       0.70833333       0.70833333 </v>
    <v>       0.54166667       0.54166667       0.54166667 </v>
   </varray>
  </structure>
  <varray name="forces" >
   <v>       0.00000000      -0.00000000       0.00000000 </v>
   <v>      -0.03024828      -0.02138876      -0.17272824 </v>
   <v>      -0.03024828      -0.02138876       0.17272824 </v>
   <v>      -0.06498649      -0.11964326      -0.11255990 </v>
   <v>      -1.03405653       0.36559419       0.00000000 </v>
   <v>      -0.06498649      -0.11964326       0.11255990 </v>
   <v>       0.03473821       0.16242078       0.06016835 </v>
   <v>       0.03473821       0.16242078      -0.06016835 </v>
   <v>      -0.00995512       0.00351967       0.00000000 </v>
   <v>      -0.13446291      -0.02138876      -0.11255990 </v>
   <v>       0.00000000      -1.09678258       0.00000000 </v>
   <v>      -0.13446291      -0.02138876       0.11255990 </v>
   <v>       0.51702827       0.36559419      -0.89551923 </v>
   <v>       0.51702827       0.36559419       0.89551923 </v>
   <v>      -0.08092462      -0.05722235       0.00000000 </v>
   <v>      -0.06947642       0.16242078       0.00000000 </v>
   <v>      -0.04046231       0.05722235      -0.07008278 </v>
   <v>      -0.04046231       0.05722235       0.07008278 </v>
   <v>       0.16471119      -0.02138876       0.06016835 </v>
   <v>       0.16471119      -0.02138876      -0.06016835 </v>
   <v>       0.00000000      -0.01055900       0.00000000 </v>
   <v>       0.12997298      -0.11964326       0.00000000 </v>
   <v>       0.04046231      -0.05722235      -0.07008278 </v>
   <v>       0.04046231      -0.05722235       0.07008278 </v>
   <v>       0.00497756       0.00351967      -0.00862139 </v>
   <v>       0.08092462       0.05722235       0.00000000 </v>
   <v>       0.00497756       0.00351967       0.00862139 </v>
   <v>       0.00000000      -0.00000000       0.00000000 </v>
   <v>      -0.08816637      -0.06234304       0.00120102 </v>
   <v>      -0.08816637      -0.06234304      -0.00120102 </v>
   <v>      -0.04373648       0.06332367      -0.07575380 </v>
   <v>      -0.02260840       0.00799328       0.00000000 </v>
   <v>      -0.04373648       0.06332367       0.07575380 </v>
   <v>      -0.04442989       0.06136240      -0.07695483 </v>
   <v>      -0.04442989       0.06136240       0.07695483 </v>
   <v>      -0.44996804       0.15908772      -0.00000000 </v>
   <v>       0.04512330      -0.06234304      -0.07575380 </v>
   <v>       0.00000000      -0.02397983       0.00000000 </v>
   <v>       0.04512330      -0.06234304       0.07575380 </v>
   <v>       0.01130420       0.00799328      -0.01957945 </v>
   <v>       0.01130420       0.00799328       0.01957945 </v>
   <v>      -0.42325162      -0.29928409      -0.00000000 </v>
   <v>       0.08885978       0.06136240       0.00000000 </v>
   <v>      -0.21162581       0.29928409      -0.36654665 </v>
   <v>      -0.21162581       0.29928409       0.36654665 </v>
   <v>       0.04304307      -0.06234304      -0.07695483 </v>
   <v>       0.04304307      -0.06234304       0.07695483 </v>
   <v>       0.00000000      -0.47726317       0.00000000 </v>
   <v>       0.08747296       0.06332367       0.00000000 </v>
   <v>       0.21162581      -0.29928409      -0.36654665 </v>
   <v>       0.21162581      -0.29928409       0.36654665 </v>
   <v>       0.22498402       0.15908772      -0.38968375 </v>
   <v>       0.42325162       0.29928409      -0.00000000 </v>
   <v>       0.22498402       0.15908772       0.38968375 </v>
   <v>       0.00000000      -0.00000000       0.00000000 </v>
  </varray>
  <varray name="stress" >
   <v>      29.44094531       0.00000000       0.00000000 </v>
   <v>      -0.00000000      29.44094541       0.00000000 </v>
   <v>      -0.00000000      -0.00000000      29.44094542 </v>
  </varray>
  <energy>
   <i name="e_fr_energy">   -294.05325495 </i>
   <i name="e_wo_entrp">   -294.04281682 </i>
   <i name="e_0_energy">     -0.02087626 </i>
  </energy>
  <time name="totalsc">   93.01   94.15</time>
  <eigenvalues>
   <array>
    <dimension dim="1">band</dimension>
    <dimension dim="2">kpoint</dimension>
    <dimension dim="3">spin</dimension>
    <field>eigene</field>
    <field>occ</field>
    <set>
     <set comment="spin 1">
      <set comment="kpoint 1">
       <r>   -6.8478    1.0000 </r>
       <r>   -5.5726    1.0000 </r>
       <r>   -4.9026    1.0000 </r>
       <r>   -4.9026    1.0000 </r>
       <r>   -4.9026    1.0000 </r>
       <r>   -4.5528    1.0000 </r>
       <r>   -4.5528    1.0000 </r>
       <r>   -4.5528    1.0000 </r>
       <r>   -4.5525    1.0000 </r>
       <r>   -4.1824    1.0000 </r>
       <r>   -4.1444    1.0000 </r>
       <r>   -4.1444    1.0000 </r>
       <r>   -4.1444    1.0000 </r>
       <r>   -4.0884    1.0000 </r>
       <r>   -4.0884    1.0000 </r>
       <r>   -3.0851    1.0000 </r>
       <r>   -3.0851    1.0000 </r>
       <r>   -3.0851    1.0000 </r>
       <r>   -2.7932    1.0000 </r>
       <r>   -2.7910    1.0000 </r>
       <r>   -2.7910    1.0000 </r>
       <r>   -2.6985    1.0000 </r>
       <r>   -2.6985    1.0000 </r>
       <r>   -2.6985    1.0000 </r>
       <r>   -2.6701    1.0000 </r>
       <r>   -2.6701    1.0000 </r>
       <r>   -2.6701    1.0000 </r>
       <r>   -1.5498    1.0000 </r>
       <r>   -1.0190    1.0000 </r>
       <r>   -1.0190    1.0000 </r>
       <r>   -1.0190    1.0000 </r>
       <r>   -0.9156    1.0000 </r>
       <r>   -0.9156    1.0000 </r>
       <r>   -0.8752    1.0000 </r>
       <r>   -0.8752    1.0000 </r>
       <r>   -0.8752    1.0000 </r>
       <r>   -0.7471    1.0000 </r>
       <r>   -0.7471    1.0000 </r>
       <r>   -0.7471    1.0000 </r>
       <r>   -0.3322    1.0000 </r>
       <r>    0.4769    1.0000 </r>
       <r>    0.4769    1.0000 </r>
       <r>    0.4769    1.0000 </r>
       <r>    0.5699    1.0000 </r>
       <r>    0.5699    1.0000 </r>
       <r>    0.5699    1.0000 </r>
       <r>    0.6324    1.0000 </r>
       <r>    0.8725    1.0000 </r>
       <r>    0.8725    1.0000 </r>
       <r>    0.8884    1.0000 </r>
       <r>    0.8884    1.0000 </r>
       <r>    0.8884    1.0000 </r>
       <r>    0.9276    1.0000 </r>
       <r>    1.0359    1.0000 </r>
       <r>    1.3449    1.0000 </r>
       <r>    1.3449    1.0000 </r>
       <r>    1.3449    1.0000 </r>
       <r>    1.5153    1.0000 </r>
       <r>    1.5153    1.0000 </r>
       <r>    1.5153    1.0000 </r>
       <r>    1.6032    1.0000 </r>
       <r>    1.6032    1.0000 </r>
       <r>    1.6369    1.0000 </r>
       <r>    1.6369    1.0000 </r>
       <r>    1.6369    1.0000 </r>
       <r>    2.8368    1.0000 </r>
       <r>    2.8368    1.0000 </r>
       <r>    2.8368    1.0000 </r>
       <r>    3.4760    1.0000 </r>
       <r>    3.4760    1.0000 </r>
       <r>    3.4760    1.0000 </r>
       <r>    3.5304    1.0000 </r>
       <r>    3.5304    1.0000 </r>
       <r>    3.5304    1.0000 </r>
       <r>    3.5964    1.0000 </r>
       <r>    3.5964    1.0000 </r>
       <r>    3.5964    1.0000 </r>
       <r>    3.6718    1.0000 </r>
       <r>    3.6718    1.0000 </r>
       <r>    3.8135    1.0000 </r>
       <r>    3.8135    1.0000 </r>
       <r>    3.8135    1.0000 </r>
       <r>    3.8534    1.0000 </r>
       <r>    3.8534    1.0000 </r>
       <r>    3.8534    1.0000 </r>
       <r>    3.8886    1.0000 </r>
       <r>    3.8886    1.0000 </r>
       <r>    3.8886    1.0000 </r>
       <r>    3.9131    1.0000 </r>
       <r>    4.3736    1.0000 </r>
       <r>    4.7611    1.0000 </r>
       <r>    4.7611    1.0000 </r>
       <r>    4.7896    1.0000 </r>
       <r>    4.7896    1.0000 </r>
       <r>    4.7896    1.0000 </r>
       <r>    4.9262    1.0000 </r>
       <r>    4.9262    1.0000 </r>
       <r>    4.9262    1.0000 </r>
       <r>    4.9404    1.0000 </r>
       <r>    4.9404    1.0000 </r>
       <r>    4.9404    1.0000 </r>
       <r>    5.0354    1.0000 </r>
       <r>    5.0354    1.0000 </r>
       <r>    5.0354    1.0000 </r>
       <r>    5.0369    1.0000 </r>
       <r>    5.0369    1.0000 </r>
       <r>    5.9258    1.0000 </r>
       <r>    5.9258    1.0000 </r>
       <r>    5.9258    1.0000 </r>
       <r>    6.5551    1.0000 </r>
       <r>    6.5551    1.0000 </r>
       <r>    6.5551    1.0000 </r>
       <r>    6.6715    0.8647 </r>
       <r>    6.6715    0.8647 </r>
       <r>    6.7026    0.5869 </r>
       <r>    6.7026    0.5869 </r>
       <r>    6.7026    0.5869 </r>
       <r>    7.0178    0.0000 </r>
       <r>    7.4271    0.0000 </r>
       <r>    7.4271    0.0000 </r>
       <r>    7.4271    0.0000 </r>
       <r>    7.5188    0.0000 </r>
       <r>    7.5188    0.0000 </r>
       <r>    7.5350    0.0000 </r>
       <r>    7.5350    0.0000 </r>
       <r>    7.5350    0.0000 </r>
       <r>    7.6678    0.0000 </r>
       <r>    7.7062    0.0000 </r>
       <r>    7.7062    0.0000 </r>
       <r>    7.7062    0.0000 </r>
       <r>    7.7277    0.0000 </r>
       <r>    7.7277    0.0000 </r>
       <r>    7.7277    0.0000 </r>
       <r>    7.7279    0.0000 </r>
       <r>    7.8733    0.0000 </r>
       <r>    7.8733    0.0000 </r>
       <r>    7.8733    0.0000 </r>
       <r>    7.9176    0.0000 </r>
       <r>    7.9690    0.0000 </r>
       <r>    7.9690    0.0000 </r>
       <r>    8.3066    0.0000 </r>
       <r>    8.3066    0.0000 </r>
       <r>    8.3066    0.0000 </r>
       <r>    8.9176    0.0000 </r>
      </set>
      <set comment="kpoint 2">
       <r>   -6.8315    1.0000 </r>
       <r>   -5.6011    1.0000 </r>
       <r>   -5.0883    1.0000 </r>
       <r>   -4.9329    1.0000 </r>
       <r>   -4.9329    1.0000 </r>
       <r>   -4.5768    1.0000 </r>
       <r>   -4.5234    1.0000 </r>
       <r>   -4.5234    1.0000 </r>
       <r>   -4.4975    1.0000 </r>
       <r>   -4.3300    1.0000 </r>
       <r>   -4.3300    1.0000 </r>
       <r>   -4.0838    1.0000 </r>
       <r>   -3.6556    1.0000 </r>
       <r>   -3.6143    1.0000 </r>
       <r>   -3.6143    1.0000 </r>
       <r>   -3.5396    1.0000 </r>
       <r>   -3.3992    1.0000 </r>
       <r>   -3.3992    1.0000 </r>
       <r>   -2.9254    1.0000 </r>
       <r>   -2.9254    1.0000 </r>
       <r>   -2.7768    1.0000 </r>
       <r>   -2.7332    1.0000 </r>
       <r>   -2.7332    1.0000 </r>
       <r>   -2.6649    1.0000 </r>
       <r>   -2.5918    1.0000 </r>
       <r>   -2.4649    1.0000 </r>
       <r>   -2.4649    1.0000 </r>
       <r>   -1.6551    1.0000 </r>
       <r>   -1.2140    1.0000 </r>
       <r>   -1.2140    1.0000 </r>
       <r>   -1.0862    1.0000 </r>
       <r>   -0.9804    1.0000 </r>
       <r>   -0.9804    1.0000 </r>
       <r>   -0.8911    1.0000 </r>
       <r>   -0.8911    1.0000 </r>
       <r>   -0.7869    1.0000 </r>
       <r>   -0.6789    1.0000 </r>
       <r>   -0.5038    1.0000 </r>
       <r>   -0.3977    1.0000 </r>
       <r>   -0.3977    1.0000 </r>
       <r>   -0.0987    1.0000 </r>
       <r>    0.0805    1.0000 </r>
       <r>    0.0805    1.0000 </r>
       <r>    0.1585    1.0000 </r>
       <r>    0.2032    1.0000 </r>
       <r>    0.2032    1.0000 </r>
       <r>    0.5222    1.0000 </r>
       <r>    0.9928    1.0000 </r>
       <r>    0.9928    1.0000 </r>
       <r>    1.1771    1.0000 </r>
       <r>    1.2857    1.0000 </r>
       <r>    1.4293    1.0000 </r>
       <r>    1.4293    1.0000 </r>
       <r>    1.5721    1.0000 </r>
       <r>    1.5721    1.0000 </r>
       <r>    1.6108    1.0000 </r>
       <r>    1.6873    1.0000 </r>
       <r>    1.7421    1.0000 </r>
       <r>    1.7421    1.0000 </r>
       <r>    1.8070    1.0000 </r>
       <r>    1.8070    1.0000 </r>
       <r>    1.8979    1.0000 </r>
       <r>    1.9372    1.0000 </r>
       <r>    1.9372    1.0000 </r>
       <r>    2.0582    1.0000 </r>
       <r>    2.5081    1.0000 </r>
       <r>    2.7235    1.0000 </r>
       <r>    2.7235    1.0000 </r>
       <r>    3.0960    1.0000 </r>
       <r>    3.0960    1.0000 </r>
       <r>    3.3182    1.0000 </r>
       <r>    3.3749    1.0000 </r>
       <r>    3.3886    1.0000 </r>
       <r>    3.3886    1.0000 </r>
       <r>    3.4783    1.0000 </r>
       <r>    3.4783    1.0000 </r>
       <r>    3.5576    1.0000 </r>
       <r>    3.5576    1.0000 </r>
       <r>    3.5737    1.0000 </r>
       <r>    3.6052    1.0000 </r>
       <r>    3.6183    1.0000 </r>
       <r>    3.6563    1.0000 </r>
       <r>    3.6563    1.0000 </r>
       <r>    3.7562    1.0000 </r>
       <r>    3.7562    1.0000 </r>
       <r>    3.8430    1.0000 </r>
       <r>    3.9968    1.0000 </r>
       <r>    4.0935    1.0000 </r>
       <r>    4.0935    1.0000 </r>
       <r>    4.1678    1.0000 </r>
       <r>    4.1678    1.0000 </r>
       <r>    4.2635    1.0000 </r>
       <r>    4.5272    1.0000 </r>
       <r>    4.5272    1.0000 </r>
       <r>    4.5340    1.0000 </r>
       <r>    4.6451    1.0000 </r>
       <r>    4.6451    1.0000 </r>
       <r>    4.6581    1.0000 </r>
       <r>    4.7802    1.0000 </r>
       <r>    4.7802    1.0000 </r>
       <r>    4.9207    1.0000 </r>
       <r>    4.9399    1.0000 </r>
       <r>    4.9399    1.0000 </r>
       <r>    4.9967    1.0000 </r>
       <r>    5.0983    1.0000 </r>
       <r>    5.1742    1.0000 </r>
       <r>    5.1742    1.0000 </r>
       <r>    5.7855    1.0000 </r>
       <r>    5.7855    1.0000 </r>
       <r>    6.5623    1.0000 </r>
       <r>    6.7445    0.1674 </r>
       <r>    6.7445    0.1674 </r>
       <r>    6.8564    0.0000 </r>
       <r>    6.8564    0.0000 </r>
       <r>    6.8853    0.0000 </r>
       <r>    7.1643    0.0000 </r>
       <r>    7.1643    0.0000 </r>
       <r>    7.3180    0.0000 </r>
       <r>    7.3902    0.0000 </r>
       <r>    7.3902    0.0000 </r>
       <r>    7.5315    0.0000 </r>
       <r>    7.5958    0.0000 </r>
       <r>    7.8241    0.0000 </r>
       <r>    7.8241    0.0000 </r>
       <r>    7.9377    0.0000 </r>
       <r>    7.9974    0.0000 </r>
       <r>    7.9974    0.0000 </r>
       <r>    8.0030    0.0000 </r>
       <r>    8.0731    0.0000 </r>
       <r>    8.0731    0.0000 </r>
       <r>    8.1047    0.0000 </r>
       <r>    8.1068    0.0000 </r>
       <r>    8.1556    0.0000 </r>
       <r>    8.1556    0.0000 </r>
       <r>    8.2355    0.0000 </r>
       <r>    8.2355    0.0000 </r>
       <r>    8.2402    0.0000 </r>
       <r>    8.4003    0.0000 </r>
       <r>    8.5055    0.0000 </r>
       <r>    8.5055    0.0000 </r>
       <r>    8.5921    0.0000 </r>
       <r>    8.7044    0.0000 </r>
       <r>    8.7044    0.0000 </r>
       <r>    8.9007    0.0000 </r>
      </set>
      <set comment="kpoint 3">
       <r>   -6.8143    1.0000 </r>
       <r>   -5.6274    1.0000 </r>
       <r>   -5.2239    1.0000 </r>
       <r>   -4.9429    1.0000 </r>
       <r>   -4.9429    1.0000 </r>
       <r>   -4.6434    1.0000 </r>
       <r>   -4.6434    1.0000 </r>
       <r>   -4.6267    1.0000 </r>
       <r>   -4.2691    1.0000 </r>
       <r>   -4.0743    1.0000 </r>
       <r>   -4.0274    1.0000 </r>
       <r>   -4.0274    1.0000 </r>
       <r>   -3.8600    1.0000 </r>
       <r>   -3.8600    1.0000 </r>
       <r>   -3.6808    1.0000 </r>
       <r>   -3.1214    1.0000 </r>
       <r>   -3.0843    1.0000 </r>
       <r>   -3.0743    1.0000 </r>
       <r>   -3.0743    1.0000 </r>
       <r>   -2.9665    1.0000 </r>
       <r>   -2.9665    1.0000 </r>
       <r>   -2.8143    1.0000 </r>
       <r>   -2.8143    1.0000 </r>
       <r>   -2.7201    1.0000 </r>
       <r>   -2.7098    1.0000 </r>
       <r>   -2.7098    1.0000 </r>
       <r>   -2.6596    1.0000 </r>
       <r>   -1.6732    1.0000 </r>
       <r>   -1.0940    1.0000 </r>
       <r>   -1.0940    1.0000 </r>
       <r>   -1.0121    1.0000 </r>
       <r>   -0.9326    1.0000 </r>
       <r>   -0.9326    1.0000 </r>
       <r>   -0.8246    1.0000 </r>
       <r>   -0.7646    1.0000 </r>
       <r>   -0.7646    1.0000 </r>
       <r>   -0.6634    1.0000 </r>
       <r>   -0.5756    1.0000 </r>
       <r>   -0.5750    1.0000 </r>
       <r>   -0.5750    1.0000 </r>
       <r>   -0.4866    1.0000 </r>
       <r>   -0.1071    1.0000 </r>
       <r>   -0.1071    1.0000 </r>
       <r>   -0.0645    1.0000 </r>
       <r>   -0.0645    1.0000 </r>
       <r>   -0.0205    1.0000 </r>
       <r>    0.7353    1.0000 </r>
       <r>    1.0270    1.0000 </r>
       <r>    1.4291    1.0000 </r>
       <r>    1.4291    1.0000 </r>
       <r>    1.4468    1.0000 </r>
       <r>    1.4468    1.0000 </r>
       <r>    1.6342    1.0000 </r>
       <r>    1.7576    1.0000 </r>
       <r>    1.8508    1.0000 </r>
       <r>    1.8508    1.0000 </r>
       <r>    1.9047    1.0000 </r>
       <r>    2.0257    1.0000 </r>
       <r>    2.0257    1.0000 </r>
       <r>    2.1675    1.0000 </r>
       <r>    2.1675    1.0000 </r>
       <r>    2.2878    1.0000 </r>
       <r>    2.3491    1.0000 </r>
       <r>    2.3491    1.0000 </r>
       <r>    2.6326    1.0000 </r>
       <r>    2.6326    1.0000 </r>
       <r>    2.7239    1.0000 </r>
       <r>    2.7971    1.0000 </r>
       <r>    2.8068    1.0000 </r>
       <r>    2.8068    1.0000 </r>
       <r>    3.0109    1.0000 </r>
       <r>    3.0109    1.0000 </r>
       <r>    3.1387    1.0000 </r>
       <r>    3.1826    1.0000 </r>
       <r>    3.1826    1.0000 </r>
       <r>    3.2489    1.0000 </r>
       <r>    3.2689    1.0000 </r>
       <r>    3.2689    1.0000 </r>
       <r>    3.3519    1.0000 </r>
       <r>    3.4320    1.0000 </r>
       <r>    3.4321    1.0000 </r>
       <r>    3.4858    1.0000 </r>
       <r>    3.4956    1.0000 </r>
       <r>    3.5615    1.0000 </r>
       <r>    3.8046    1.0000 </r>
       <r>    3.8565    1.0000 </r>
       <r>    3.8565    1.0000 </r>
       <r>    3.9750    1.0000 </r>
       <r>    3.9750    1.0000 </r>
       <r>    4.0385    1.0000 </r>
       <r>    4.0886    1.0000 </r>
       <r>    4.0886    1.0000 </r>
       <r>    4.1509    1.0000 </r>
       <r>    4.1509    1.0000 </r>
       <r>    4.1990    1.0000 </r>
       <r>    4.2507    1.0000 </r>
       <r>    4.5536    1.0000 </r>
       <r>    4.5536    1.0000 </r>
       <r>    4.6222    1.0000 </r>
       <r>    4.6222    1.0000 </r>
       <r>    4.6721    1.0000 </r>
       <r>    4.7111    1.0000 </r>
       <r>    4.7775    1.0000 </r>
       <r>    4.7775    1.0000 </r>
       <r>    5.2395    1.0000 </r>
       <r>    5.4307    1.0000 </r>
       <r>    5.4307    1.0000 </r>
       <r>    5.5227    1.0000 </r>
       <r>    5.5227    1.0000 </r>
       <r>    6.5703    1.0000 </r>
       <r>    6.7838    0.0189 </r>
       <r>    6.7838    0.0189 </r>
       <r>    6.9837    0.0000 </r>
       <r>    6.9838    0.0000 </r>
       <r>    7.0986    0.0000 </r>
       <r>    7.3380    0.0000 </r>
       <r>    7.5720    0.0000 </r>
       <r>    7.6967    0.0000 </r>
       <r>    7.6967    0.0000 </r>
       <r>    7.8393    0.0000 </r>
       <r>    7.8393    0.0000 </r>
       <r>    7.9287    0.0000 </r>
       <r>    7.9287    0.0000 </r>
       <r>    7.9565    0.0000 </r>
       <r>    8.1774    0.0000 </r>
       <r>    8.2895    0.0000 </r>
       <r>    8.3422    0.0000 </r>
       <r>    8.3783    0.0000 </r>
       <r>    8.3783    0.0000 </r>
       <r>    8.4580    0.0000 </r>
       <r>    8.4731    0.0000 </r>
       <r>    8.4731    0.0000 </r>
       <r>    8.5372    0.0000 </r>
       <r>    8.5372    0.0000 </r>
       <r>    8.6736    0.0000 </r>
       <r>    8.8007    0.0000 </r>
       <r>    8.8007    0.0000 </r>
       <r>    9.0305    0.0000 </r>
       <r>    9.1269    0.0000 </r>
       <r>    9.1269    0.0000 </r>
       <r>    9.1300    0.0000 </r>
       <r>    9.1749    0.0000 </r>
       <r>    9.1763    0.0000 </r>
       <r>    9.2924    0.0000 </r>
      </set>
      <set comment="kpoint 4">
       <r>   -6.8264    1.0000 </r>
       <r>   -5.5885    1.0000 </r>
       <r>   -5.0620    1.0000 </r>
       <r>   -5.0620    1.0000 </r>
       <r>   -4.9194    1.0000 </r>
       <r>   -4.8610    1.0000 </r>
       <r>   -4.6413    1.0000 </r>
       <r>   -4.3046    1.0000 </r>
       <r>   -4.3046    1.0000 </r>
       <r>   -4.0694    1.0000 </r>
       <r>   -4.0120    1.0000 </r>
       <r>   -3.9927    1.0000 </r>
       <r>   -3.9816    1.0000 </r>
       <r>   -3.9816    1.0000 </r>
       <r>   -3.5782    1.0000 </r>
       <r>   -3.3764    1.0000 </r>
       <r>   -3.3764    1.0000 </r>
       <r>   -3.2571    1.0000 </r>
       <r>   -3.1486    1.0000 </r>
       <r>   -3.0175    1.0000 </r>
       <r>   -2.9885    1.0000 </r>
       <r>   -2.9885    1.0000 </r>
       <r>   -2.9343    1.0000 </r>
       <r>   -2.2913    1.0000 </r>
       <r>   -2.2824    1.0000 </r>
       <r>   -2.2824    1.0000 </r>
       <r>   -2.2077    1.0000 </r>
       <r>   -1.7512    1.0000 </r>
       <r>   -1.3964    1.0000 </r>
       <r>   -1.3964    1.0000 </r>
       <r>   -1.3107    1.0000 </r>
       <r>   -1.2632    1.0000 </r>
       <r>   -0.9002    1.0000 </r>
       <r>   -0.8744    1.0000 </r>
       <r>   -0.8744    1.0000 </r>
       <r>   -0.6323    1.0000 </r>
       <r>   -0.5147    1.0000 </r>
       <r>   -0.3526    1.0000 </r>
       <r>   -0.3526    1.0000 </r>
       <r>   -0.2887    1.0000 </r>
       <r>   -0.2725    1.0000 </r>
       <r>   -0.1918    1.0000 </r>
       <r>   -0.1918    1.0000 </r>
       <r>   -0.1292    1.0000 </r>
       <r>    0.4651    1.0000 </r>
       <r>    0.7048    1.0000 </r>
       <r>    0.7048    1.0000 </r>
       <r>    0.7172    1.0000 </r>
       <r>    0.7520    1.0000 </r>
       <r>    1.3304    1.0000 </r>
       <r>    1.3304    1.0000 </r>
       <r>    1.4368    1.0000 </r>
       <r>    1.5451    1.0000 </r>
       <r>    1.6391    1.0000 </r>
       <r>    1.6391    1.0000 </r>
       <r>    1.7043    1.0000 </r>
       <r>    1.7142    1.0000 </r>
       <r>    1.7910    1.0000 </r>
       <r>    1.7910    1.0000 </r>
       <r>    1.8308    1.0000 </r>
       <r>    1.9173    1.0000 </r>
       <r>    2.0203    1.0000 </r>
       <r>    2.0849    1.0000 </r>
       <r>    2.0849    1.0000 </r>
       <r>    2.3758    1.0000 </r>
       <r>    2.4634    1.0000 </r>
       <r>    2.6822    1.0000 </r>
       <r>    2.6822    1.0000 </r>
       <r>    3.0935    1.0000 </r>
       <r>    3.1375    1.0000 </r>
       <r>    3.1375    1.0000 </r>
       <r>    3.1539    1.0000 </r>
       <r>    3.2034    1.0000 </r>
       <r>    3.2193    1.0000 </r>
       <r>    3.2193    1.0000 </r>
       <r>    3.4345    1.0000 </r>
       <r>    3.4517    1.0000 </r>
       <r>    3.4517    1.0000 </r>
       <r>    3.5618    1.0000 </r>
       <r>    3.7507    1.0000 </r>
       <r>    3.7525    1.0000 </r>
       <r>    3.7525    1.0000 </r>
       <r>    3.7643    1.0000 </r>
       <r>    3.8934    1.0000 </r>
       <r>    3.8934    1.0000 </r>
       <r>    3.9355    1.0000 </r>
       <r>    3.9572    1.0000 </r>
       <r>    4.0549    1.0000 </r>
       <r>    4.0903    1.0000 </r>
       <r>    4.0903    1.0000 </r>
       <r>    4.1890    1.0000 </r>
       <r>    4.2299    1.0000 </r>
       <r>    4.2299    1.0000 </r>
       <r>    4.3272    1.0000 </r>
       <r>    4.4032    1.0000 </r>
       <r>    4.4032    1.0000 </r>
       <r>    4.4100    1.0000 </r>
       <r>    4.5009    1.0000 </r>
       <r>    4.5057    1.0000 </r>
       <r>    4.5057    1.0000 </r>
       <r>    4.5757    1.0000 </r>
       <r>    5.0172    1.0000 </r>
       <r>    5.2162    1.0000 </r>
       <r>    5.2301    1.0000 </r>
       <r>    5.2301    1.0000 </r>
       <r>    5.2640    1.0000 </r>
       <r>    5.3007    1.0000 </r>
       <r>    5.5049    1.0000 </r>
       <r>    5.5049    1.0000 </r>
       <r>    6.4937    1.0000 </r>
       <r>    6.7029    0.5845 </r>
       <r>    6.9108    0.0000 </r>
       <r>    6.9108    0.0000 </r>
       <r>    7.0720    0.0000 </r>
       <r>    7.2393    0.0000 </r>
       <r>    7.2393    0.0000 </r>
       <r>    7.3236    0.0000 </r>
       <r>    7.3854    0.0000 </r>
       <r>    7.4912    0.0000 </r>
       <r>    7.6656    0.0000 </r>
       <r>    7.6719    0.0000 </r>
       <r>    7.6719    0.0000 </r>
       <r>    7.7013    0.0000 </r>
       <r>    7.8265    0.0000 </r>
       <r>    7.9483    0.0000 </r>
       <r>    7.9574    0.0000 </r>
       <r>    7.9574    0.0000 </r>
       <r>    8.0558    0.0000 </r>
       <r>    8.1510    0.0000 </r>
       <r>    8.1510    0.0000 </r>
       <r>    8.2493    0.0000 </r>
       <r>    8.3223    0.0000 </r>
       <r>    8.3721    0.0000 </r>
       <r>    8.3721    0.0000 </r>
       <r>    8.4067    0.0000 </r>
       <r>    8.4498    0.0000 </r>
       <r>    8.4873    0.0000 </r>
       <r>    8.5055    0.0000 </r>
       <r>    8.5259    0.0000 </r>
       <r>    8.5259    0.0000 </r>
       <r>    8.6649    0.0000 </r>
       <r>    8.7463    0.0000 </r>
       <r>    8.7463    0.0000 </r>
       <r>    9.0342    0.0000 </r>
      </set>
      <set comment="kpoint 5">
       <r>   -6.8095    1.0000 </r>
       <r>   -5.5609    1.0000 </r>
       <r>   -5.3239    1.0000 </r>
       <r>   -5.0778    1.0000 </r>
       <r>   -5.0418    1.0000 </r>
       <r>   -4.6591    1.0000 </r>
       <r>   -4.5866    1.0000 </r>
       <r>   -4.3779    1.0000 </r>
       <r>   -4.2042    1.0000 </r>
       <r>   -4.0818    1.0000 </r>
       <r>   -3.9563    1.0000 </r>
       <r>   -3.9388    1.0000 </r>
       <r>   -3.7896    1.0000 </r>
       <r>   -3.6810    1.0000 </r>
       <r>   -3.5630    1.0000 </r>
       <r>   -3.4337    1.0000 </r>
       <r>   -3.4286    1.0000 </r>
       <r>   -3.3574    1.0000 </r>
       <r>   -3.2076    1.0000 </r>
       <r>   -3.1893    1.0000 </r>
       <r>   -3.0888    1.0000 </r>
       <r>   -3.0524    1.0000 </r>
       <r>   -2.5589    1.0000 </r>
       <r>   -2.5204    1.0000 </r>
       <r>   -2.4308    1.0000 </r>
       <r>   -2.2756    1.0000 </r>
       <r>   -2.2670    1.0000 </r>
       <r>   -1.6635    1.0000 </r>
       <r>   -1.3785    1.0000 </r>
       <r>   -1.3223    1.0000 </r>
       <r>   -1.2973    1.0000 </r>
       <r>   -1.1828    1.0000 </r>
       <r>   -1.0998    1.0000 </r>
       <r>   -0.8956    1.0000 </r>
       <r>   -0.8371    1.0000 </r>
       <r>   -0.8217    1.0000 </r>
       <r>   -0.5649    1.0000 </r>
       <r>   -0.5455    1.0000 </r>
       <r>   -0.5035    1.0000 </r>
       <r>   -0.4418    1.0000 </r>
       <r>   -0.4336    1.0000 </r>
       <r>   -0.1141    1.0000 </r>
       <r>   -0.1134    1.0000 </r>
       <r>    0.0774    1.0000 </r>
       <r>    0.2126    1.0000 </r>
       <r>    0.2534    1.0000 </r>
       <r>    0.7188    1.0000 </r>
       <r>    0.8850    1.0000 </r>
       <r>    0.9293    1.0000 </r>
       <r>    1.1241    1.0000 </r>
       <r>    1.5235    1.0000 </r>
       <r>    1.6961    1.0000 </r>
       <r>    1.8204    1.0000 </r>
       <r>    1.9013    1.0000 </r>
       <r>    1.9623    1.0000 </r>
       <r>    2.0480    1.0000 </r>
       <r>    2.1236    1.0000 </r>
       <r>    2.1443    1.0000 </r>
       <r>    2.2974    1.0000 </r>
       <r>    2.3046    1.0000 </r>
       <r>    2.3642    1.0000 </r>
       <r>    2.4336    1.0000 </r>
       <r>    2.5009    1.0000 </r>
       <r>    2.5399    1.0000 </r>
       <r>    2.5416    1.0000 </r>
       <r>    2.6301    1.0000 </r>
       <r>    2.6540    1.0000 </r>
       <r>    2.7661    1.0000 </r>
       <r>    2.7936    1.0000 </r>
       <r>    2.8252    1.0000 </r>
       <r>    2.8990    1.0000 </r>
       <r>    2.9945    1.0000 </r>
       <r>    3.0047    1.0000 </r>
       <r>    3.0377    1.0000 </r>
       <r>    3.0668    1.0000 </r>
       <r>    3.1272    1.0000 </r>
       <r>    3.2193    1.0000 </r>
       <r>    3.2589    1.0000 </r>
       <r>    3.2807    1.0000 </r>
       <r>    3.3300    1.0000 </r>
       <r>    3.3557    1.0000 </r>
       <r>    3.4148    1.0000 </r>
       <r>    3.5229    1.0000 </r>
       <r>    3.6533    1.0000 </r>
       <r>    3.6607    1.0000 </r>
       <r>    3.7276    1.0000 </r>
       <r>    3.7641    1.0000 </r>
       <r>    3.8098    1.0000 </r>
       <r>    3.9252    1.0000 </r>
       <r>    4.0027    1.0000 </r>
       <r>    4.0134    1.0000 </r>
       <r>    4.0819    1.0000 </r>
       <r>    4.0843    1.0000 </r>
       <r>    4.2202    1.0000 </r>
       <r>    4.2500    1.0000 </r>
       <r>    4.3255    1.0000 </r>
       <r>    4.3588    1.0000 </r>
       <r>    4.3949    1.0000 </r>
       <r>    4.4010    1.0000 </r>
       <r>    4.4500    1.0000 </r>
       <r>    4.5521    1.0000 </r>
       <r>    4.5622    1.0000 </r>
       <r>    4.9313    1.0000 </r>
       <r>    4.9364    1.0000 </r>
       <r>    5.0159    1.0000 </r>
       <r>    5.1442    1.0000 </r>
       <r>    5.3112    1.0000 </r>
       <r>    5.4680    1.0000 </r>
       <r>    5.5852    1.0000 </r>
       <r>    6.6737    0.8507 </r>
       <r>    6.7920    0.0105 </r>
       <r>    7.0720    0.0000 </r>
       <r>    7.1476    0.0000 </r>
       <r>    7.4049    0.0000 </r>
       <r>    7.5390    0.0000 </r>
       <r>    7.5523    0.0000 </r>
       <r>    7.5838    0.0000 </r>
       <r>    7.7053    0.0000 </r>
       <r>    7.7852    0.0000 </r>
       <r>    7.8740    0.0000 </r>
       <r>    7.9947    0.0000 </r>
       <r>    8.0204    0.0000 </r>
       <r>    8.0833    0.0000 </r>
       <r>    8.1554    0.0000 </r>
       <r>    8.2416    0.0000 </r>
       <r>    8.3374    0.0000 </r>
       <r>    8.3854    0.0000 </r>
       <r>    8.4822    0.0000 </r>
       <r>    8.4887    0.0000 </r>
       <r>    8.5473    0.0000 </r>
       <r>    8.5731    0.0000 </r>
       <r>    8.6697    0.0000 </r>
       <r>    8.6717    0.0000 </r>
       <r>    8.6941    0.0000 </r>
       <r>    8.7782    0.0000 </r>
       <r>    8.8423    0.0000 </r>
       <r>    8.8987    0.0000 </r>
       <r>    8.9862    0.0000 </r>
       <r>    8.9881    0.0000 </r>
       <r>    9.0185    0.0000 </r>
       <r>    9.0639    0.0000 </r>
       <r>    9.1149    0.0000 </r>
       <r>    9.1253    0.0000 </r>
       <r>    9.1841    0.0000 </r>
      </set>
      <set comment="kpoint 6">
       <r>   -6.8149    1.0000 </r>
       <r>   -5.5819    1.0000 </r>
       <r>   -5.3074    1.0000 </r>
       <r>   -4.9826    1.0000 </r>
       <r>   -4.9632    1.0000 </r>
       <r>   -4.6780    1.0000 </r>
       <r>   -4.5226    1.0000 </r>
       <r>   -4.5201    1.0000 </r>
       <r>   -4.3173    1.0000 </r>
       <r>   -4.1559    1.0000 </r>
       <r>   -4.0555    1.0000 </r>
       <r>   -3.9629    1.0000 </r>
       <r>   -3.8306    1.0000 </r>
       <r>   -3.7199    1.0000 </r>
       <r>   -3.5047    1.0000 </r>
       <r>   -3.4628    1.0000 </r>
       <r>   -3.3267    1.0000 </r>
       <r>   -3.2362    1.0000 </r>
       <r>   -3.1048    1.0000 </r>
       <r>   -3.0199    1.0000 </r>
       <r>   -2.9820    1.0000 </r>
       <r>   -2.8540    1.0000 </r>
       <r>   -2.8088    1.0000 </r>
       <r>   -2.7457    1.0000 </r>
       <r>   -2.5470    1.0000 </r>
       <r>   -2.5253    1.0000 </r>
       <r>   -2.0769    1.0000 </r>
       <r>   -1.7564    1.0000 </r>
       <r>   -1.5122    1.0000 </r>
       <r>   -1.1216    1.0000 </r>
       <r>   -1.0188    1.0000 </r>
       <r>   -0.9683    1.0000 </r>
       <r>   -0.8771    1.0000 </r>
       <r>   -0.8376    1.0000 </r>
       <r>   -0.8154    1.0000 </r>
       <r>   -0.7378    1.0000 </r>
       <r>   -0.6728    1.0000 </r>
       <r>   -0.6595    1.0000 </r>
       <r>   -0.5841    1.0000 </r>
       <r>   -0.5705    1.0000 </r>
       <r>   -0.5202    1.0000 </r>
       <r>   -0.4979    1.0000 </r>
       <r>    0.0660    1.0000 </r>
       <r>    0.3712    1.0000 </r>
       <r>    0.3978    1.0000 </r>
       <r>    0.5474    1.0000 </r>
       <r>    0.5903    1.0000 </r>
       <r>    0.6565    1.0000 </r>
       <r>    0.6715    1.0000 </r>
       <r>    1.0459    1.0000 </r>
       <r>    1.4376    1.0000 </r>
       <r>    1.6187    1.0000 </r>
       <r>    1.7239    1.0000 </r>
       <r>    1.9099    1.0000 </r>
       <r>    1.9228    1.0000 </r>
       <r>    1.9702    1.0000 </r>
       <r>    2.0626    1.0000 </r>
       <r>    2.0833    1.0000 </r>
       <r>    2.1641    1.0000 </r>
       <r>    2.2194    1.0000 </r>
       <r>    2.2291    1.0000 </r>
       <r>    2.2910    1.0000 </r>
       <r>    2.4053    1.0000 </r>
       <r>    2.4200    1.0000 </r>
       <r>    2.5091    1.0000 </r>
       <r>    2.5177    1.0000 </r>
       <r>    2.5493    1.0000 </r>
       <r>    2.6454    1.0000 </r>
       <r>    2.8398    1.0000 </r>
       <r>    2.8513    1.0000 </r>
       <r>    2.9530    1.0000 </r>
       <r>    3.0152    1.0000 </r>
       <r>    3.0162    1.0000 </r>
       <r>    3.0445    1.0000 </r>
       <r>    3.2210    1.0000 </r>
       <r>    3.3046    1.0000 </r>
       <r>    3.3327    1.0000 </r>
       <r>    3.3333    1.0000 </r>
       <r>    3.4196    1.0000 </r>
       <r>    3.4671    1.0000 </r>
       <r>    3.4930    1.0000 </r>
       <r>    3.5439    1.0000 </r>
       <r>    3.5666    1.0000 </r>
       <r>    3.5990    1.0000 </r>
       <r>    3.6417    1.0000 </r>
       <r>    3.7442    1.0000 </r>
       <r>    3.7814    1.0000 </r>
       <r>    3.8734    1.0000 </r>
       <r>    3.9401    1.0000 </r>
       <r>    4.0175    1.0000 </r>
       <r>    4.0585    1.0000 </r>
       <r>    4.0848    1.0000 </r>
       <r>    4.2755    1.0000 </r>
       <r>    4.3148    1.0000 </r>
       <r>    4.3677    1.0000 </r>
       <r>    4.4884    1.0000 </r>
       <r>    4.4975    1.0000 </r>
       <r>    4.5455    1.0000 </r>
       <r>    4.6482    1.0000 </r>
       <r>    4.6498    1.0000 </r>
       <r>    4.7172    1.0000 </r>
       <r>    4.7487    1.0000 </r>
       <r>    4.8274    1.0000 </r>
       <r>    4.8852    1.0000 </r>
       <r>    4.9492    1.0000 </r>
       <r>    4.9979    1.0000 </r>
       <r>    5.0712    1.0000 </r>
       <r>    5.3707    1.0000 </r>
       <r>    5.8175    1.0000 </r>
       <r>    6.6847    0.7661 </r>
       <r>    6.8311    0.0003 </r>
       <r>    7.0673    0.0000 </r>
       <r>    7.1482    0.0000 </r>
       <r>    7.1683    0.0000 </r>
       <r>    7.2480    0.0000 </r>
       <r>    7.3790    0.0000 </r>
       <r>    7.5368    0.0000 </r>
       <r>    7.6597    0.0000 </r>
       <r>    7.7514    0.0000 </r>
       <r>    7.8139    0.0000 </r>
       <r>    7.8166    0.0000 </r>
       <r>    7.8663    0.0000 </r>
       <r>    7.9738    0.0000 </r>
       <r>    8.0123    0.0000 </r>
       <r>    8.1110    0.0000 </r>
       <r>    8.1427    0.0000 </r>
       <r>    8.1643    0.0000 </r>
       <r>    8.3258    0.0000 </r>
       <r>    8.4297    0.0000 </r>
       <r>    8.4501    0.0000 </r>
       <r>    8.4789    0.0000 </r>
       <r>    8.5484    0.0000 </r>
       <r>    8.5957    0.0000 </r>
       <r>    8.6129    0.0000 </r>
       <r>    8.6331    0.0000 </r>
       <r>    8.6978    0.0000 </r>
       <r>    8.7436    0.0000 </r>
       <r>    8.7615    0.0000 </r>
       <r>    8.8706    0.0000 </r>
       <r>    8.9106    0.0000 </r>
       <r>    9.0215    0.0000 </r>
       <r>    9.0447    0.0000 </r>
       <r>    9.1526    0.0000 </r>
       <r>    9.2279    0.0000 </r>
      </set>
      <set comment="kpoint 7">
       <r>   -6.8045    1.0000 </r>
       <r>   -5.5287    1.0000 </r>
       <r>   -5.2498    1.0000 </r>
       <r>   -5.1527    1.0000 </r>
       <r>   -5.1527    1.0000 </r>
       <r>   -4.9877    1.0000 </r>
       <r>   -4.2077    1.0000 </r>
       <r>   -4.1845    1.0000 </r>
       <r>   -4.1073    1.0000 </r>
       <r>   -4.1073    1.0000 </r>
       <r>   -3.7728    1.0000 </r>
       <r>   -3.6507    1.0000 </r>
       <r>   -3.6507    1.0000 </r>
       <r>   -3.6292    1.0000 </r>
       <r>   -3.5688    1.0000 </r>
       <r>   -3.5474    1.0000 </r>
       <r>   -3.5247    1.0000 </r>
       <r>   -3.5247    1.0000 </r>
       <r>   -3.4681    1.0000 </r>
       <r>   -3.4451    1.0000 </r>
       <r>   -3.4451    1.0000 </r>
       <r>   -3.4243    1.0000 </r>
       <r>   -2.0586    1.0000 </r>
       <r>   -2.0158    1.0000 </r>
       <r>   -1.9650    1.0000 </r>
       <r>   -1.9650    1.0000 </r>
       <r>   -1.9358    1.0000 </r>
       <r>   -1.8095    1.0000 </r>
       <r>   -1.7105    1.0000 </r>
       <r>   -1.7105    1.0000 </r>
       <r>   -1.7102    1.0000 </r>
       <r>   -1.6810    1.0000 </r>
       <r>   -1.4073    1.0000 </r>
       <r>   -0.7526    1.0000 </r>
       <r>   -0.7526    1.0000 </r>
       <r>   -0.7475    1.0000 </r>
       <r>   -0.6460    1.0000 </r>
       <r>   -0.6460    1.0000 </r>
       <r>   -0.6207    1.0000 </r>
       <r>   -0.5956    1.0000 </r>
       <r>    0.1317    1.0000 </r>
       <r>    0.1317    1.0000 </r>
       <r>    0.1486    1.0000 </r>
       <r>    0.1650    1.0000 </r>
       <r>    0.2893    1.0000 </r>
       <r>    0.3512    1.0000 </r>
       <r>    0.3512    1.0000 </r>
       <r>    0.3833    1.0000 </r>
       <r>    0.8224    1.0000 </r>
       <r>    1.4197    1.0000 </r>
       <r>    1.7351    1.0000 </r>
       <r>    1.7351    1.0000 </r>
       <r>    2.1981    1.0000 </r>
       <r>    2.2281    1.0000 </r>
       <r>    2.2502    1.0000 </r>
       <r>    2.2502    1.0000 </r>
       <r>    2.2552    1.0000 </r>
       <r>    2.2992    1.0000 </r>
       <r>    2.2992    1.0000 </r>
       <r>    2.3335    1.0000 </r>
       <r>    2.3939    1.0000 </r>
       <r>    2.4000    1.0000 </r>
       <r>    2.4000    1.0000 </r>
       <r>    2.4255    1.0000 </r>
       <r>    2.4255    1.0000 </r>
       <r>    2.4345    1.0000 </r>
       <r>    2.4372    1.0000 </r>
       <r>    2.4419    1.0000 </r>
       <r>    2.9010    1.0000 </r>
       <r>    2.9010    1.0000 </r>
       <r>    2.9089    1.0000 </r>
       <r>    3.0174    1.0000 </r>
       <r>    3.0697    1.0000 </r>
       <r>    3.1328    1.0000 </r>
       <r>    3.1328    1.0000 </r>
       <r>    3.1420    1.0000 </r>
       <r>    3.2288    1.0000 </r>
       <r>    3.2288    1.0000 </r>
       <r>    3.3606    1.0000 </r>
       <r>    3.3606    1.0000 </r>
       <r>    3.3857    1.0000 </r>
       <r>    3.4786    1.0000 </r>
       <r>    3.6013    1.0000 </r>
       <r>    3.6105    1.0000 </r>
       <r>    3.6105    1.0000 </r>
       <r>    3.6315    1.0000 </r>
       <r>    3.6388    1.0000 </r>
       <r>    3.7308    1.0000 </r>
       <r>    3.7308    1.0000 </r>
       <r>    3.7420    1.0000 </r>
       <r>    3.9122    1.0000 </r>
       <r>    3.9436    1.0000 </r>
       <r>    4.0010    1.0000 </r>
       <r>    4.0166    1.0000 </r>
       <r>    4.0166    1.0000 </r>
       <r>    4.1456    1.0000 </r>
       <r>    4.1814    1.0000 </r>
       <r>    4.1814    1.0000 </r>
       <r>    4.2625    1.0000 </r>
       <r>    4.2640    1.0000 </r>
       <r>    4.7074    1.0000 </r>
       <r>    4.7074    1.0000 </r>
       <r>    4.7546    1.0000 </r>
       <r>    4.7546    1.0000 </r>
       <r>    5.3152    1.0000 </r>
       <r>    5.3813    1.0000 </r>
       <r>    5.3813    1.0000 </r>
       <r>    5.4170    1.0000 </r>
       <r>    5.5106    1.0000 </r>
       <r>    6.4289    1.0000 </r>
       <r>    6.8657    0.0000 </r>
       <r>    6.9876    0.0000 </r>
       <r>    7.2325    0.0000 </r>
       <r>    7.2325    0.0000 </r>
       <r>    7.6220    0.0000 </r>
       <r>    7.7363    0.0000 </r>
       <r>    7.9546    0.0000 </r>
       <r>    8.0178    0.0000 </r>
       <r>    8.0553    0.0000 </r>
       <r>    8.0553    0.0000 </r>
       <r>    8.1685    0.0000 </r>
       <r>    8.2246    0.0000 </r>
       <r>    8.2246    0.0000 </r>
       <r>    8.3077    0.0000 </r>
       <r>    8.3287    0.0000 </r>
       <r>    8.3287    0.0000 </r>
       <r>    8.5322    0.0000 </r>
       <r>    8.6800    0.0000 </r>
       <r>    8.7285    0.0000 </r>
       <r>    8.7757    0.0000 </r>
       <r>    8.7970    0.0000 </r>
       <r>    8.7970    0.0000 </r>
       <r>    8.8069    0.0000 </r>
       <r>    8.8069    0.0000 </r>
       <r>    8.8465    0.0000 </r>
       <r>    8.8540    0.0000 </r>
       <r>    8.9206    0.0000 </r>
       <r>    8.9206    0.0000 </r>
       <r>    8.9647    0.0000 </r>
       <r>    9.0029    0.0000 </r>
       <r>    9.1617    0.0000 </r>
       <r>    9.1617    0.0000 </r>
       <r>    9.2764    0.0000 </r>
       <r>    9.3718    0.0000 </r>
      </set>
      <set comment="kpoint 8">
       <r>   -6.8041    1.0000 </r>
       <r>   -5.4327    1.0000 </r>
       <r>   -5.3991    1.0000 </r>
       <r>   -5.3709    1.0000 </r>
       <r>   -4.7787    1.0000 </r>
       <r>   -4.7070    1.0000 </r>
       <r>   -4.5913    1.0000 </r>
       <r>   -4.4768    1.0000 </r>
       <r>   -4.0743    1.0000 </r>
       <r>   -4.0013    1.0000 </r>
       <r>   -3.9781    1.0000 </r>
       <r>   -3.7690    1.0000 </r>
       <r>   -3.6303    1.0000 </r>
       <r>   -3.5791    1.0000 </r>
       <r>   -3.5789    1.0000 </r>
       <r>   -3.5715    1.0000 </r>
       <r>   -3.5285    1.0000 </r>
       <r>   -3.4531    1.0000 </r>
[...]
        <r>  0.0014  0.0050  0.0000 </r>
        <r>  0.0001  0.0010  0.0000 </r>
        <r>  0.0014  0.0050  0.0000 </r>
        <r>  0.0009  0.0055  0.0000 </r>
        <r>  0.0008  0.0019  0.0000 </r>
        <r>  0.0009  0.0055  0.0000 </r>
        <r>  0.0009  0.0055  0.0000 </r>
        <r>  0.0001  0.0003  0.0000 </r>
        <r>  0.0014  0.0050  0.0000 </r>
        <r>  0.0031  0.0011  0.0000 </r>
        <r>  0.0001  0.0003  0.0000 </r>
        <r>  0.0014  0.0050  0.0000 </r>
        <r>  0.0008  0.0019  0.0000 </r>
        <r>  0.0001  0.0010  0.0000 </r>
        <r>  0.0014  0.0050  0.0000 </r>
        <r>  0.0001  0.0003  0.0000 </r>
        <r>  0.0031  0.0011  0.0000 </r>
        <r>  0.0001  0.0010  0.0000 </r>
        <r>  0.0001  0.0003  0.0000 </r>
        <r>  0.0001  0.0010  0.0000 </r>
        <r>  0.0000  0.0001  0.0000 </r>
        <r>  0.0006  0.0012  0.0000 </r>
        <r>  0.0006  0.0012  0.0000 </r>
        <r>  0.0038  0.0012  0.0000 </r>
        <r>  0.0000  0.0010  0.0000 </r>
        <r>  0.0006  0.0012  0.0000 </r>
        <r>  0.0038  0.0012  0.0000 </r>
        <r>  0.0006  0.0012  0.0000 </r>
        <r>  0.0009  0.0029  0.0000 </r>
        <r>  0.0006  0.0012  0.0000 </r>
        <r>  0.0000  0.0010  0.0000 </r>
        <r>  0.0038  0.0012  0.0000 </r>
        <r>  0.0000  0.0010  0.0000 </r>
        <r>  0.0000  0.0010  0.0000 </r>
        <r>  0.0004  0.0068  0.0000 </r>
        <r>  0.0006  0.0012  0.0000 </r>
        <r>  0.0000  0.0066  0.0000 </r>
        <r>  0.0004  0.0068  0.0000 </r>
        <r>  0.0006  0.0012  0.0000 </r>
        <r>  0.0038  0.0012  0.0000 </r>
        <r>  0.0009  0.0029  0.0000 </r>
        <r>  0.0006  0.0012  0.0000 </r>
        <r>  0.0004  0.0068  0.0000 </r>
        <r>  0.0000  0.0066  0.0000 </r>
        <r>  0.0009  0.0029  0.0000 </r>
        <r>  0.0004  0.0068  0.0000 </r>
        <r>  0.0009  0.0029  0.0000 </r>
        <r>  0.0000  0.0000  0.0000 </r>
       </set>
       <set comment="band 139">
        <r>  0.0000  0.0043  0.0000 </r>
        <r>  0.0013  0.0040  0.0000 </r>
        <r>  0.0013  0.0040  0.0000 </r>
        <r>  0.0002  0.0013  0.0000 </r>
        <r>  0.0000  0.0009  0.0000 </r>
        <r>  0.0013  0.0040  0.0000 </r>
        <r>  0.0002  0.0013  0.0000 </r>
        <r>  0.0013  0.0040  0.0000 </r>
        <r>  0.0036  0.0023  0.0000 </r>
        <r>  0.0013  0.0040  0.0000 </r>
        <r>  0.0000  0.0009  0.0000 </r>
        <r>  0.0002  0.0013  0.0000 </r>
        <r>  0.0000  0.0009  0.0000 </r>
        <r>  0.0000  0.0009  0.0000 </r>
        <r>  0.0000  0.0033  0.0000 </r>
        <r>  0.0013  0.0040  0.0000 </r>
        <r>  0.0000  0.0105  0.0000 </r>
        <r>  0.0000  0.0032  0.0000 </r>
        <r>  0.0013  0.0040  0.0000 </r>
        <r>  0.0002  0.0013  0.0000 </r>
        <r>  0.0036  0.0023  0.0000 </r>
        <r>  0.0013  0.0040  0.0000 </r>
        <r>  0.0000  0.0032  0.0000 </r>
        <r>  0.0000  0.0105  0.0000 </r>
        <r>  0.0036  0.0023  0.0000 </r>
        <r>  0.0000  0.0033  0.0000 </r>
        <r>  0.0036  0.0023  0.0000 </r>
        <r>  0.0000  0.0131  0.0000 </r>
        <r>  0.0001  0.0031  0.0000 </r>
        <r>  0.0001  0.0031  0.0000 </r>
        <r>  0.0003  0.0016  0.0000 </r>
        <r>  0.0010  0.0008  0.0000 </r>
        <r>  0.0001  0.0032  0.0000 </r>
        <r>  0.0003  0.0016  0.0000 </r>
        <r>  0.0001  0.0032  0.0000 </r>
        <r>  0.0008  0.0007  0.0000 </r>
        <r>  0.0001  0.0032  0.0000 </r>
        <r>  0.0010  0.0008  0.0000 </r>
        <r>  0.0003  0.0016  0.0000 </r>
        <r>  0.0010  0.0008  0.0000 </r>
        <r>  0.0010  0.0008  0.0000 </r>
        <r>  0.0005  0.0050  0.0000 </r>
        <r>  0.0001  0.0031  0.0000 </r>
        <r>  0.0000  0.0037  0.0000 </r>
        <r>  0.0005  0.0050  0.0000 </r>
        <r>  0.0001  0.0032  0.0000 </r>
        <r>  0.0003  0.0016  0.0000 </r>
        <r>  0.0008  0.0007  0.0000 </r>
        <r>  0.0001  0.0031  0.0000 </r>
        <r>  0.0005  0.0050  0.0000 </r>
        <r>  0.0000  0.0037  0.0000 </r>
        <r>  0.0008  0.0007  0.0000 </r>
        <r>  0.0005  0.0050  0.0000 </r>
        <r>  0.0008  0.0007  0.0000 </r>
        <r>  0.0000  0.0000  0.0000 </r>
       </set>
       <set comment="band 140">
        <r>  0.0000  0.0023  0.0000 </r>
        <r>  0.0001  0.0024  0.0000 </r>
        <r>  0.0001  0.0024  0.0000 </r>
        <r>  0.0009  0.0032  0.0000 </r>
        <r>  0.0001  0.0035  0.0000 </r>
        <r>  0.0001  0.0024  0.0000 </r>
        <r>  0.0009  0.0032  0.0000 </r>
        <r>  0.0001  0.0024  0.0000 </r>
        <r>  0.0008  0.0049  0.0000 </r>
        <r>  0.0001  0.0024  0.0000 </r>
        <r>  0.0001  0.0035  0.0000 </r>
        <r>  0.0009  0.0032  0.0000 </r>
        <r>  0.0001  0.0035  0.0000 </r>
        <r>  0.0001  0.0035  0.0000 </r>
        <r>  0.0004  0.0025  0.0000 </r>
        <r>  0.0001  0.0024  0.0000 </r>
        <r>  0.0000  0.0029  0.0000 </r>
        <r>  0.0004  0.0025  0.0000 </r>
        <r>  0.0001  0.0024  0.0000 </r>
        <r>  0.0009  0.0032  0.0000 </r>
        <r>  0.0008  0.0049  0.0000 </r>
        <r>  0.0001  0.0024  0.0000 </r>
        <r>  0.0004  0.0025  0.0000 </r>
        <r>  0.0000  0.0029  0.0000 </r>
        <r>  0.0008  0.0049  0.0000 </r>
        <r>  0.0004  0.0025  0.0000 </r>
        <r>  0.0008  0.0049  0.0000 </r>
        <r>  0.0007  0.0000  0.0000 </r>
        <r>  0.0007  0.0053  0.0000 </r>
        <r>  0.0007  0.0053  0.0000 </r>
        <r>  0.0004  0.0042  0.0000 </r>
        <r>  0.0002  0.0016  0.0000 </r>
        <r>  0.0007  0.0053  0.0000 </r>
        <r>  0.0004  0.0042  0.0000 </r>
        <r>  0.0007  0.0053  0.0000 </r>
        <r>  0.0000  0.0026  0.0000 </r>
        <r>  0.0007  0.0053  0.0000 </r>
        <r>  0.0002  0.0016  0.0000 </r>
        <r>  0.0004  0.0042  0.0000 </r>
        <r>  0.0002  0.0016  0.0000 </r>
        <r>  0.0002  0.0016  0.0000 </r>
        <r>  0.0000  0.0015  0.0000 </r>
        <r>  0.0007  0.0053  0.0000 </r>
        <r>  0.0007  0.0003  0.0000 </r>
        <r>  0.0000  0.0015  0.0000 </r>
        <r>  0.0007  0.0053  0.0000 </r>
        <r>  0.0004  0.0042  0.0000 </r>
        <r>  0.0000  0.0026  0.0000 </r>
        <r>  0.0007  0.0053  0.0000 </r>
        <r>  0.0000  0.0015  0.0000 </r>
        <r>  0.0007  0.0003  0.0000 </r>
        <r>  0.0000  0.0026  0.0000 </r>
        <r>  0.0000  0.0015  0.0000 </r>
        <r>  0.0000  0.0026  0.0000 </r>
        <r>  0.0000  0.0000  0.0000 </r>
       </set>
       <set comment="band 141">
        <r>  0.0000  0.0009  0.0000 </r>
        <r>  0.0004  0.0033  0.0000 </r>
        <r>  0.0004  0.0032  0.0000 </r>
        <r>  0.0001  0.0059  0.0000 </r>
        <r>  0.0009  0.0017  0.0000 </r>
        <r>  0.0004  0.0031  0.0000 </r>
        <r>  0.0001  0.0060  0.0000 </r>
        <r>  0.0004  0.0033  0.0000 </r>
        <r>  0.0011  0.0018  0.0000 </r>
        <r>  0.0004  0.0031  0.0000 </r>
        <r>  0.0009  0.0016  0.0000 </r>
        <r>  0.0001  0.0059  0.0000 </r>
        <r>  0.0009  0.0016  0.0000 </r>
        <r>  0.0009  0.0016  0.0000 </r>
        <r>  0.0010  0.0012  0.0000 </r>
        <r>  0.0005  0.0032  0.0000 </r>
        <r>  0.0031  0.0016  0.0000 </r>
        <r>  0.0010  0.0012  0.0000 </r>
        <r>  0.0004  0.0032  0.0000 </r>
        <r>  0.0001  0.0060  0.0000 </r>
        <r>  0.0011  0.0018  0.0000 </r>
        <r>  0.0005  0.0032  0.0000 </r>
        <r>  0.0010  0.0013  0.0000 </r>
        <r>  0.0031  0.0016  0.0000 </r>
        <r>  0.0011  0.0019  0.0000 </r>
        <r>  0.0010  0.0013  0.0000 </r>
        <r>  0.0011  0.0019  0.0000 </r>
        <r>  0.0000  0.0122  0.0000 </r>
        <r>  0.0008  0.0027  0.0000 </r>
        <r>  0.0008  0.0027  0.0000 </r>
        <r>  0.0009  0.0016  0.0000 </r>
        <r>  0.0043  0.0007  0.0000 </r>
        <r>  0.0008  0.0027  0.0000 </r>
        <r>  0.0009  0.0016  0.0000 </r>
        <r>  0.0008  0.0027  0.0000 </r>
        <r>  0.0000  0.0042  0.0000 </r>
        <r>  0.0007  0.0027  0.0000 </r>
        <r>  0.0043  0.0007  0.0000 </r>
        <r>  0.0009  0.0016  0.0000 </r>
        <r>  0.0042  0.0007  0.0000 </r>
        <r>  0.0043  0.0007  0.0000 </r>
        <r>  0.0012  0.0017  0.0000 </r>
        <r>  0.0007  0.0027  0.0000 </r>
        <r>  0.0000  0.0007  0.0000 </r>
        <r>  0.0012  0.0017  0.0000 </r>
        <r>  0.0008  0.0027  0.0000 </r>
        <r>  0.0009  0.0017  0.0000 </r>
        <r>  0.0000  0.0042  0.0000 </r>
        <r>  0.0008  0.0028  0.0000 </r>
        <r>  0.0012  0.0017  0.0000 </r>
        <r>  0.0000  0.0007  0.0000 </r>
        <r>  0.0000  0.0042  0.0000 </r>
        <r>  0.0012  0.0017  0.0000 </r>
        <r>  0.0000  0.0042  0.0000 </r>
        <r>  0.0000  0.0000  0.0000 </r>
       </set>
       <set comment="band 142">
        <r>  0.0000  0.0139  0.0000 </r>
        <r>  0.0009  0.0046  0.0000 </r>
        <r>  0.0009  0.0044  0.0000 </r>
        <r>  0.0001  0.0024  0.0000 </r>
        <r>  0.0005  0.0027  0.0000 </r>
        <r>  0.0008  0.0046  0.0000 </r>
        <r>  0.0001  0.0024  0.0000 </r>
        <r>  0.0008  0.0045  0.0000 </r>
        <r>  0.0000  0.0004  0.0000 </r>
        <r>  0.0009  0.0044  0.0000 </r>
        <r>  0.0005  0.0027  0.0000 </r>
        <r>  0.0001  0.0024  0.0000 </r>
        <r>  0.0005  0.0027  0.0000 </r>
        <r>  0.0005  0.0027  0.0000 </r>
        <r>  0.0010  0.0043  0.0000 </r>
        <r>  0.0008  0.0045  0.0000 </r>
        <r>  0.0010  0.0091  0.0000 </r>
        <r>  0.0011  0.0045  0.0000 </r>
        <r>  0.0009  0.0044  0.0000 </r>
        <r>  0.0001  0.0024  0.0000 </r>
        <r>  0.0000  0.0004  0.0000 </r>
        <r>  0.0009  0.0045  0.0000 </r>
        <r>  0.0010  0.0043  0.0000 </r>
        <r>  0.0011  0.0090  0.0000 </r>
        <r>  0.0000  0.0004  0.0000 </r>
        <r>  0.0010  0.0044  0.0000 </r>
        <r>  0.0000  0.0004  0.0000 </r>
        <r>  0.0000  0.0059  0.0000 </r>
        <r>  0.0010  0.0026  0.0000 </r>
        <r>  0.0011  0.0025  0.0000 </r>
        <r>  0.0000  0.0010  0.0000 </r>
        <r>  0.0009  0.0017  0.0000 </r>
        <r>  0.0011  0.0025  0.0000 </r>
        <r>  0.0000  0.0010  0.0000 </r>
        <r>  0.0011  0.0025  0.0000 </r>
        <r>  0.0009  0.0029  0.0000 </r>
        <r>  0.0010  0.0026  0.0000 </r>
        <r>  0.0009  0.0018  0.0000 </r>
        <r>  0.0000  0.0010  0.0000 </r>
        <r>  0.0008  0.0018  0.0000 </r>
        <r>  0.0009  0.0017  0.0000 </r>
        <r>  0.0009  0.0036  0.0000 </r>
        <r>  0.0011  0.0025  0.0000 </r>
        <r>  0.0000  0.0165  0.0000 </r>
        <r>  0.0010  0.0036  0.0000 </r>
        <r>  0.0010  0.0026  0.0000 </r>
        <r>  0.0000  0.0010  0.0000 </r>
        <r>  0.0009  0.0029  0.0000 </r>
        <r>  0.0010  0.0026  0.0000 </r>
        <r>  0.0009  0.0035  0.0000 </r>
        <r>  0.0000  0.0165  0.0000 </r>
        <r>  0.0009  0.0029  0.0000 </r>
        <r>  0.0009  0.0036  0.0000 </r>
        <r>  0.0009  0.0029  0.0000 </r>
        <r>  0.0000  0.0000  0.0000 </r>
       </set>
       <set comment="band 143">
        <r>  0.0000  0.0110  0.0000 </r>
        <r>  0.0002  0.0017  0.0000 </r>
        <r>  0.0004  0.0018  0.0000 </r>
        <r>  0.0026  0.0094  0.0000 </r>
        <r>  0.0020  0.0020  0.0000 </r>
        <r>  0.0003  0.0017  0.0000 </r>
        <r>  0.0024  0.0096  0.0000 </r>
        <r>  0.0004  0.0016  0.0000 </r>
        <r>  0.0000  0.0027  0.0000 </r>
        <r>  0.0003  0.0016  0.0000 </r>
        <r>  0.0021  0.0020  0.0000 </r>
        <r>  0.0024  0.0095  0.0000 </r>
        <r>  0.0021  0.0020  0.0000 </r>
        <r>  0.0020  0.0021  0.0000 </r>
        <r>  0.0011  0.0029  0.0000 </r>
        <r>  0.0004  0.0018  0.0000 </r>
        <r>  0.0000  0.0020  0.0000 </r>
        <r>  0.0009  0.0032  0.0000 </r>
        <r>  0.0003  0.0016  0.0000 </r>
        <r>  0.0026  0.0095  0.0000 </r>
        <r>  0.0000  0.0028  0.0000 </r>
        <r>  0.0003  0.0018  0.0000 </r>
        <r>  0.0014  0.0032  0.0000 </r>
        <r>  0.0000  0.0021  0.0000 </r>
        <r>  0.0000  0.0028  0.0000 </r>
        <r>  0.0010  0.0031  0.0000 </r>
        <r>  0.0000  0.0027  0.0000 </r>
        <r>  0.0000  0.0018  0.0000 </r>
        <r>  0.0025  0.0028  0.0000 </r>
        <r>  0.0025  0.0024  0.0000 </r>
        <r>  0.0001  0.0015  0.0000 </r>
        <r>  0.0005  0.0109  0.0000 </r>
        <r>  0.0022  0.0027  0.0000 </r>
        <r>  0.0000  0.0016  0.0000 </r>
        <r>  0.0023  0.0026  0.0000 </r>
        <r>  0.0006  0.0042  0.0000 </r>
        <r>  0.0022  0.0026  0.0000 </r>
        <r>  0.0004  0.0105  0.0000 </r>
        <r>  0.0000  0.0016  0.0000 </r>
        <r>  0.0005  0.0105  0.0000 </r>
        <r>  0.0005  0.0111  0.0000 </r>
        <r>  0.0001  0.0005  0.0000 </r>
        <r>  0.0025  0.0024  0.0000 </r>
        <r>  0.0015  0.0068  0.0000 </r>
        <r>  0.0001  0.0005  0.0000 </r>
        <r>  0.0023  0.0025  0.0000 </r>
        <r>  0.0001  0.0015  0.0000 </r>
        <r>  0.0006  0.0043  0.0000 </r>
        <r>  0.0024  0.0028  0.0000 </r>
        <r>  0.0001  0.0005  0.0000 </r>
        <r>  0.0016  0.0067  0.0000 </r>
        <r>  0.0005  0.0042  0.0000 </r>
        <r>  0.0001  0.0005  0.0000 </r>
        <r>  0.0006  0.0041  0.0000 </r>
        <r>  0.0002  0.0000  0.0000 </r>
       </set>
       <set comment="band 144">
        <r>  0.0113  0.0000  0.0000 </r>
        <r>  0.0010  0.0037  0.0000 </r>
        <r>  0.0000  0.0045  0.0000 </r>
        <r>  0.0017  0.0043  0.0000 </r>
        <r>  0.0010  0.0003  0.0000 </r>
        <r>  0.0002  0.0033  0.0000 </r>
        <r>  0.0022  0.0047  0.0000 </r>
        <r>  0.0004  0.0038  0.0000 </r>
        <r>  0.0004  0.0012  0.0000 </r>
        <r>  0.0008  0.0049  0.0000 </r>
        <r>  0.0005  0.0004  0.0000 </r>
        <r>  0.0027  0.0051  0.0000 </r>
        <r>  0.0005  0.0007  0.0000 </r>
        <r>  0.0007  0.0002  0.0000 </r>
        <r>  0.0005  0.0077  0.0000 </r>
        <r>  0.0003  0.0050  0.0000 </r>
        <r>  0.0019  0.0004  0.0000 </r>
        <r>  0.0007  0.0061  0.0000 </r>
        <r>  0.0002  0.0052  0.0000 </r>
        <r>  0.0020  0.0042  0.0000 </r>
        <r>  0.0003  0.0025  0.0000 </r>
        <r>  0.0003  0.0037  0.0000 </r>
        <r>  0.0002  0.0086  0.0000 </r>
        <r>  0.0025  0.0004  0.0000 </r>
        <r>  0.0003  0.0023  0.0000 </r>
        <r>  0.0006  0.0072  0.0000 </r>
        <r>  0.0005  0.0016  0.0000 </r>
        <r>  0.0001  0.0007  0.0000 </r>
        <r>  0.0012  0.0086  0.0000 </r>
        <r>  0.0001  0.0091  0.0000 </r>
        <r>  0.0002  0.0022  0.0000 </r>
        <r>  0.0003  0.0039  0.0000 </r>
        <r>  0.0005  0.0095  0.0000 </r>
        <r>  0.0005  0.0017  0.0000 </r>
        <r>  0.0005  0.0091  0.0000 </r>
        <r>  0.0013  0.0019  0.0000 </r>
        <r>  0.0010  0.0088  0.0000 </r>
        <r>  0.0001  0.0063  0.0000 </r>
        <r>  0.0005  0.0011  0.0000 </r>
        <r>  0.0001  0.0039  0.0000 </r>
        <r>  0.0006  0.0061  0.0000 </r>
        <r>  0.0000  0.0041  0.0000 </r>
        <r>  0.0003  0.0088  0.0000 </r>
        <r>  0.0004  0.0016  0.0000 </r>
        <r>  0.0001  0.0037  0.0000 </r>
        <r>  0.0005  0.0085  0.0000 </r>
        <r>  0.0002  0.0009  0.0000 </r>
        <r>  0.0030  0.0022  0.0000 </r>
        <r>  0.0010  0.0090  0.0000 </r>
        <r>  0.0000  0.0044  0.0000 </r>
        <r>  0.0003  0.0007  0.0000 </r>
        <r>  0.0027  0.0016  0.0000 </r>
        <r>  0.0001  0.0042  0.0000 </r>
        <r>  0.0016  0.0026  0.0000 </r>
        <r>  0.0000  0.0001  0.0000 </r>
       </set>
      </set>
     </set>
    </set>
   </array>
  </projected>
 </calculation>
 <structure name="finalpos" >
  <crystal>
   <varray name="basis" >
    <v>       9.97646553       0.00000000       5.75991507 </v>
    <v>       3.32548851       9.40590192       5.75991507 </v>
    <v>       0.00000000       0.00000000      11.51983014 </v>
   </varray>
   <i name="volume">   1080.99386112 </i>
   <varray name="rec_basis" >
    <v>       0.10023590      -0.03543874       0.00000000 </v>
    <v>       0.00000000       0.10631623       0.00000000 </v>
    <v>      -0.05011795      -0.03543874       0.08680684 </v>
   </varray>
  </crystal>
  <varray name="positions" >
   <v>       0.29166667       0.29166667       0.29166667 </v>
   <v>       0.29166667       0.29166667       0.62500000 </v>
   <v>       0.29166667       0.29166667       0.95833333 </v>
   <v>       0.29166667       0.62500000       0.29166667 </v>
   <v>       0.29166667       0.62500000       0.62500000 </v>
   <v>       0.29166667       0.62500000       0.95833333 </v>
   <v>       0.29166667       0.95833333       0.29166667 </v>
   <v>       0.29166667       0.95833333       0.62500000 </v>
   <v>       0.29166667       0.95833333       0.95833333 </v>
   <v>       0.62500000       0.29166667       0.29166667 </v>
   <v>       0.62500000       0.29166667       0.62500000 </v>
   <v>       0.62500000       0.29166667       0.95833333 </v>
   <v>       0.62500000       0.62500000       0.29166667 </v>
   <v>       0.62500000       0.62500000       0.62500000 </v>
   <v>       0.62500000       0.62500000       0.95833333 </v>
   <v>       0.62500000       0.95833333       0.29166667 </v>
   <v>       0.62500000       0.95833333       0.62500000 </v>
   <v>       0.62500000       0.95833333       0.95833333 </v>
   <v>       0.95833333       0.29166667       0.29166667 </v>
   <v>       0.95833333       0.29166667       0.62500000 </v>
   <v>       0.95833333       0.29166667       0.95833333 </v>
   <v>       0.95833333       0.62500000       0.29166667 </v>
   <v>       0.95833333       0.62500000       0.62500000 </v>
   <v>       0.95833333       0.62500000       0.95833333 </v>
   <v>       0.95833333       0.95833333       0.29166667 </v>
   <v>       0.95833333       0.95833333       0.62500000 </v>
   <v>       0.95833333       0.95833333       0.95833333 </v>
   <v>       0.04166667       0.04166667       0.04166667 </v>
   <v>       0.04166667       0.04166667       0.37500000 </v>
   <v>       0.04166667       0.04166667       0.70833333 </v>
   <v>       0.04166667       0.37500000       0.04166667 </v>
   <v>       0.04166667       0.37500000       0.37500000 </v>
   <v>       0.04166667       0.37500000       0.70833333 </v>
   <v>       0.04166667       0.70833333       0.04166667 </v>
   <v>       0.04166667       0.70833333       0.37500000 </v>
   <v>       0.04166667       0.70833333       0.70833333 </v>
   <v>       0.37500000       0.04166667       0.04166667 </v>
   <v>       0.37500000       0.04166667       0.37500000 </v>
   <v>       0.37500000       0.04166667       0.70833333 </v>
   <v>       0.37500000       0.37500000       0.04166667 </v>
   <v>       0.37500000       0.37500000       0.37500000 </v>
   <v>       0.37500000       0.37500000       0.70833333 </v>
   <v>       0.37500000       0.70833333       0.04166667 </v>
   <v>       0.37500000       0.70833333       0.37500000 </v>
   <v>       0.37500000       0.70833333       0.70833333 </v>
   <v>       0.70833333       0.04166667       0.04166667 </v>
   <v>       0.70833333       0.04166667       0.37500000 </v>
   <v>       0.70833333       0.04166667       0.70833333 </v>
   <v>       0.70833333       0.37500000       0.04166667 </v>
   <v>       0.70833333       0.37500000       0.37500000 </v>
   <v>       0.70833333       0.37500000       0.70833333 </v>
   <v>       0.70833333       0.70833333       0.04166667 </v>
   <v>       0.70833333       0.70833333       0.37500000 </v>
   <v>       0.70833333       0.70833333       0.70833333 </v>
   <v>       0.54166667       0.54166667       0.54166667 </v>
  </varray>
 </structure>
</modeling>
