 vasp.5.4.4.18Apr17-6-g9f103f2a35 (build Jun 19 2019 10:34:07) complex          
  
 executed on               LB-5.4 date 2023.05.15  18:47:13
 running on   96 total cores
 distrk:  each k-point on   24 cores,    4 groups
 distr:  one band on NCORES_PER_BAND=   1 cores,   24 groups


--------------------------------------------------------------------------------------------------------


 INCAR:
 POTCAR:    PAW_PBE Si 05Jan2001                  

 ----------------------------------------------------------------------------- 
|                                                                             |
|           W    W    AA    RRRRR   N    N  II  N    N   GGGG   !!!           |
|           W    W   A  A   R    R  NN   N  II  NN   N  G    G  !!!           |
|           W    W  A    A  R    R  N N  N  II  N N  N  G       !!!           |
|           W WW W  AAAAAA  RRRRR   N  N N  II  N  N N  G  GGG   !            |
|           WW  WW  A    A  R   R   N   NN  II  N   NN  G    G                |
|           W    W  A    A  R    R  N    N  II  N    N   GGGG   !!!           |
|                                                                             |
|      For optimal performance we recommend to set                            |
|        NCORE= 4 - approx SQRT( number of cores)                             |
|      NCORE specifies how many cores store one orbital (NPAR=cpu/NCORE).     |
|      This setting can  greatly improve the performance of VASP for DFT.     |
|      The default,   NCORE=1            might be grossly inefficient         |
|      on modern multi-core architectures or massively parallel machines.     |
|      Do your own testing !!!!                                               |
|      Unfortunately you need to use the default for GW and RPA calculations. |
|      (for HF NCORE is supported but not extensively tested yet)             |
|                                                                             |
 ----------------------------------------------------------------------------- 


 ----------------------------------------------------------------------------- 
|                                                                             |
|           W    W    AA    RRRRR   N    N  II  N    N   GGGG   !!!           |
|           W    W   A  A   R    R  NN   N  II  NN   N  G    G  !!!           |
|           W    W  A    A  R    R  N N  N  II  N N  N  G       !!!           |
|           W WW W  AAAAAA  RRRRR   N  N N  II  N  N N  G  GGG   !            |
|           WW  WW  A    A  R   R   N   NN  II  N   NN  G    G                |
|           W    W  A    A  R    R  N    N  II  N    N   GGGG   !!!           |
|                                                                             |
|      You have enabled k-point parallelism (KPAR>1).                         |
|      This developmental code was originally  written by Paul Kent at ORNL,  |
|      and carefully double checked in Vienna.                                |
|      GW as well as linear response parallelism added by Martijn Marsman     |
|      and Georg Kresse.                                                      |
|      Carefully verify results versus KPAR=1.                                |
|      Report problems to Paul Kent and Vienna.                               |
|                                                                             |
 ----------------------------------------------------------------------------- 

 POTCAR:    PAW_PBE Si 05Jan2001                  
   VRHFIN =Si: s2p2                                                             
   LEXCH  = PE                                                                  
   EATOM  =   103.0669 eV,    7.5752 Ry                                         
                                                                                
   TITEL  = PAW_PBE Si 05Jan2001                                                
   LULTRA =        F    use ultrasoft PP ?                                      
   IUNSCR =        1    unscreen: 0-lin 1-nonlin 2-no                           
   RPACOR =    1.500    partial core radius                                     
   POMASS =   28.085; ZVAL   =    4.000    mass and valenz                      
   RCORE  =    1.900    outmost cutoff radius                                   
   RWIGS  =    2.480; RWIGS  =    1.312    wigner-seitz radius (au A)           
   ENMAX  =  245.345; ENMIN  =  184.009 eV                                      
   ICORE  =        2    local potential                                         
   LCOR   =        T    correct aug charges                                     
   LPAW   =        T    paw PP                                                  
   EAUG   =  322.069                                                            
   DEXC   =    0.000                                                            
   RMAX   =    1.950    core radius for proj-oper                               
   RAUG   =    1.300    factor for augmentation sphere                          
   RDEP   =    1.993    radius for radial grids                                 
   RDEPT  =    1.837    core radius for aug-charge                              
                                                                                
   Atomic configuration                                                         
    6 entries                                                                   
     n  l   j            E        occ.                                          
     1  0  0.50     -1785.8828   2.0000                                         
     2  0  0.50      -139.4969   2.0000                                         
     2  1  1.50       -95.5546   6.0000                                         
     3  0  0.50       -10.8127   2.0000                                         
     3  1  0.50        -4.0811   2.0000                                         
     3  2  1.50        -4.0817   0.0000                                         
   Description                                                                  
     l       E           TYP  RCUT    TYP  RCUT                                 
     0    -10.8127223     23  1.900                                             
     0     -7.6451159     23  1.900                                             
     1     -4.0811372     23  1.900                                             
     1      2.4879257     23  1.900                                             
     2     -4.0817478      7  1.900                                             
  local pseudopotential read in
  partial core-charges read in
  partial kinetic energy density read in
  atomic valenz-charges read in
  non local Contribution for L=           0  read in
    real space projection operators read in
  non local Contribution for L=           0  read in
    real space projection operators read in
  non local Contribution for L=           1  read in
    real space projection operators read in
  non local Contribution for L=           1  read in
    real space projection operators read in
    PAW grid and wavefunctions read in
 
   number of l-projection  operators is LMAX  =           4
   number of lm-projection operators is LMMAX =           8
 

 ----------------------------------------------------------------------------- 
|                                                                             |
|  ADVICE TO THIS USER RUNNING 'VASP/VAMP'   (HEAR YOUR MASTER'S VOICE ...):  |
|                                                                             |
|      You have a (more or less) 'large supercell' and for larger cells       |
|      it might be more efficient to use real space projection opertators     |
|      So try LREAL= Auto  in the INCAR   file.                               |
|      Mind:          For very  accurate calculation you might also keep the  |
|      reciprocal projection scheme          (i.e. LREAL=.FALSE.)             |
|                                                                             |
 ----------------------------------------------------------------------------- 

  PAW_PBE Si 05Jan2001                  :
 energy of atom  1       EATOM= -103.0669
 kinetic energy error for atom=    0.0004 (will be added to EATOM!!)
 
 
 POSCAR: Si53                                    
  positions in direct lattice
  velocities in cartesian coordinates
 exchange correlation table for  LEXCH =        8
   RHO(1)=    0.500       N(1)  =     2000
   RHO(2)=  100.500       N(2)  =     4000
 


--------------------------------------------------------------------------------------------------------


 ion  position               nearest neighbor table
   1  0.292  0.292  0.625-  32 2.35  40 2.35  41 2.35  38 2.35
   2  0.292  0.292  0.958-  30 2.35  39 2.35  41 2.35  36 2.35
   3  0.292  0.625  0.292-  34 2.35  42 2.35  43 2.35  40 2.35
   4  0.292  0.625  0.625-  35 2.35  43 2.35  44 2.35  41 2.35
   5  0.292  0.625  0.958-  33 2.35  42 2.35  44 2.35  39 2.35
   6  0.292  0.958  0.292-  28 2.35  36 2.35  37 2.35  43 2.35
   7  0.292  0.958  0.625-  29 2.35  37 2.35  38 2.35  44 2.35
   8  0.292  0.958  0.958-  27 2.35  36 2.35  38 2.35  42 2.35
   9  0.625  0.292  0.292-  40 2.35  48 2.35  49 2.35  46 2.35
  10  0.625  0.292  0.625-  41 2.35  49 2.35  50 2.35  47 2.35
  11  0.625  0.292  0.958-  39 2.35  48 2.35  50 2.35  45 2.35
  12  0.625  0.625  0.292-  43 2.35  51 2.35  52 2.35  49 2.35
  13  0.625  0.625  0.625-  44 2.35  52 2.35  53 2.35  50 2.35
  14  0.625  0.625  0.958-  42 2.35  51 2.35  53 2.35  48 2.35
  15  0.625  0.958  0.292-  37 2.35  45 2.35  46 2.35  52 2.35
  16  0.625  0.958  0.625-  38 2.35  46 2.35  47 2.35  53 2.35
  17  0.625  0.958  0.958-  36 2.35  45 2.35  47 2.35  51 2.35
  18  0.958  0.292  0.292-  49 2.35  31 2.35  30 2.35  28 2.35
  19  0.958  0.292  0.625-  50 2.35  32 2.35  31 2.35  29 2.35
  20  0.958  0.292  0.958-  48 2.35  30 2.35  32 2.35  27 2.35
  21  0.958  0.625  0.292-  52 2.35  34 2.35  33 2.35  31 2.35
  22  0.958  0.625  0.625-  53 2.35  35 2.35  34 2.35  32 2.35
  23  0.958  0.625  0.958-  51 2.35  33 2.35  35 2.35  30 2.35
  24  0.958  0.958  0.292-  46 2.35  28 2.35  27 2.35  34 2.35
  25  0.958  0.958  0.625-  47 2.35  29 2.35  28 2.35  35 2.35
  26  0.958  0.958  0.958-  45 2.35  27 2.35  29 2.35  33 2.35
  27  0.042  0.042  0.042-   8 2.35  26 2.35  24 2.35  20 2.35
  28  0.042  0.042  0.375-   6 2.35  24 2.35  25 2.35  18 2.35
  29  0.042  0.042  0.708-   7 2.35  25 2.35  26 2.35  19 2.35
  30  0.042  0.375  0.042-   2 2.35  20 2.35  18 2.35  23 2.35
  31  0.042  0.375  0.375-  18 2.35  19 2.35  21 2.35
  32  0.042  0.375  0.708-   1 2.35  19 2.35  20 2.35  22 2.35
  33  0.042  0.708  0.042-   5 2.35  23 2.35  21 2.35  26 2.35
  34  0.042  0.708  0.375-   3 2.35  21 2.35  22 2.35  24 2.35
  35  0.042  0.708  0.708-   4 2.35  22 2.35  23 2.35  25 2.35
  36  0.375  0.042  0.042-  17 2.35   8 2.35   6 2.35   2 2.35
  37  0.375  0.042  0.375-  15 2.35   7 2.35   6 2.35
  38  0.375  0.042  0.708-  16 2.35   8 2.35   7 2.35   1 2.35
  39  0.375  0.375  0.042-  11 2.35   2 2.35   5 2.35
  40  0.375  0.375  0.375-   9 2.35   1 2.35   3 2.35
  41  0.375  0.375  0.708-  10 2.35   2 2.35   1 2.35   4 2.35
  42  0.375  0.708  0.042-  14 2.35   5 2.35   3 2.35   8 2.35
  43  0.375  0.708  0.375-  12 2.35   4 2.35   3 2.35   6 2.35
  44  0.375  0.708  0.708-  13 2.35   5 2.35   4 2.35   7 2.35
  45  0.708  0.042  0.042-  26 2.35  17 2.35  15 2.35  11 2.35
  46  0.708  0.042  0.375-  24 2.35  16 2.35  15 2.35   9 2.35
  47  0.708  0.042  0.708-  25 2.35  17 2.35  16 2.35  10 2.35
  48  0.708  0.375  0.042-  20 2.35  11 2.35   9 2.35  14 2.35
  49  0.708  0.375  0.375-  18 2.35  10 2.35   9 2.35  12 2.35
  50  0.708  0.375  0.708-  19 2.35  11 2.35  10 2.35  13 2.35
  51  0.708  0.708  0.042-  23 2.35  14 2.35  12 2.35  17 2.35
  52  0.708  0.708  0.375-  21 2.35  13 2.35  12 2.35  15 2.35
  53  0.708  0.708  0.708-  22 2.35  14 2.35  13 2.35  16 2.35
 
  LATTYP: Found a face centered cubic cell.
 ALAT       =    16.2915000202
  
  Lattice vectors:
  
 A1 = (   9.9764655300,   0.0000000000,   5.7599150700)
 A2 = (   3.3254885100,   9.4059019200,   5.7599150700)
 A3 = (   0.0000000000,   0.0000000000,  11.5198301400)


Analysis of symmetry for initial positions (statically):
=====================================================================
 Subroutine PRICEL returns:
 Original cell was already a primitive cell.
 

 Routine SETGRP: Setting up the symmetry group for a 
 face centered cubic supercell.


 Subroutine GETGRP returns: Found 24 space group operations
 (whereof  6 operations were pure point group operations)
 out of a pool of 48 trial point group operations.


The static configuration has the point symmetry C_3v.
 The point group associated with its full space group is T_d .


Analysis of symmetry for dynamics (positions and initial velocities):
=====================================================================
 Subroutine PRICEL returns:
 Original cell was already a primitive cell.
 

 Routine SETGRP: Setting up the symmetry group for a 
 face centered cubic supercell.


 Subroutine GETGRP returns: Found 24 space group operations
 (whereof  6 operations were pure point group operations)
 out of a pool of 48 trial point group operations.


The dynamic configuration has the point symmetry C_3v.
 The point group associated with its full space group is T_d .


 Subroutine INISYM returns: Found 24 space group operations
 (whereof  6 operations are pure point group operations),
 and found     1 'primitive' translations

 
 
 KPOINTS: Automatic kpoint scheme                 

Automatic generation of k-mesh.
Space group operators:
 irot       det(A)        alpha          n_x          n_y          n_z        tau_x        tau_y        tau_z
    1     1.000000     0.000000     1.000000     0.000000     0.000000     0.000000     0.000000     0.000000
    2     1.000000   120.000000    -0.471405    -0.333333    -0.816497     0.000000     0.000000     0.000000
    3     1.000000   120.000000     0.471405     0.333333     0.816497     0.000000     0.000000     0.000000
    4    -1.000000   180.000000     0.288675     0.816497    -0.500000     0.000000     0.000000     0.000000
    5    -1.000000   180.000000     0.577350    -0.816497     0.000000     0.000000     0.000000     0.000000
    6    -1.000000   180.000000     0.866025     0.000000    -0.500000     0.000000     0.000000     0.000000
    7    -1.000000    90.000000    -0.816497    -0.577350    -0.000000     0.166667     0.000000     0.000000
    8    -1.000000   180.000000     0.866025     0.000000     0.500000     0.166667     0.000000     0.000000
    9    -1.000000    90.000000     0.408248    -0.577350     0.707107     0.166667     0.000000     0.000000
   10     1.000000   180.000000     0.816497     0.577350     0.000000     0.000000     0.000000     0.166667
   11     1.000000   120.000000     0.942809    -0.333333     0.000000     0.000000     0.000000     0.166667
   12     1.000000   120.000000    -0.000000    -1.000000    -0.000000     0.000000     0.000000     0.166667
   13    -1.000000    90.000000     0.816497     0.577350    -0.000000    -0.000000     0.166667     0.000000
   14    -1.000000    90.000000     0.408248    -0.577350    -0.707107     0.000000     0.166667    -0.000000
   15    -1.000000   180.000000     0.288675     0.816497     0.500000    -0.000000     0.166667     0.000000
   16     1.000000   120.000000    -0.000000     1.000000    -0.000000     0.166667     0.000000     0.000000
   17     1.000000   120.000000     0.471405     0.333333    -0.816497     0.166667     0.000000     0.000000
   18     1.000000   180.000000    -0.408248     0.577350     0.707107     0.166667     0.000000     0.000000
   19    -1.000000    90.000000    -0.408248     0.577350    -0.707107     0.000000     0.000000     0.166667
   20    -1.000000   180.000000     0.000000    -0.000000     1.000000     0.000000     0.000000     0.166667
   21    -1.000000    90.000000    -0.408248     0.577350     0.707107     0.000000     0.000000     0.166667
   22     1.000000   120.000000    -0.942809     0.333333     0.000000     0.000000     0.166667    -0.000000
   23     1.000000   180.000000    -0.408248     0.577350    -0.707107    -0.000000     0.166667     0.000000
   24     1.000000   120.000000    -0.471405    -0.333333     0.816497    -0.000000     0.166667     0.000000
 
 Subroutine IBZKPT returns following result:
 ===========================================
 
 Found      8 irreducible k-points:
 
 Following reciprocal coordinates:
            Coordinates               Weight
  0.000000  0.000000  0.000000      1.000000
  0.250000  0.000000  0.000000      8.000000
  0.500000  0.000000  0.000000      4.000000
  0.250000  0.250000  0.000000      6.000000
  0.500000  0.250000  0.000000     24.000000
 -0.250000  0.250000  0.000000     12.000000
  0.500000  0.500000  0.000000      3.000000
 -0.250000  0.500000  0.250000      6.000000
 
 Following cartesian coordinates:
            Coordinates               Weight
  0.000000  0.000000  0.000000      1.000000
  0.025059 -0.008860  0.000000      8.000000
  0.050118 -0.017719  0.000000      4.000000
  0.025059  0.017719  0.000000      6.000000
  0.050118  0.008860  0.000000     24.000000
 -0.025059  0.035439  0.000000     12.000000
  0.050118  0.035439  0.000000      3.000000
 -0.037588  0.053158  0.021702      6.000000
 


--------------------------------------------------------------------------------------------------------




 Dimension of arrays:
   k-points           NKPTS =      8   k-points in BZ     NKDIM =      8   number of bands    NBANDS=    144
   number of dos      NEDOS =    301   number of ions     NIONS =     53
   non local maximal  LDIM  =      4   non local SUM 2l+1 LMDIM =      8
   total plane-waves  NPLWV = 343000
   max r-space proj   IRMAX =      1   max aug-charges    IRDMAX=  10807
   dimension x,y,z NGX =    70 NGY =   70 NGZ =   70
   dimension x,y,z NGXF=   140 NGYF=  140 NGZF=  140
   support grid    NGXF=   140 NGYF=  140 NGZF=  140
   ions per type =              53
   NGX,Y,Z   is equivalent  to a cutoff of  10.10, 10.10, 10.10 a.u.
   NGXF,Y,Z  is equivalent  to a cutoff of  20.20, 20.20, 20.20 a.u.

 SYSTEM =  Si                                      
 POSCAR =  Si53                                    

 Startparameter for this run:
   NWRITE =      2    write-flag & timer
   PREC   = normal    normal or accurate (medium, high low for compatibility)
   ISTART =      1    job   : 0-new  1-cont  2-samecut
   ICHARG =      0    charge: 1-file 2-atom 10-const
   ISPIN  =      1    spin polarized calculation?
   LNONCOLLINEAR =      F non collinear calculations
   LSORBIT =      F    spin-orbit coupling
   INIWAV =      1    electr: 0-lowe 1-rand  2-diag
   LASPH  =      F    aspherical Exc in radial PAW
   METAGGA=      F    non-selfconsistent MetaGGA calc.

 Electronic Relaxation 1
   ENCUT  =  550.0 eV  40.42 Ry    6.36 a.u.  22.03 22.03 22.03*2*pi/ulx,y,z
   ENINI  =  550.0     initial cutoff
   ENAUG  =  322.1 eV  augmentation charge cutoff
   NELM   =    200;   NELMIN=  2; NELMDL=  0     # of ELM steps 
   EDIFF  = 0.1E-04   stopping-criterion for ELM
   LREAL  =      F    real-space projection
   NLSPLINE    = F    spline interpolate recip. space projectors
   LCOMPAT=      F    compatible to vasp.4.4
   GGA_COMPAT  = T    GGA compatible to vasp.4.4-vasp.4.6
   LMAXPAW     = -100 max onsite density
   LMAXMIX     =    2 max onsite mixed and CHGCAR
   VOSKOWN=      0    Vosko Wilk Nusair interpolation
   ROPT   =    0.00000
 Ionic relaxation
   EDIFFG = -.5E-01   stopping-criterion for IOM
   NSW    =    100    number of steps for IOM
   NBLOCK =      1;   KBLOCK =    100    inner block; outer block 
   IBRION =      2    ionic relax: 0-MD 1-quasi-New 2-CG
   NFREE  =      1    steps in history (QN), initial steepest desc. (CG)
   ISIF   =      2    stress and relaxation
   IWAVPR =     11    prediction:  0-non 1-charg 2-wave 3-comb
   ISYM   =      2    0-nonsym 1-usesym 2-fastsym
   LCORR  =      T    Harris-Foulkes like correction to forces

   POTIM  = 0.5000    time-step for ionic-motion
   TEIN   =    0.0    initial temperature
   TEBEG  =    0.0;   TEEND  =   0.0 temperature during run
   SMASS  =  -3.00    Nose mass-parameter (am)
   estimated Nose-frequenzy (Omega)   =  0.10E-29 period in steps =****** mass=  -0.303E-26a.u.
   SCALEE = 1.0000    scale energy and forces
   NPACO  =    256;   APACO  = 16.0  distance and # of slots for P.C.
   PSTRESS=    0.0 pullay stress

  Mass of Ions in am
   POMASS =  28.09
  Ionic Valenz
   ZVAL   =   4.00
  Atomic Wigner-Seitz radii
   RWIGS  =  -1.00
  virtual crystal weights 
   VCA    =   1.00
   NELECT =     211.0000    total number of electrons
   NUPDOWN=      -1.0000    fix difference up-down

 DOS related values:
   EMIN   =  10.00;   EMAX   =-10.00  energy-range for DOS
   EFERMI =   0.00
   ISMEAR =     0;   SIGMA  =   0.05  broadening in eV -4-tet -1-fermi 0-gaus

 Electronic relaxation 2 (details)
   IALGO  =     38    algorithm
   LDIAG  =      T    sub-space diagonalisation (order eigenvalues)
   LSUBROT=      F    optimize rotation matrix (better conditioning)
   TURBO    =      0    0=normal 1=particle mesh
   IRESTART =      0    0=no restart 2=restart with 2 vectors
   NREBOOT  =      0    no. of reboots
   NMIN     =      0    reboot dimension
   EREF     =   0.00    reference energy to select bands
   IMIX   =      4    mixing-type and parameters
     AMIX     =   0.20;   BMIX     =  1.00
     AMIX_MAG =   0.80;   BMIX_MAG =  1.00
     AMIN     =   0.10
     WC   =   100.;   INIMIX=   1;  MIXPRE=   1;  MAXMIX= -45

 Intra band minimization:
   WEIMIN = 0.0010     energy-eigenvalue tresh-hold
   EBREAK =  0.17E-07  absolut break condition
   DEPER  =   0.30     relativ break condition  

   TIME   =   0.40     timestep for ELM

  volume/ion in A,a.u.               =      20.40       137.64
  Fermi-wavevector in a.u.,A,eV,Ry     =   0.949645  1.794569 12.270080  0.901825
  Thomas-Fermi vector in A             =   2.077947
 
 Write flags
   LWAVE        =      T    write WAVECAR
   LDOWNSAMPLE  =      F    k-point downsampling of WAVECAR
   LCHARG       =      T    write CHGCAR
   LVTOT        =      F    write LOCPOT, total local potential
   LVHAR        =      F    write LOCPOT, Hartree potential only
   LELF         =      F    write electronic localiz. function (ELF)
   LORBIT       =     10    0 simple, 1 ext, 2 COOP (PROOUT), +10 PAW based schemes


 Dipole corrections
   LMONO  =      F    monopole corrections only (constant potential shift)
   LDIPOL =      F    correct potential (dipole corrections)
   IDIPOL =      0    1-x, 2-y, 3-z, 4-all directions 
   EPSILON=  1.0000000 bulk dielectric constant

 Exchange correlation treatment:
   GGA     =    --    GGA type
   LEXCH   =     8    internal setting for exchange type
   VOSKOWN=      0    Vosko Wilk Nusair interpolation
   LHFCALC =     F    Hartree Fock is set to
   LHFONE  =     F    Hartree Fock one center treatment
   AEXX    =    0.0000 exact exchange contribution

 Linear response parameters
   LEPSILON=     F    determine dielectric tensor
   LRPA    =     F    only Hartree local field effects (RPA)
   LNABLA  =     F    use nabla operator in PAW spheres
   LVEL    =     F    velocity operator in full k-point grid
   LINTERFAST=   F  fast interpolation
   KINTER  =     0    interpolate to denser k-point grid
   CSHIFT  =0.1000    complex shift for real part using Kramers Kronig
   OMEGAMAX=  -1.0    maximum frequency
   DEG_THRESHOLD= 0.2000000E-02 threshold for treating states as degnerate
   RTIME   =   -0.100 relaxation time in fs
  (WPLASMAI=    0.000 imaginary part of plasma frequency in eV, 0.658/RTIME)
   DFIELD  = 0.0000000 0.0000000 0.0000000 field for delta impulse in time
 
 Orbital magnetization related:
   ORBITALMAG=     F  switch on orbital magnetization
   LCHIMAG   =     F  perturbation theory with respect to B field
   DQ        =  0.001000  dq finite difference perturbation B field
   LLRAUG    =     F  two centre corrections for induced B field



--------------------------------------------------------------------------------------------------------


 conjugate gradient relaxation of ions
 charge density and potential will be updated during run
 non-spin polarized calculation
 Variant of blocked Davidson
 Davidson routine will perform the subspace rotation
 perform sub-space diagonalisation
    after iterative eigenvector-optimisation
 modified Broyden-mixing scheme, WC =      100.0
 initial mixing is a Kerker type mixing with AMIX =  0.2000 and BMIX =      1.0000
 Hartree-type preconditioning will be used
 using additional bands           38
 reciprocal scheme for non local part
 use partial core corrections
 calculate Harris-corrections to forces 
   (improved forces if not selfconsistent)
 use gradient corrections 
 use of overlap-Matrix (Vanderbilt PP)
 Gauss-broadening in eV      SIGMA  =   0.05


--------------------------------------------------------------------------------------------------------


  energy-cutoff  :      550.00
  volume of cell :     1080.99
      direct lattice vectors                 reciprocal lattice vectors
     9.976465530  0.000000000  5.759915070     0.100235900 -0.035438742  0.000000000
     3.325488510  9.405901920  5.759915070     0.000000000  0.106316227  0.000000000
     0.000000000  0.000000000 11.519830140    -0.050117950 -0.035438742  0.086806836

  length of vectors
    11.519830124 11.519830136 11.519830140     0.106316227  0.106316227  0.106316227


 
 old parameters found on file WAVECAR:
  energy-cutoff  :      550.00
  volume of cell :     1080.99
      direct lattice vectors                 reciprocal lattice vectors
     9.976465530  0.000000000  5.759915070     0.100235900 -0.035438742  0.000000000
     3.325488510  9.405901920  5.759915070     0.000000000  0.106316227  0.000000000
     0.000000000  0.000000000 11.519830140    -0.050117950 -0.035438742  0.086806836

  length of vectors

 
 k-points in units of 2pi/SCALE and weight: Automatic kpoint scheme                 
   0.00000000  0.00000000  0.00000000       0.016
   0.02505897 -0.00885969  0.00000000       0.125
   0.05011795 -0.01771937  0.00000000       0.062
   0.02505897  0.01771937  0.00000000       0.094
   0.05011795  0.00885969  0.00000000       0.375
  -0.02505897  0.03543874  0.00000000       0.188
   0.05011795  0.03543874  0.00000000       0.047
  -0.03758846  0.05315811  0.02170171       0.094
 
 k-points in reciprocal lattice and weights: Automatic kpoint scheme                 
   0.00000000  0.00000000  0.00000000       0.016
   0.25000000  0.00000000  0.00000000       0.125
   0.50000000  0.00000000  0.00000000       0.062
   0.25000000  0.25000000  0.00000000       0.094
   0.50000000  0.25000000  0.00000000       0.375
  -0.25000000  0.25000000  0.00000000       0.188
   0.50000000  0.50000000  0.00000000       0.047
  -0.25000000  0.50000000  0.25000000       0.094
 
 position of ions in fractional coordinates (direct lattice) 
   0.29166667  0.29166667  0.62500000
   0.29166667  0.29166667  0.95833333
   0.29166667  0.62500000  0.29166667
   0.29166667  0.62500000  0.62500000
   0.29166667  0.62500000  0.95833333
   0.29166667  0.95833333  0.29166667
   0.29166667  0.95833333  0.62500000
   0.29166667  0.95833333  0.95833333
   0.62500000  0.29166667  0.29166667
   0.62500000  0.29166667  0.62500000
   0.62500000  0.29166667  0.95833333
   0.62500000  0.62500000  0.29166667
   0.62500000  0.62500000  0.62500000
   0.62500000  0.62500000  0.95833333
   0.62500000  0.95833333  0.29166667
   0.62500000  0.95833333  0.62500000
   0.62500000  0.95833333  0.95833333
   0.95833333  0.29166667  0.29166667
   0.95833333  0.29166667  0.62500000
   0.95833333  0.29166667  0.95833333
   0.95833333  0.62500000  0.29166667
   0.95833333  0.62500000  0.62500000
   0.95833333  0.62500000  0.95833333
   0.95833333  0.95833333  0.29166667
   0.95833333  0.95833333  0.62500000
   0.95833333  0.95833333  0.95833333
   0.04166667  0.04166667  0.04166667
   0.04166667  0.04166667  0.37500000
   0.04166667  0.04166667  0.70833333
   0.04166667  0.37500000  0.04166667
   0.04166667  0.37500000  0.37500000
   0.04166667  0.37500000  0.70833333
   0.04166667  0.70833333  0.04166667
   0.04166667  0.70833333  0.37500000
   0.04166667  0.70833333  0.70833333
   0.37500000  0.04166667  0.04166667
   0.37500000  0.04166667  0.37500000
   0.37500000  0.04166667  0.70833333
   0.37500000  0.37500000  0.04166667
   0.37500000  0.37500000  0.37500000
   0.37500000  0.37500000  0.70833333
   0.37500000  0.70833333  0.04166667
   0.37500000  0.70833333  0.37500000
   0.37500000  0.70833333  0.70833333
   0.70833333  0.04166667  0.04166667
   0.70833333  0.04166667  0.37500000
   0.70833333  0.04166667  0.70833333
   0.70833333  0.37500000  0.04166667
   0.70833333  0.37500000  0.37500000
   0.70833333  0.37500000  0.70833333
   0.70833333  0.70833333  0.04166667
   0.70833333  0.70833333  0.37500000
   0.70833333  0.70833333  0.70833333
 
 position of ions in cartesian coordinates  (Angst):
   3.87973659  2.74338806 10.55984429
   3.87973659  2.74338806 14.39978767
   4.98823276  5.87868870  8.63987260
   4.98823276  5.87868870 12.47981598
   4.98823276  5.87868870 16.31975937
   6.09672893  9.01398934 10.55984429
   6.09672893  9.01398934 14.39978767
   6.09672893  9.01398934 18.23973106
   7.20522510  2.74338806  8.63987260
   7.20522510  2.74338806 12.47981598
   7.20522510  2.74338806 16.31975937
   8.31372128  5.87868870 10.55984429
   8.31372128  5.87868870 14.39978767
   8.31372128  5.87868870 18.23973106
   9.42221745  9.01398934 12.47981598
   9.42221745  9.01398934 16.31975937
   9.42221745  9.01398934 20.15970275
  10.53071362  2.74338806 10.55984429
  10.53071362  2.74338806 14.39978767
  10.53071362  2.74338806 18.23973106
  11.63920979  5.87868870 12.47981598
  11.63920979  5.87868870 16.31975937
  11.63920979  5.87868870 20.15970275
  12.74770596  9.01398934 14.39978767
  12.74770596  9.01398934 18.23973106
  12.74770596  9.01398934 22.07967444
   0.55424808  0.39191258  0.95998584
   0.55424808  0.39191258  4.79992922
   0.55424808  0.39191258  8.63987260
   1.66274425  3.52721322  2.87995753
   1.66274425  3.52721322  6.71990091
   1.66274425  3.52721322 10.55984430
   2.77124042  6.66251386  4.79992922
   2.77124042  6.66251386  8.63987261
   2.77124042  6.66251386 12.47981599
   3.87973659  0.39191258  2.87995753
   3.87973659  0.39191258  6.71990091
   3.87973659  0.39191258 10.55984430
   4.98823277  3.52721322  4.79992922
   4.98823277  3.52721322  8.63987261
   4.98823277  3.52721322 12.47981599
   6.09672894  6.66251386  6.71990091
   6.09672894  6.66251386 10.55984430
   6.09672894  6.66251386 14.39978768
   7.20522511  0.39191258  4.79992922
   7.20522511  0.39191258  8.63987261
   7.20522511  0.39191258 12.47981599
   8.31372128  3.52721322  6.71990091
   8.31372128  3.52721322 10.55984430
   8.31372128  3.52721322 14.39978768
   9.42221745  6.66251386  8.63987260
   9.42221745  6.66251386 12.47981599
   9.42221745  6.66251386 16.31975937
 


--------------------------------------------------------------------------------------------------------


 k-point  1 :   0.0000 0.0000 0.0000  plane waves:   31415
 k-point  2 :   0.2500 0.0000 0.0000  plane waves:   31608
 k-point  3 :   0.5000 0.0000 0.0000  plane waves:   31638
 k-point  4 :   0.2500 0.2500 0.0000  plane waves:   31695
 k-point  5 :   0.5000 0.2500 0.0000  plane waves:   31649
 k-point  6 :  -0.2500 0.2500 0.0000  plane waves:   31674
 k-point  7 :   0.5000 0.5000 0.0000  plane waves:   31716
 k-point  8 :  -0.2500 0.5000 0.2500  plane waves:   31684

 maximum and minimum number of plane-waves per node :     31716    31415

 maximum number of plane-waves:     31716
 maximum index in each direction: 
   IXMAX=   22   IYMAX=   22   IZMAX=   22
   IXMIN=  -22   IYMIN=  -22   IZMIN=  -22


 serial   3D FFT for wavefunctions
 parallel 3D FFT for charge:
    minimum data exchange during FFTs selected (reduces bandwidth)


 total amount of memory used by VASP MPI-rank0   122888. kBytes
=======================================================================

   base      :      30000. kBytes
   nonl-proj :      43150. kBytes
   fftplans  :       5382. kBytes
   grid      :      19496. kBytes
   one-center:        162. kBytes
   wavefun   :      24698. kBytes
 
     INWAV:  cpu time    8.4729: real time    8.6099
 Broyden mixing: mesh for mixing (old mesh)
   NGX = 45   NGY = 45   NGZ = 45
  (NGX  =140   NGY  =140   NGZ  =140)
  gives a total of  91125 points

 charge density for first step will be calculated from the start-wavefunctions


--------------------------------------------------------------------------------------------------------


 Maximum index for augmentation-charges          503 (set IRDMAX)


--------------------------------------------------------------------------------------------------------


 initial charge from wavefunction
 First call to EWALD:  gamma=   0.173
 Maximum number of real-space cells 3x 3x 3
 Maximum number of reciprocal cells 3x 3x 3

    FEWALD:  cpu time    0.0070: real time    0.0071


--------------------------------------- Iteration      1(   1)  ---------------------------------------


    POTLOK:  cpu time    0.0931: real time    0.1034
    SETDIJ:  cpu time    0.0086: real time    0.0088
     EDDAV:  cpu time    6.2798: real time    6.3519
       DOS:  cpu time    0.4594: real time    0.4665
    CHARGE:  cpu time    0.2664: real time    0.2692
    MIXING:  cpu time    0.0546: real time    0.0550
    --------------------------------------------
      LOOP:  cpu time    7.1620: real time    7.2549

 eigenvalue-minimisations  :  2448
 total energy-change (2. order) :-0.2896574E+03  (-0.1592612E-04)
 number of electron     210.9999999 magnetization 
 augmentation part      -12.1956529 magnetization 

 Broyden mixing:
  rms(total) = 0.14468E-02    rms(broyden)= 0.14468E-02
  rms(prec ) = 0.43689E-02
  weight for this iteration     100.00

 Free energy of the ion-electron system (eV)
  ---------------------------------------------------
  alpha Z        PSCENC =        87.47481167
  Ewald energy   TEWEN  =     -5974.52528800
  -Hartree energ DENC   =      -435.07313642
  -exchange      EXHF   =         0.00000000
  -V(xc)+E(xc)   XCENC  =      -481.15327705
  PAW double counting   =     22226.22660160   -21299.27520466
  entropy T*S    EENTRO =        -0.00585979
  eigenvalues    EBANDS =       124.15111651
  atomic energy  EATOM  =      5462.52286525
  Solvation  Ediel_sol  =         0.00000000
  ---------------------------------------------------
  free energy    TOTEN  =      -289.65737089 eV

  energy without entropy =     -289.65151110  energy(sigma->0) =     -289.65444099


--------------------------------------------------------------------------------------------------------




--------------------------------------- Iteration      1(   2)  ---------------------------------------


    POTLOK:  cpu time    0.0737: real time    0.0749
    SETDIJ:  cpu time    0.1693: real time    0.1709
     EDDAV:  cpu time    3.6912: real time    3.7299
       DOS:  cpu time    0.0070: real time    0.0070
    CHARGE:  cpu time    0.3547: real time    0.3568
    MIXING:  cpu time    0.0771: real time    0.0777
    --------------------------------------------
      LOOP:  cpu time    4.3729: real time    4.4173

 eigenvalue-minimisations  :  2352
 total energy-change (2. order) : 0.2343049E-04  (-0.5109588E-05)
 number of electron     210.9999999 magnetization 
 augmentation part      -12.1956683 magnetization 

 Broyden mixing:
  rms(total) = 0.59602E-03    rms(broyden)= 0.59602E-03
  rms(prec ) = 0.17697E-02
  weight for this iteration     100.00

 eigenvalues of (default mixing * dielectric matrix)
  average eigenvalue GAMMA=   0.9626
  0.9626

 Free energy of the ion-electron system (eV)
  ---------------------------------------------------
  alpha Z        PSCENC =        87.47481167
  Ewald energy   TEWEN  =     -5974.52528800
  -Hartree energ DENC   =      -435.08923315
  -exchange      EXHF   =         0.00000000
  -V(xc)+E(xc)   XCENC  =      -481.15285740
  PAW double counting   =     22226.48882454   -21299.53748373
  entropy T*S    EENTRO =        -0.00584259
  eigenvalues    EBANDS =       124.16685596
  atomic energy  EATOM  =      5462.52286525
  Solvation  Ediel_sol  =         0.00000000
  ---------------------------------------------------
  free energy    TOTEN  =      -289.65734745 eV

  energy without entropy =     -289.65150487  energy(sigma->0) =     -289.65442616


--------------------------------------------------------------------------------------------------------




--------------------------------------- Iteration      1(   3)  ---------------------------------------


    POTLOK:  cpu time    0.0711: real time    0.0720
    SETDIJ:  cpu time    0.5992: real time    0.6046
     EDDAV:  cpu time    3.5729: real time    3.6751
       DOS:  cpu time    0.0070: real time    0.0071
    --------------------------------------------
      LOOP:  cpu time    4.2502: real time    4.3587

 eigenvalue-minimisations  :  2448
 total energy-change (2. order) : 0.3484403E-05  (-0.2906345E-05)
 number of electron     210.9999999 magnetization 
 augmentation part      -12.1956683 magnetization 

 Free energy of the ion-electron system (eV)
  ---------------------------------------------------
  alpha Z        PSCENC =        87.47481167
  Ewald energy   TEWEN  =     -5974.52528800
  -Hartree energ DENC   =      -435.09848440
  -exchange      EXHF   =         0.00000000
  -V(xc)+E(xc)   XCENC  =      -481.15266050
  PAW double counting   =     22226.63999752   -21299.68864058
  entropy T*S    EENTRO =        -0.00583265
  eigenvalues    EBANDS =       124.17588772
  atomic energy  EATOM  =      5462.52286525
  Solvation  Ediel_sol  =         0.00000000
  ---------------------------------------------------
  free energy    TOTEN  =      -289.65734397 eV

  energy without entropy =     -289.65151132  energy(sigma->0) =     -289.65442765


--------------------------------------------------------------------------------------------------------




 average (electrostatic) potential at core
  the test charge radii are     0.9892
  (the norm of the test charge is              1.0000)
       1 -83.5275       2 -83.5275       3 -83.5275       4 -83.4663       5 -83.5275
       6 -83.5275       7 -83.5275       8 -83.4002       9 -83.5275      10 -83.4663
      11 -83.5275      12 -83.4663      13 -83.4663      14 -83.3858      15 -83.5275
      16 -83.3858      17 -83.3858      18 -83.5275      19 -83.5275      20 -83.4002
      21 -83.5275      22 -83.3858      23 -83.3858      24 -83.4002      25 -83.3858
      26 -83.4002      27 -83.3692      28 -83.4118      29 -83.4118      30 -83.4118
      31 -83.8471      32 -83.4118      33 -83.4118      34 -83.4118      35 -83.4092
      36 -83.4118      37 -83.8471      38 -83.4118      39 -83.8471      40 -83.8471
      41 -83.6138      42 -83.4118      43 -83.6138      44 -83.6138      45 -83.4118
      46 -83.4118      47 -83.4092      48 -83.4118      49 -83.6138      50 -83.6138
      51 -83.4092      52 -83.6138      53 -83.4092
 
 
 
 E-fermi :   5.3812     XC(G=0):  -9.3250     alpha+bet :-11.7574


 k-point     1 :       0.0000    0.0000    0.0000
  band No.  band energies     occupation 
      1      -6.2626      2.00000
      2      -4.9658      2.00000
      3      -4.9658      2.00000
      4      -4.9658      2.00000
      5      -4.9346      2.00000
      6      -4.8941      2.00000
      7      -4.8941      2.00000
      8      -4.8941      2.00000
      9      -4.6824      2.00000
     10      -4.4240      2.00000
     11      -4.4240      2.00000
     12      -4.3791      2.00000
     13      -4.3791      2.00000
     14      -4.3791      2.00000
     15      -3.9877      2.00000
     16      -3.0729      2.00000
     17      -3.0729      2.00000
     18      -3.0533      2.00000
     19      -3.0533      2.00000
     20      -3.0533      2.00000
     21      -3.0297      2.00000
     22      -3.0297      2.00000
     23      -3.0297      2.00000
     24      -2.9985      2.00000
     25      -2.9985      2.00000
     26      -2.9985      2.00000
     27      -2.1178      2.00000
     28      -1.1327      2.00000
     29      -1.1327      2.00000
     30      -1.1327      2.00000
     31      -1.1213      2.00000
     32      -1.1213      2.00000
     33      -1.0984      2.00000
     34      -1.0984      2.00000
     35      -1.0984      2.00000
     36      -1.0265      2.00000
     37      -1.0265      2.00000
     38      -1.0265      2.00000
     39      -0.2755      2.00000
     40       0.3128      2.00000
     41       0.3247      2.00000
     42       0.3247      2.00000
     43       0.3247      2.00000
     44       0.4199      2.00000
     45       0.4199      2.00000
     46       0.4199      2.00000
     47       0.5132      2.00000
     48       0.6377      2.00000
     49       0.6377      2.00000
     50       0.7048      2.00000
     51       0.7048      2.00000
     52       0.7048      2.00000
     53       1.2389      2.00000
     54       1.2389      2.00000
     55       1.2389      2.00000
     56       1.2406      2.00000
     57       1.2726      2.00000
     58       1.2726      2.00000
     59       1.2817      2.00000
     60       1.2817      2.00000
     61       1.2817      2.00000
     62       1.5296      2.00000
     63       1.5296      2.00000
     64       1.5296      2.00000
     65       3.2190      2.00000
     66       3.2190      2.00000
     67       3.2190      2.00000
     68       3.2279      2.00000
     69       3.2279      2.00000
     70       3.2279      2.00000
     71       3.2362      2.00000
     72       3.2362      2.00000
     73       3.2362      2.00000
     74       3.3771      2.00000
     75       3.3857      2.00000
     76       3.3857      2.00000
     77       3.3857      2.00000
     78       3.5263      2.00000
     79       3.5263      2.00000
     80       3.5263      2.00000
     81       3.5324      2.00000
     82       3.5419      2.00000
     83       3.5419      2.00000
     84       3.5444      2.00000
     85       3.5444      2.00000
     86       3.5444      2.00000
     87       3.9876      2.00000
     88       3.9876      2.00000
     89       3.9876      2.00000
     90       4.6176      2.00000
     91       4.6176      2.00000
     92       4.6208      2.00000
     93       4.6208      2.00000
     94       4.6208      2.00000
     95       4.6617      2.00000
     96       4.6617      2.00000
     97       4.6617      2.00000
     98       4.6631      2.00000
     99       4.6631      2.00000
    100       4.6631      2.00000
    101       4.6655      2.00000
    102       4.6655      2.00000
    103       5.4308      0.16085
    104       5.4308      0.16085
    105       5.4308      0.16085
    106       6.2678      0.00000
    107       6.2678      0.00000
    108       6.2678      0.00000
    109       6.4168      0.00000
    110       6.4168      0.00000
    111       6.4992      0.00000
    112       6.6063      0.00000
    113       6.6063      0.00000
    114       6.6063      0.00000
    115       7.2208      0.00000
    116       7.2208      0.00000
    117       7.2208      0.00000
    118       7.2354      0.00000
    119       7.2354      0.00000
    120       7.2354      0.00000
    121       7.3001      0.00000
    122       7.3311      0.00000
    123       7.3311      0.00000
    124       7.3311      0.00000
    125       7.3461      0.00000
    126       7.3461      0.00000
    127       7.4362      0.00000
    128       7.4449      0.00000
    129       7.4449      0.00000
    130       7.4449      0.00000
    131       7.5361      0.00000
    132       7.5361      0.00000
    133       7.5361      0.00000
    134       7.6440      0.00000
    135       7.7680      0.00000
    136       7.7680      0.00000
    137       7.8034      0.00000
    138       7.8034      0.00000
    139       7.8034      0.00000
    140       8.3735      0.00000
    141       8.3735      0.00000
    142       8.3735      0.00000
    143       8.6461      0.00000
    144       9.1488      0.00000

 k-point     2 :       0.2500    0.0000    0.0000
  band No.  band energies     occupation 
      1      -6.1738      2.00000
      2      -5.4784      2.00000
      3      -5.0569      2.00000
      4      -5.0569      2.00000
      5      -4.9720      2.00000
      6      -4.7880      2.00000
      7      -4.7880      2.00000
      8      -4.7104      2.00000
      9      -4.6379      2.00000
     10      -4.6379      2.00000
     11      -4.4677      2.00000
     12      -4.2197      2.00000
     13      -3.8685      2.00000
     14      -3.8685      2.00000
     15      -3.7306      2.00000
     16      -3.6416      2.00000
     17      -3.6416      2.00000
     18      -3.4434      2.00000
     19      -3.0483      2.00000
     20      -3.0409      2.00000
     21      -3.0409      2.00000
     22      -3.0203      2.00000
     23      -3.0203      2.00000
     24      -2.8269      2.00000
     25      -2.7644      2.00000
     26      -2.7644      2.00000
     27      -2.1257      2.00000
     28      -1.3992      2.00000
     29      -1.3992      2.00000
     30      -1.2547      2.00000
     31      -1.1695      2.00000
     32      -1.1470      2.00000
     33      -1.1470      2.00000
     34      -1.0990      2.00000
     35      -1.0990      2.00000
     36      -0.8449      2.00000
     37      -0.7190      2.00000
     38      -0.6154      2.00000
     39      -0.6154      2.00000
     40      -0.3470      2.00000
     41      -0.1269      2.00000
     42      -0.1269      2.00000
     43      -0.0692      2.00000
     44       0.0073      2.00000
     45       0.0073      2.00000
     46       0.6033      2.00000
     47       0.8408      2.00000
     48       0.8408      2.00000
     49       1.0443      2.00000
     50       1.2517      2.00000
     51       1.2517      2.00000
     52       1.4131      2.00000
     53       1.4293      2.00000
     54       1.4407      2.00000
     55       1.4407      2.00000
     56       1.4574      2.00000
     57       1.4574      2.00000
     58       1.4968      2.00000
     59       1.6061      2.00000
     60       1.6061      2.00000
     61       1.6950      2.00000
     62       1.7426      2.00000
     63       1.7426      2.00000
     64       1.7962      2.00000
     65       2.7739      2.00000
     66       2.7739      2.00000
     67       2.8066      2.00000
     68       3.0847      2.00000
     69       3.1326      2.00000
     70       3.1326      2.00000
     71       3.1919      2.00000
     72       3.2213      2.00000
     73       3.2256      2.00000
     74       3.2256      2.00000
     75       3.2414      2.00000
     76       3.2414      2.00000
     77       3.2486      2.00000
     78       3.2968      2.00000
     79       3.2968      2.00000
     80       3.4021      2.00000
     81       3.4021      2.00000
     82       3.4243      2.00000
     83       3.5112      2.00000
     84       3.6841      2.00000
     85       3.6841      2.00000
     86       3.8097      2.00000
     87       3.8097      2.00000
     88       3.8567      2.00000
     89       3.9241      2.00000
     90       4.0809      2.00000
     91       4.0809      2.00000
     92       4.1270      2.00000
     93       4.3268      2.00000
     94       4.3617      2.00000
     95       4.3617      2.00000
     96       4.4210      2.00000
     97       4.4210      2.00000
     98       4.5764      2.00000
     99       4.5764      2.00000
    100       4.6490      2.00000
    101       4.7080      2.00000
    102       4.8219      2.00000
    103       4.8219      2.00000
    104       5.3334      1.82362
    105       5.3334      1.82362
    106       5.7858      0.00000
    107       6.2446      0.00000
    108       6.2446      0.00000
    109       6.6498      0.00000
    110       6.6592      0.00000
    111       6.6592      0.00000
    112       6.9049      0.00000
    113       6.9049      0.00000
    114       6.9470      0.00000
    115       7.0273      0.00000
    116       7.0273      0.00000
    117       7.0371      0.00000
    118       7.3575      0.00000
    119       7.5743      0.00000
    120       7.5814      0.00000
    121       7.5814      0.00000
    122       7.7073      0.00000
    123       7.7399      0.00000
    124       7.7399      0.00000
    125       7.7891      0.00000
    126       7.7908      0.00000
    127       7.8049      0.00000
    128       7.8049      0.00000
    129       7.8870      0.00000
    130       7.8870      0.00000
    131       7.9161      0.00000
    132       7.9503      0.00000
    133       7.9503      0.00000
    134       7.9530      0.00000
    135       8.0667      0.00000
    136       8.0667      0.00000
    137       8.3209      0.00000
    138       8.4764      0.00000
    139       8.4764      0.00000
    140       8.5102      0.00000
    141       8.6273      0.00000
    142       8.6273      0.00000
    143       8.9674      0.00000
    144       8.9675      0.00000

 k-point     3 :       0.5000    0.0000    0.0000
  band No.  band energies     occupation 
      1      -5.9424      2.00000
      2      -5.8714      2.00000
      3      -5.0198      2.00000
      4      -5.0198      2.00000
      5      -4.9951      2.00000
      6      -4.9951      2.00000
      7      -4.9927      2.00000
      8      -4.7857      2.00000
      9      -4.2128      2.00000
     10      -4.2128      2.00000
     11      -4.1896      2.00000
     12      -4.1896      2.00000
     13      -4.1875      2.00000
     14      -4.0328      2.00000
     15      -3.8025      2.00000
     16      -3.2677      2.00000
     17      -3.2677      2.00000
     18      -3.2202      2.00000
     19      -3.2202      2.00000
     20      -3.2034      2.00000
     21      -3.1006      2.00000
     22      -3.0433      2.00000
     23      -3.0321      2.00000
     24      -3.0321      2.00000
     25      -3.0031      2.00000
     26      -3.0031      2.00000
     27      -2.1703      2.00000
     28      -1.2538      2.00000
     29      -1.2045      2.00000
     30      -1.1859      2.00000
     31      -1.1859      2.00000
     32      -1.1428      2.00000
     33      -1.1428      2.00000
     34      -1.0266      2.00000
     35      -0.9284      2.00000
     36      -0.9284      2.00000
     37      -0.8613      2.00000
     38      -0.8613      2.00000
     39      -0.8228      2.00000
     40      -0.5027      2.00000
     41      -0.3577      2.00000
     42      -0.3577      2.00000
     43      -0.3310      2.00000
     44      -0.2293      2.00000
     45      -0.2293      2.00000
     46       0.6901      2.00000
     47       1.2290      2.00000
     48       1.2291      2.00000
     49       1.2291      2.00000
     50       1.2929      2.00000
     51       1.2929      2.00000
     52       1.6125      2.00000
     53       1.6394      2.00000
     54       1.6768      2.00000
     55       1.6768      2.00000
     56       1.7949      2.00000
     57       1.7949      2.00000
     58       2.0119      2.00000
     59       2.0286      2.00000
     60       2.0286      2.00000
     61       2.0998      2.00000
     62       2.1549      2.00000
     63       2.1549      2.00000
     64       2.4160      2.00000
     65       2.5992      2.00000
     66       2.5992      2.00000
     67       2.6273      2.00000
     68       2.6273      2.00000
     69       2.7388      2.00000
     70       2.8851      2.00000
     71       2.8960      2.00000
     72       2.8960      2.00000
     73       2.9288      2.00000
     74       2.9288      2.00000
     75       3.0290      2.00000
     76       3.0740      2.00000
     77       3.1097      2.00000
     78       3.1097      2.00000
     79       3.1122      2.00000
     80       3.1626      2.00000
     81       3.3212      2.00000
     82       3.3212      2.00000
     83       3.4327      2.00000
     84       3.5483      2.00000
     85       3.6692      2.00000
     86       3.6692      2.00000
     87       3.6864      2.00000
     88       3.6864      2.00000
     89       3.8925      2.00000
     90       3.9041      2.00000
     91       3.9124      2.00000
     92       3.9124      2.00000
     93       4.1089      2.00000
     94       4.1089      2.00000
     95       4.2988      2.00000
     96       4.3426      2.00000
     97       4.3455      2.00000
     98       4.3455      2.00000
     99       4.3509      2.00000
    100       4.4175      2.00000
    101       4.4175      2.00000
    102       4.9246      2.00000
    103       4.9246      2.00000
    104       5.1824      2.00000
    105       5.2164      2.00000
    106       5.2164      2.00000
    107       6.1870      0.00000
    108       6.1870      0.00000
    109       6.7370      0.00000
    110       6.7370      0.00000
    111       6.7404      0.00000
    112       6.8893      0.00000
    113       6.9039      0.00000
    114       6.9039      0.00000
    115       7.2940      0.00000
    116       7.6273      0.00000
    117       7.6273      0.00000
    118       7.6581      0.00000
    119       7.7238      0.00000
    120       7.7238      0.00000
    121       7.7994      0.00000
    122       8.0339      0.00000
    123       8.0653      0.00000
    124       8.1143      0.00000
    125       8.1143      0.00000
    126       8.1232      0.00000
    127       8.2578      0.00000
    128       8.2578      0.00000
    129       8.4081      0.00000
    130       8.4210      0.00000
    131       8.4210      0.00000
    132       8.4599      0.00000
    133       8.4599      0.00000
    134       8.4838      0.00000
    135       8.8930      0.00000
    136       8.8930      0.00000
    137       8.9435      0.00000
    138       8.9435      0.00000
    139       8.9461      0.00000
    140       9.0048      0.00000
    141       9.0418      0.00000
    142       9.0418      0.00000
    143       9.0780      0.00000
    144       9.0785      0.00000

 k-point     4 :       0.2500    0.2500    0.0000
  band No.  band energies     occupation 
      1      -6.1440      2.00000
      2      -5.2758      2.00000
      3      -5.2487      2.00000
      4      -5.2487      2.00000
      5      -5.2080      2.00000
      6      -5.0479      2.00000
      7      -4.4513      2.00000
      8      -4.4304      2.00000
      9      -4.4304      2.00000
     10      -4.3495      2.00000
     11      -4.3266      2.00000
     12      -4.2807      2.00000
     13      -4.2807      2.00000
     14      -4.0135      2.00000
     15      -3.5941      2.00000
     16      -3.5552      2.00000
     17      -3.5552      2.00000
     18      -3.4789      2.00000
     19      -3.3180      2.00000
     20      -3.2625      2.00000
     21      -3.2625      2.00000
     22      -3.2498      2.00000
     23      -2.8648      2.00000
     24      -2.5310      2.00000
     25      -2.4908      2.00000
     26      -2.4908      2.00000
     27      -2.0768      2.00000
     28      -1.6132      2.00000
     29      -1.5666      2.00000
     30      -1.5666      2.00000
     31      -1.3794      2.00000
     32      -1.1117      2.00000
     33      -1.1117      2.00000
     34      -1.0896      2.00000
     35      -0.9240      2.00000
     36      -0.7199      2.00000
     37      -0.5738      2.00000
     38      -0.5394      2.00000
     39      -0.5394      2.00000
     40      -0.4546      2.00000
     41      -0.4035      2.00000
     42      -0.3561      2.00000
     43      -0.3561      2.00000
     44       0.1622      2.00000
     45       0.4602      2.00000
     46       0.5273      2.00000
     47       0.5273      2.00000
     48       1.0796      2.00000
     49       1.2534      2.00000
     50       1.2838      2.00000
     51       1.2838      2.00000
     52       1.4117      2.00000
     53       1.4648      2.00000
     54       1.4682      2.00000
     55       1.4682      2.00000
     56       1.5192      2.00000
     57       1.6033      2.00000
     58       1.6100      2.00000
     59       1.6100      2.00000
     60       1.7681      2.00000
     61       1.7903      2.00000
     62       1.8698      2.00000
     63       1.8698      2.00000
     64       2.0478      2.00000
     65       2.8164      2.00000
     66       2.8324      2.00000
     67       2.8447      2.00000
     68       2.8447      2.00000
     69       2.8737      2.00000
     70       2.8894      2.00000
     71       2.8894      2.00000
     72       3.0151      2.00000
     73       3.0339      2.00000
     74       3.0339      2.00000
     75       3.2418      2.00000
     76       3.2438      2.00000
     77       3.3012      2.00000
     78       3.3012      2.00000
     79       3.5833      2.00000
     80       3.5861      2.00000
     81       3.5861      2.00000
     82       3.6043      2.00000
     83       3.6161      2.00000
     84       3.6274      2.00000
     85       3.7264      2.00000
     86       3.7264      2.00000
     87       3.8862      2.00000
     88       3.8862      2.00000
     89       3.9036      2.00000
     90       3.9700      2.00000
     91       4.0161      2.00000
     92       4.0161      2.00000
     93       4.0590      2.00000
     94       4.0839      2.00000
     95       4.1209      2.00000
     96       4.1209      2.00000
     97       4.2353      2.00000
     98       4.2389      2.00000
     99       4.6410      2.00000
    100       4.6410      2.00000
    101       4.7791      2.00000
    102       4.9532      2.00000
    103       4.9655      2.00000
    104       5.1645      2.00000
    105       5.1645      2.00000
    106       5.7913      0.00000
    107       6.1592      0.00000
    108       6.1592      0.00000
    109       6.3678      0.00000
    110       6.8130      0.00000
    111       6.9431      0.00000
    112       7.0736      0.00000
    113       7.1272      0.00000
    114       7.1606      0.00000
    115       7.1606      0.00000
    116       7.3623      0.00000
    117       7.3623      0.00000
    118       7.4743      0.00000
    119       7.4779      0.00000
    120       7.4914      0.00000
    121       7.5163      0.00000
    122       7.5163      0.00000
    123       7.5248      0.00000
    124       7.8359      0.00000
    125       7.8359      0.00000
    126       7.8542      0.00000
    127       7.9167      0.00000
    128       8.0549      0.00000
    129       8.1049      0.00000
    130       8.1049      0.00000
    131       8.1596      0.00000
    132       8.1596      0.00000
    133       8.1753      0.00000
    134       8.1833      0.00000
    135       8.2164      0.00000
    136       8.2772      0.00000
    137       8.2805      0.00000
    138       8.3338      0.00000
    139       8.3338      0.00000
    140       8.8112      0.00000
    141       8.8692      0.00000
    142       8.8692      0.00000
    143       8.9838      0.00000
    144       8.9926      0.00000

 k-point     5 :       0.5000    0.2500    0.0000
  band No.  band energies     occupation 
      1      -5.9416      2.00000
      2      -5.7035      2.00000
      3      -5.4577      2.00000
      4      -5.2685      2.00000
      5      -5.1816      2.00000
      6      -4.7836      2.00000
      7      -4.5843      2.00000
      8      -4.5132      2.00000
      9      -4.3642      2.00000
     10      -4.1844      2.00000
     11      -4.1369      2.00000
     12      -4.0730      2.00000
     13      -4.0015      2.00000
     14      -3.8618      2.00000
     15      -3.7013      2.00000
     16      -3.6901      2.00000
     17      -3.6226      2.00000
     18      -3.5380      2.00000
     19      -3.4591      2.00000
     20      -3.4139      2.00000
     21      -3.3894      2.00000
     22      -2.9946      2.00000
     23      -2.7311      2.00000
     24      -2.6672      2.00000
     25      -2.6019      2.00000
     26      -2.5484      2.00000
     27      -2.1048      2.00000
     28      -1.5148      2.00000
     29      -1.5072      2.00000
     30      -1.4600      2.00000
     31      -1.4519      2.00000
     32      -1.2523      2.00000
     33      -1.1198      2.00000
     34      -1.0387      2.00000
     35      -1.0374      2.00000
     36      -0.9268      2.00000
     37      -0.7629      2.00000
     38      -0.6960      2.00000
     39      -0.6603      2.00000
     40      -0.6395      2.00000
     41      -0.4512      2.00000
     42      -0.3535      2.00000
     43      -0.1065      2.00000
     44       0.0352      2.00000
     45       0.0456      2.00000
     46       0.5021      2.00000
     47       0.7289      2.00000
     48       0.8261      2.00000
     49       1.4128      2.00000
     50       1.6024      2.00000
     51       1.6490      2.00000
     52       1.7152      2.00000
     53       1.7783      2.00000
     54       1.8151      2.00000
     55       1.9441      2.00000
     56       1.9474      2.00000
     57       2.0433      2.00000
     58       2.1489      2.00000
     59       2.1505      2.00000
     60       2.2093      2.00000
     61       2.2191      2.00000
     62       2.2772      2.00000
     63       2.3066      2.00000
     64       2.3922      2.00000
     65       2.3959      2.00000
     66       2.4374      2.00000
     67       2.5200      2.00000
     68       2.6604      2.00000
     69       2.7004      2.00000
     70       2.7127      2.00000
     71       2.7632      2.00000
     72       2.7975      2.00000
     73       2.7979      2.00000
     74       2.8962      2.00000
     75       2.9352      2.00000
     76       3.0272      2.00000
     77       3.0306      2.00000
     78       3.0601      2.00000
     79       3.1465      2.00000
     80       3.1628      2.00000
     81       3.1814      2.00000
     82       3.3769      2.00000
     83       3.4693      2.00000
     84       3.5037      2.00000
     85       3.5427      2.00000
     86       3.5804      2.00000
     87       3.6280      2.00000
     88       3.6975      2.00000
     89       3.7616      2.00000
     90       3.8952      2.00000
     91       3.8979      2.00000
     92       3.9957      2.00000
     93       4.0102      2.00000
     94       4.0322      2.00000
     95       4.0782      2.00000
     96       4.1088      2.00000
     97       4.2124      2.00000
     98       4.2272      2.00000
     99       4.2930      2.00000
    100       4.5413      2.00000
    101       4.5650      2.00000
    102       4.6657      2.00000
    103       4.8096      2.00000
    104       4.8927      2.00000
    105       5.1578      2.00000
    106       5.3159      1.93539
    107       5.9866      0.00000
    108       6.1377      0.00000
    109       6.5343      0.00000
    110       7.0795      0.00000
    111       7.2344      0.00000
    112       7.2412      0.00000
    113       7.2516      0.00000
    114       7.4416      0.00000
    115       7.4689      0.00000
    116       7.5054      0.00000
    117       7.7166      0.00000
    118       7.7770      0.00000
    119       7.8532      0.00000
    120       7.8765      0.00000
    121       7.9381      0.00000
    122       8.0366      0.00000
    123       8.0997      0.00000
    124       8.1625      0.00000
    125       8.2767      0.00000
    126       8.3048      0.00000
    127       8.3133      0.00000
    128       8.3755      0.00000
    129       8.3958      0.00000
    130       8.4295      0.00000
    131       8.5133      0.00000
    132       8.6232      0.00000
    133       8.6739      0.00000
    134       8.6847      0.00000
    135       8.6942      0.00000
    136       8.7300      0.00000
    137       8.7792      0.00000
    138       8.8481      0.00000
    139       8.8700      0.00000
    140       8.9253      0.00000
    141       8.9258      0.00000
    142       8.9555      0.00000
    143       9.0024      0.00000
    144       9.0103      0.00000

 k-point     6 :      -0.2500    0.2500    0.0000
  band No.  band energies     occupation 
      1      -6.0274      2.00000
      2      -5.5992      2.00000
      3      -5.5079      2.00000
      4      -5.1139      2.00000
      5      -5.0425      2.00000
      6      -4.7288      2.00000
      7      -4.6779      2.00000
      8      -4.6581      2.00000
      9      -4.5601      2.00000
     10      -4.2302      2.00000
     11      -4.1920      2.00000
     12      -4.1663      2.00000
     13      -4.0634      2.00000
     14      -3.9206      2.00000
     15      -3.6119      2.00000
     16      -3.5840      2.00000
     17      -3.5708      2.00000
     18      -3.4305      2.00000
     19      -3.2995      2.00000
     20      -3.2096      2.00000
     21      -3.1368      2.00000
     22      -3.0866      2.00000
     23      -3.0736      2.00000
     24      -2.8772      2.00000
     25      -2.7778      2.00000
     26      -2.4441      2.00000
     27      -2.1002      2.00000
     28      -1.7785      2.00000
     29      -1.2649      2.00000
     30      -1.1890      2.00000
     31      -1.1047      2.00000
     32      -1.0687      2.00000
     33      -1.0599      2.00000
     34      -1.0272      2.00000
     35      -0.9572      2.00000
     36      -0.9068      2.00000
     37      -0.8895      2.00000
     38      -0.8694      2.00000
     39      -0.8627      2.00000
     40      -0.7766      2.00000
     41      -0.7557      2.00000
     42      -0.1425      2.00000
     43       0.1856      2.00000
     44       0.2692      2.00000
     45       0.3209      2.00000
     46       0.3848      2.00000
     47       0.4534      2.00000
     48       0.4975      2.00000
     49       1.3597      2.00000
     50       1.4975      2.00000
     51       1.5142      2.00000
     52       1.7175      2.00000
     53       1.7226      2.00000
     54       1.7394      2.00000
     55       1.7643      2.00000
     56       1.8574      2.00000
     57       1.8794      2.00000
     58       1.9298      2.00000
     59       2.0385      2.00000
     60       2.0804      2.00000
     61       2.1351      2.00000
     62       2.1366      2.00000
     63       2.1706      2.00000
     64       2.2724      2.00000
     65       2.5353      2.00000
     66       2.5748      2.00000
     67       2.5995      2.00000
     68       2.6486      2.00000
     69       2.6588      2.00000
     70       2.7272      2.00000
     71       2.7730      2.00000
     72       2.8197      2.00000
     73       3.0095      2.00000
     74       3.0382      2.00000
     75       3.0515      2.00000
     76       3.1183      2.00000
     77       3.1378      2.00000
     78       3.2051      2.00000
     79       3.2380      2.00000
     80       3.2465      2.00000
     81       3.3502      2.00000
     82       3.3738      2.00000
     83       3.4005      2.00000
     84       3.5740      2.00000
     85       3.5779      2.00000
     86       3.6168      2.00000
     87       3.6792      2.00000
     88       3.7238      2.00000
     89       3.8060      2.00000
     90       3.8105      2.00000
     91       3.9436      2.00000
     92       4.0086      2.00000
     93       4.0274      2.00000
     94       4.2860      2.00000
     95       4.3232      2.00000
     96       4.3419      2.00000
     97       4.3685      2.00000
     98       4.3929      2.00000
     99       4.4075      2.00000
    100       4.5064      2.00000
    101       4.5531      2.00000
    102       4.5741      2.00000
    103       4.6322      2.00000
    104       4.7860      2.00000
    105       5.2996      1.97900
    106       5.4702      0.01186
    107       5.9505      0.00000
    108       6.2340      0.00000
    109       6.6765      0.00000
    110       6.9763      0.00000
    111       6.9956      0.00000
    112       7.1146      0.00000
    113       7.2462      0.00000
    114       7.4165      0.00000
    115       7.4190      0.00000
    116       7.4917      0.00000
    117       7.5222      0.00000
    118       7.6121      0.00000
    119       7.6349      0.00000
    120       7.6370      0.00000
    121       7.6704      0.00000
    122       7.8091      0.00000
    123       7.8607      0.00000
    124       8.1148      0.00000
    125       8.1290      0.00000
    126       8.2706      0.00000
    127       8.2852      0.00000
    128       8.2964      0.00000
    129       8.3142      0.00000
    130       8.3302      0.00000
    131       8.3364      0.00000
    132       8.3774      0.00000
    133       8.3812      0.00000
    134       8.4144      0.00000
    135       8.5758      0.00000
    136       8.6586      0.00000
    137       8.7121      0.00000
    138       8.8784      0.00000
    139       8.9051      0.00000
    140       8.9286      0.00000
    141       8.9642      0.00000
    142       8.9866      0.00000
    143       8.9947      0.00000
    144       9.0567      0.00000

 k-point     7 :       0.5000    0.5000    0.0000
  band No.  band energies     occupation 
      1      -5.8329      2.00000
      2      -5.7417      2.00000
      3      -5.3737      2.00000
      4      -5.3563      2.00000
      5      -5.3563      2.00000
      6      -5.1540      2.00000
      7      -4.0840      2.00000
      8      -4.0252      2.00000
      9      -4.0252      2.00000
     10      -3.9918      2.00000
     11      -3.9845      2.00000
     12      -3.9712      2.00000
     13      -3.9712      2.00000
     14      -3.9585      2.00000
     15      -3.8408      2.00000
     16      -3.8293      2.00000
     17      -3.8293      2.00000
     18      -3.8101      2.00000
     19      -3.8021      2.00000
     20      -3.8021      2.00000
     21      -3.7580      2.00000
     22      -3.0042      2.00000
     23      -2.1500      2.00000
     24      -2.1496      2.00000
     25      -2.0604      2.00000
     26      -2.0581      2.00000
     27      -2.0581      2.00000
     28      -2.0565      2.00000
     29      -1.9947      2.00000
     30      -1.9709      2.00000
     31      -1.9709      2.00000
     32      -1.3815      2.00000
     33      -0.9569      2.00000
     34      -0.9480      2.00000
     35      -0.9480      2.00000
     36      -0.9234      2.00000
     37      -0.8499      2.00000
     38      -0.8499      2.00000
     39      -0.8478      2.00000
     40      -0.4746      2.00000
     41      -0.0198      2.00000
     42      -0.0047      2.00000
     43      -0.0047      2.00000
     44       0.0195      2.00000
     45       0.0466      2.00000
     46       0.1431      2.00000
     47       0.1431      2.00000
     48       1.3683      2.00000
     49       1.9270      2.00000
     50       1.9487      2.00000
     51       1.9487      2.00000
     52       2.0015      2.00000
     53       2.0017      2.00000
     54       2.0144      2.00000
     55       2.0144      2.00000
     56       2.0242      2.00000
     57       2.0645      2.00000
     58       2.0705      2.00000
     59       2.0705      2.00000
     60       2.0902      2.00000
     61       2.1002      2.00000
     62       2.1002      2.00000
     63       2.1036      2.00000
     64       2.1058      2.00000
     65       2.3216      2.00000
     66       2.3216      2.00000
     67       2.3303      2.00000
     68       2.5756      2.00000
     69       2.8227      2.00000
     70       2.8227      2.00000
     71       2.8786      2.00000
     72       2.8786      2.00000
     73       2.8805      2.00000
     74       2.8806      2.00000
     75       2.9996      2.00000
     76       2.9996      2.00000
     77       3.0281      2.00000
     78       3.1516      2.00000
     79       3.2937      2.00000
     80       3.2937      2.00000
     81       3.3015      2.00000
     82       3.3566      2.00000
     83       3.3566      2.00000
     84       3.3628      2.00000
     85       3.3643      2.00000
     86       3.3785      2.00000
     87       3.4649      2.00000
     88       3.4987      2.00000
     89       3.4987      2.00000
     90       3.5589      2.00000
     91       3.8374      2.00000
     92       3.8393      2.00000
     93       3.8889      2.00000
     94       3.8889      2.00000
     95       3.8917      2.00000
     96       3.9078      2.00000
     97       4.2312      2.00000
     98       4.2312      2.00000
     99       4.4688      2.00000
    100       4.4688      2.00000
    101       4.5949      2.00000
    102       4.8284      2.00000
    103       4.8284      2.00000
    104       4.9888      2.00000
    105       5.0693      2.00000
    106       5.0865      2.00000
    107       6.0743      0.00000
    108       6.0743      0.00000
    109       6.4481      0.00000
    110       6.4779      0.00000
    111       7.3781      0.00000
    112       7.4527      0.00000
    113       7.6932      0.00000
    114       7.6932      0.00000
    115       7.7187      0.00000
    116       7.7255      0.00000
    117       7.7255      0.00000
    118       7.7268      0.00000
    119       8.0439      0.00000
    120       8.0748      0.00000
    121       8.4141      0.00000
    122       8.4309      0.00000
    123       8.4545      0.00000
    124       8.4566      0.00000
    125       8.4566      0.00000
    126       8.4660      0.00000
    127       8.4660      0.00000
    128       8.4662      0.00000
    129       8.5125      0.00000
    130       8.5875      0.00000
    131       8.6008      0.00000
    132       8.6008      0.00000
    133       8.6104      0.00000
    134       8.6291      0.00000
    135       8.6709      0.00000
    136       8.6709      0.00000
    137       8.6992      0.00000
    138       8.6992      0.00000
    139       9.0235      0.00000
    140       9.0781      0.00000
    141       9.2128      0.00000
    142       9.2191      0.00000
    143       9.3082      0.00000
    144       9.3093      0.00000

 k-point     8 :      -0.2500    0.5000    0.2500
  band No.  band energies     occupation 
      1      -5.7395      2.00000
      2      -5.6886      2.00000
      3      -5.6841      2.00000
      4      -5.5487      2.00000
      5      -4.7986      2.00000
      6      -4.7974      2.00000
      7      -4.7663      2.00000
      8      -4.6221      2.00000
      9      -3.9829      2.00000
     10      -3.9773      2.00000
     11      -3.9711      2.00000
     12      -3.9623      2.00000
     13      -3.9388      2.00000
     14      -3.9207      2.00000
     15      -3.9092      2.00000
     16      -3.8284      2.00000
     17      -3.7557      2.00000
     18      -3.7280      2.00000
     19      -3.7016      2.00000
     20      -3.3512      2.00000
     21      -3.0970      2.00000
     22      -3.0836      2.00000
     23      -3.0159      2.00000
     24      -2.6718      2.00000
     25      -2.1353      2.00000
     26      -2.1273      2.00000
     27      -2.0574      2.00000
     28      -2.0567      2.00000
     29      -1.9512      2.00000
     30      -1.6210      2.00000
     31      -1.1573      2.00000
     32      -1.1555      2.00000
     33      -1.1330      2.00000
     34      -1.1285      2.00000
     35      -0.9890      2.00000
     36      -0.9787      2.00000
     37      -0.9124      2.00000
     38      -0.6833      2.00000
     39      -0.3847      2.00000
     40      -0.3710      2.00000
     41      -0.3666      2.00000
     42      -0.3559      2.00000
     43      -0.3275      2.00000
     44      -0.2466      2.00000
     45      -0.2345      2.00000
     46       0.6127      2.00000
     47       0.9524      2.00000
     48       1.0343      2.00000
     49       1.0440      2.00000
     50       1.8082      2.00000
     51       1.8444      2.00000
     52       1.8455      2.00000
     53       1.9055      2.00000
     54       1.9077      2.00000
     55       1.9971      2.00000
     56       2.0475      2.00000
     57       2.4130      2.00000
     58       2.4285      2.00000
     59       2.4384      2.00000
     60       2.4393      2.00000
     61       2.4564      2.00000
     62       2.4564      2.00000
     63       2.4771      2.00000
     64       2.4802      2.00000
     65       2.4912      2.00000
     66       2.4952      2.00000
     67       2.5166      2.00000
     68       2.5192      2.00000
     69       2.5505      2.00000
     70       2.5592      2.00000
     71       2.5597      2.00000
     72       2.5714      2.00000
     73       2.6311      2.00000
     74       2.6792      2.00000
     75       2.8058      2.00000
     76       2.8225      2.00000
     77       2.9476      2.00000
     78       3.0129      2.00000
     79       3.0243      2.00000
     80       3.0297      2.00000
     81       3.1097      2.00000
     82       3.1456      2.00000
     83       3.3535      2.00000
     84       3.5004      2.00000
     85       3.5170      2.00000
     86       3.5233      2.00000
     87       3.5329      2.00000
     88       3.5376      2.00000
     89       3.7006      2.00000
     90       3.7468      2.00000
     91       3.8923      2.00000
     92       3.9525      2.00000
     93       4.0065      2.00000
     94       4.0096      2.00000
     95       4.0112      2.00000
     96       4.0174      2.00000
     97       4.2559      2.00000
     98       4.2629      2.00000
     99       4.2922      2.00000
    100       4.3065      2.00000
    101       4.5485      2.00000
    102       4.6910      2.00000
    103       4.7587      2.00000
    104       4.8031      2.00000
    105       5.0471      2.00000
    106       5.2073      2.00000
    107       5.9729      0.00000
    108       5.9911      0.00000
    109       7.0496      0.00000
    110       7.0599      0.00000
    111       7.0856      0.00000
    112       7.0913      0.00000
    113       7.8974      0.00000
    114       7.9024      0.00000
    115       7.9033      0.00000
    116       7.9099      0.00000
    117       7.9550      0.00000
    118       7.9674      0.00000
    119       7.9747      0.00000
    120       7.9783      0.00000
    121       8.0621      0.00000
    122       8.1135      0.00000
    123       8.1231      0.00000
    124       8.1511      0.00000
    125       8.2598      0.00000
    126       8.3232      0.00000
    127       8.3428      0.00000
    128       8.4005      0.00000
    129       8.4211      0.00000
    130       8.4529      0.00000
    131       8.4987      0.00000
    132       8.5467      0.00000
    133       8.7521      0.00000
    134       8.7732      0.00000
    135       8.7885      0.00000
    136       8.7967      0.00000
    137       8.7999      0.00000
    138       8.8134      0.00000
    139       8.8510      0.00000
    140       8.8878      0.00000
    141       8.9055      0.00000
    142       8.9664      0.00000
    143       8.9695      0.00000
    144       9.0619      0.00000


--------------------------------------------------------------------------------------------------------


 soft charge-density along one line, spin component           1
         0         1         2         3         4         5         6         7         8         9
 total charge-density along one line
 
 pseudopotential strength for first ion, spin component:           1
 18.443  25.732   0.001   0.001   0.001   0.001   0.002   0.002
[...]
   43        0.759   0.909   0.000   1.667
   44        0.759   0.907   0.000   1.666
   45        0.751   0.941   0.000   1.691
   46        0.751   0.941   0.000   1.692
   47        0.750   0.939   0.000   1.689
   48        0.751   0.940   0.000   1.691
   49        0.759   0.918   0.000   1.677
   50        0.759   0.920   0.000   1.679
   51        0.751   0.939   0.000   1.689
   52        0.759   0.909   0.000   1.668
   53        0.751   0.939   0.000   1.689
--------------------------------------------------
tot         40.035  49.052   0.000  89.087
 
    CHARGE:  cpu time    0.1586: real time    0.1597
    FORLOC:  cpu time    0.0312: real time    0.0313
    FORNL :  cpu time    1.5149: real time    1.5275
    STRESS:  cpu time    5.4378: real time    5.4848
    FORCOR:  cpu time    0.1049: real time    0.1055
    FORHAR:  cpu time    0.0447: real time    0.0452
    MIXING:  cpu time    0.0036: real time    0.0036
    OFIELD:  cpu time    0.0001: real time    0.0001

  FORCE on cell =-STRESS in cart. coord.  units (eV):
  Direction    XX          YY          ZZ          XY          YZ          ZX
  --------------------------------------------------------------------------------------
  Alpha Z    87.47481    87.47481    87.47481
  Ewald   -1992.53214 -1992.53215 -1992.53215    -0.00000     0.00000     0.00000
  Hartree   144.11718   144.11718   144.11718    -0.00000    -0.00000    -0.00000
  E(xc)    -666.61580  -666.61580  -666.61582    -0.00001    -0.00001    -0.00002
  Local    -806.35233  -806.35242  -806.35193     0.00014     0.00024     0.00034
  n-local  2044.51489  2057.64458  2069.90059    -2.08499    -0.75334     0.53272
  augment  -309.80629  -309.80619  -309.80670    -0.00014    -0.00025    -0.00035
  Kinetic  1468.66920  1485.78532  1502.81470    -1.63053    -0.87515     0.61883
  Fock        0.00000     0.00000     0.00000     0.00000     0.00000     0.00000
  -------------------------------------------------------------------------------------
  Total      -0.60482    -0.60482    -0.60482     0.00000    -0.00000    -0.00000
  in kB      -0.89642    -0.89642    -0.89642     0.00000    -0.00000    -0.00000
  external pressure =       -0.90 kB  Pullay stress =        0.00 kB


 VOLUME and BASIS-vectors are now :
 -----------------------------------------------------------------------------
  energy-cutoff  :      550.00
  volume of cell :     1080.99
      direct lattice vectors                 reciprocal lattice vectors
     9.976465530  0.000000000  5.759915070     0.100235900 -0.035438742  0.000000000
     3.325488510  9.405901920  5.759915070     0.000000000  0.106316227  0.000000000
     0.000000000  0.000000000 11.519830140    -0.050117950 -0.035438742  0.086806836

  length of vectors
    11.519830124 11.519830136 11.519830140     0.106316227  0.106316227  0.106316227


 FORCES acting on ions
    electron-ion (+dipol)            ewald-force                    non-local-force                 convergence-correction
 -----------------------------------------------------------------------------------------------
   -.130E+01 -.921E+00 0.103E+02   0.110E+01 0.777E+00 -.105E+02   0.210E+00 0.148E+00 0.125E+00   -.174E-02 -.123E-02 -.701E-03
   -.130E+01 -.921E+00 -.103E+02   0.110E+01 0.777E+00 0.105E+02   0.210E+00 0.148E+00 -.125E+00   -.174E-02 -.123E-02 0.701E-03
   0.233E+01 0.937E+01 0.404E+01   -.247E+01 -.933E+01 -.429E+01   0.141E+00 -.460E-01 0.244E+00   -.107E-02 0.659E-03 -.186E-02
   -.358E+00 0.127E+00 0.201E-05   0.370E+00 -.131E+00 0.125E-11   -.449E-02 0.159E-02 0.347E-17   -.150E-02 0.531E-03 -.626E-07
   0.233E+01 0.937E+01 -.404E+01   -.247E+01 -.933E+01 0.429E+01   0.141E+00 -.460E-01 -.244E+00   -.107E-02 0.659E-03 0.186E-02
   -.364E+01 -.752E+01 -.630E+01   0.357E+01 0.777E+01 0.619E+01   0.687E-01 -.250E+00 0.119E+00   -.668E-03 0.180E-02 -.116E-02
   -.364E+01 -.752E+01 0.630E+01   0.357E+01 0.777E+01 -.619E+01   0.687E-01 -.250E+00 -.119E+00   -.668E-03 0.180E-02 0.116E-02
   0.231E+00 -.817E-01 0.744E-06   -.289E+00 0.102E+00 -.324E-11   0.616E-01 -.218E-01 -.243E-16   -.149E-02 0.526E-03 0.579E-08
   0.961E+01 -.921E+00 0.404E+01   -.962E+01 0.777E+00 -.429E+01   0.360E-02 0.148E+00 0.244E+00   0.264E-03 -.123E-02 -.186E-02
   0.107E-05 -.380E+00 0.201E-05   0.136E-06 0.392E+00 0.122E-11   0.113E-16 -.476E-02 0.382E-16   -.361E-07 -.159E-02 -.626E-07
   0.961E+01 -.921E+00 -.404E+01   -.962E+01 0.777E+00 0.429E+01   0.360E-02 0.148E+00 -.244E+00   0.264E-03 -.123E-02 0.186E-02
   0.179E+00 0.127E+00 -.310E+00   -.185E+00 -.131E+00 0.320E+00   0.224E-02 0.159E-02 -.389E-02   0.750E-03 0.531E-03 -.130E-02
   0.179E+00 0.127E+00 0.310E+00   -.185E+00 -.131E+00 -.320E+00   0.224E-02 0.159E-02 0.389E-02   0.751E-03 0.531E-03 0.130E-02
   0.388E+01 0.274E+01 0.434E-07   -.383E+01 -.271E+01 -.529E-11   -.538E-01 -.381E-01 0.330E-16   0.835E-03 0.590E-03 0.249E-07
   0.728E+01 -.752E+01 -.117E-06   -.714E+01 0.777E+01 -.644E-12   -.137E+00 -.250E+00 0.121E-16   0.134E-02 0.180E-02 -.229E-07
   0.194E+01 -.274E+01 0.336E+01   -.191E+01 0.271E+01 -.331E+01   -.269E-01 0.381E-01 -.466E-01   0.417E-03 -.590E-03 0.723E-03
   0.194E+01 -.274E+01 -.336E+01   -.191E+01 0.271E+01 0.331E+01   -.269E-01 0.381E-01 0.466E-01   0.417E-03 -.590E-03 -.723E-03
   -.831E+01 -.921E+00 -.630E+01   0.852E+01 0.777E+00 0.619E+01   -.213E+00 0.148E+00 0.119E+00   0.148E-02 -.123E-02 -.116E-02
   -.831E+01 -.921E+00 0.630E+01   0.852E+01 0.777E+00 -.619E+01   -.213E+00 0.148E+00 -.119E+00   0.148E-02 -.123E-02 0.116E-02
   0.374E-06 0.245E+00 0.744E-06   0.104E-06 -.307E+00 -.322E-11   -.121E-16 0.653E-01 0.451E-16   0.332E-08 -.158E-02 0.579E-08
   -.467E+01 0.937E+01 -.117E-06   0.495E+01 -.933E+01 -.658E-12   -.282E+00 -.460E-01 -.867E-17   0.215E-02 0.659E-03 -.229E-07
   -.194E+01 0.274E+01 0.336E+01   0.191E+01 -.271E+01 -.331E+01   0.269E-01 -.381E-01 -.466E-01   -.417E-03 0.590E-03 0.723E-03
   -.194E+01 0.274E+01 -.336E+01   0.191E+01 -.271E+01 0.331E+01   0.269E-01 -.381E-01 0.466E-01   -.417E-03 0.590E-03 -.723E-03
   -.116E+00 -.817E-01 0.200E+00   0.145E+00 0.102E+00 -.250E+00   -.308E-01 -.218E-01 0.533E-01   0.743E-03 0.526E-03 -.129E-02
   -.388E+01 -.274E+01 0.146E-05   0.383E+01 0.271E+01 -.595E-11   0.538E-01 0.381E-01 0.590E-16   -.835E-03 -.590E-03 -.232E-08
   -.116E+00 -.817E-01 -.200E+00   0.145E+00 0.102E+00 0.250E+00   -.308E-01 -.218E-01 -.533E-01   0.743E-03 0.526E-03 0.129E-02
   0.667E-06 0.371E-06 0.101E-05   -.133E-06 0.703E-07 0.617E-11   -.347E-17 0.347E-17 0.694E-16   0.208E-09 0.153E-09 0.367E-09
   -.503E+01 -.356E+01 -.300E+01   0.505E+01 0.357E+01 0.297E+01   -.173E-01 -.123E-01 0.308E-01   0.611E-04 0.432E-04 -.142E-02
   -.503E+01 -.356E+01 0.300E+01   0.505E+01 0.357E+01 -.297E+01   -.173E-01 -.123E-01 -.308E-01   0.611E-04 0.432E-04 0.142E-02
   -.338E+01 0.111E+01 -.586E+01   0.338E+01 -.115E+01 0.586E+01   0.234E-03 0.374E-01 0.405E-03   -.378E-03 -.120E-02 -.655E-03
   -.385E+02 0.136E+02 -.166E-05   0.356E+02 -.126E+02 -.757E-12   0.289E+01 -.102E+01 -.416E-16   0.158E-02 -.560E-03 -.391E-07
   -.338E+01 0.111E+01 0.586E+01   0.338E+01 -.115E+01 -.586E+01   0.234E-03 0.374E-01 -.405E-03   -.378E-03 -.120E-02 0.655E-03
   -.165E+01 0.601E+01 -.286E+01   0.167E+01 -.600E+01 0.289E+01   -.176E-01 -.129E-01 -.304E-01   0.439E-03 0.111E-02 0.761E-03
   -.165E+01 0.601E+01 0.286E+01   0.167E+01 -.600E+01 -.289E+01   -.176E-01 -.129E-01 0.304E-01   0.439E-03 0.111E-02 -.761E-03
   -.220E+01 0.778E+00 -.328E-06   0.208E+01 -.736E+00 0.137E-11   0.136E+00 -.481E-01 -.312E-16   -.237E-02 0.838E-03 -.245E-07
   -.775E-01 -.356E+01 -.586E+01   0.435E-01 0.357E+01 0.586E+01   0.354E-01 -.123E-01 0.405E-03   -.126E-02 0.432E-04 -.655E-03
   -.883E-06 -.408E+02 -.166E-05   -.119E-06 0.378E+02 -.778E-12   -.347E-16 0.306E+01 -.139E-16   -.226E-07 0.168E-02 -.391E-07
   -.775E-01 -.356E+01 0.586E+01   0.435E-01 0.357E+01 -.586E+01   0.354E-01 -.123E-01 -.405E-03   -.126E-02 0.433E-04 0.655E-03
   0.192E+02 0.136E+02 -.333E+02   -.178E+02 -.126E+02 0.309E+02   -.144E+01 -.102E+01 0.250E+01   -.792E-03 -.560E-03 0.137E-02
   0.192E+02 0.136E+02 0.333E+02   -.178E+02 -.126E+02 -.309E+02   -.144E+01 -.102E+01 -.250E+01   -.792E-03 -.560E-03 -.137E-02
   0.202E+01 0.143E+01 0.442E-06   -.156E+01 -.110E+01 0.527E-11   -.455E+00 -.321E+00 -.278E-16   -.165E-02 -.116E-02 -.404E-07
   0.330E+01 0.601E+01 0.120E-05   -.334E+01 -.600E+01 -.110E-11   0.351E-01 -.129E-01 -.243E-16   -.878E-03 0.111E-02 0.552E-07
   0.101E+01 -.143E+01 0.175E+01   -.779E+00 0.110E+01 -.135E+01   -.227E+00 0.321E+00 -.394E+00   -.823E-03 0.116E-02 -.143E-02
   0.101E+01 -.143E+01 -.175E+01   -.779E+00 0.110E+01 0.135E+01   -.227E+00 0.321E+00 0.394E+00   -.823E-03 0.116E-02 0.143E-02
   0.511E+01 -.356E+01 -.286E+01   -.510E+01 0.357E+01 0.289E+01   -.180E-01 -.123E-01 -.304E-01   0.120E-02 0.432E-04 0.761E-03
   0.511E+01 -.356E+01 0.286E+01   -.510E+01 0.357E+01 -.289E+01   -.180E-01 -.123E-01 0.304E-01   0.120E-02 0.433E-04 -.761E-03
   -.129E-06 -.233E+01 -.328E-06   -.109E-06 0.221E+01 0.138E-11   -.304E-16 0.144E+00 -.867E-17   -.142E-07 -.251E-02 -.245E-07
   0.676E+01 0.111E+01 0.120E-05   -.677E+01 -.115E+01 -.112E-11   -.468E-03 0.374E-01 -.347E-17   0.756E-03 -.120E-02 0.552E-07
   -.101E+01 0.143E+01 0.175E+01   0.779E+00 -.110E+01 -.135E+01   0.227E+00 -.321E+00 -.394E+00   0.823E-03 -.116E-02 -.143E-02
   -.101E+01 0.143E+01 -.175E+01   0.779E+00 -.110E+01 0.135E+01   0.227E+00 -.321E+00 0.394E+00   0.823E-03 -.116E-02 0.143E-02
   0.110E+01 0.778E+00 -.191E+01   -.104E+01 -.736E+00 0.180E+01   -.680E-01 -.481E-01 0.118E+00   0.118E-02 0.838E-03 -.205E-02
   -.202E+01 -.143E+01 -.436E-06   0.156E+01 0.110E+01 0.239E-11   0.455E+00 0.321E+00 0.156E-16   0.165E-02 0.116E-02 -.322E-07
   0.110E+01 0.778E+00 0.191E+01   -.104E+01 -.736E+00 -.180E+01   -.680E-01 -.481E-01 -.118E+00   0.118E-02 0.838E-03 0.205E-02
 -----------------------------------------------------------------------------------------------
   0.929E-05 0.657E-05 0.161E-04   -.106E-12 0.260E-13 -.133E-14   0.555E-16 0.110E-14 0.860E-15   -.698E-07 -.493E-07 -.121E-06
 
 
 POSITION                                       TOTAL-FORCE (eV/Angst)
 -----------------------------------------------------------------------------------
      3.86528      2.73317     10.53945         0.003103      0.002194     -0.003808
      3.86528      2.73317     14.42019         0.003103      0.002194      0.003808
      4.97512      5.87225      8.61716         0.000453     -0.005303      0.000784
      4.97926      5.88186     12.47982         0.005983     -0.002115      0.000000
      4.97512      5.87225     16.34247         0.000453     -0.005303     -0.000784
      6.09539      9.04086     10.55753         0.002651      0.000914      0.004592
      6.09539      9.04086     14.40210         0.002651      0.000914     -0.004592
      6.09238      9.01553     18.23973         0.002025     -0.000716      0.000000
      7.19479      2.73317      8.61716        -0.004849      0.002194      0.000784
      7.20523      2.73387     12.47982         0.000000      0.006346      0.000000
      7.19479      2.73317     16.34247        -0.004849      0.002194     -0.000784
      8.31821      5.88186     10.55207        -0.002992     -0.002115      0.005182
      8.31821      5.88186     14.40756        -0.002992     -0.002115     -0.005182
      8.31497      5.87957     18.23973        -0.004656     -0.003292      0.000000
      9.42489      9.04086     12.47982        -0.005302      0.000914     -0.000000
      9.42284      9.01311     16.32084        -0.002328      0.003292     -0.004032
      9.42284      9.01311     20.15862        -0.002328      0.003292      0.004032
     10.55560      2.73317     10.55753         0.001746      0.002194      0.004592
     10.55560      2.73317     14.40210         0.001746      0.002194     -0.004592
     10.53071      2.73878     18.23973         0.000000      0.002148      0.000000
     11.66544      5.87225     12.47982        -0.000905     -0.005303      0.000000
     11.63858      5.87957     16.32084         0.002328     -0.003292     -0.004032
     11.63858      5.87957     20.15862         0.002328     -0.003292      0.004032
     12.74988      9.01553     14.39602        -0.001012     -0.000716      0.001753
     12.74646      9.01311     18.23973         0.004656      0.003292      0.000000
     12.74988      9.01553     22.08344        -0.001012     -0.000716     -0.001753
      0.55425      0.39191      0.95999         0.000000      0.000000      0.000000
      0.54713      0.38688      4.79980         0.002488      0.001759      0.001524
      0.54713      0.38688      8.64000         0.002488      0.001759     -0.001524
      1.65915      3.53214      2.87373         0.001684     -0.000515      0.002917
      1.67097      3.52431      6.71990         0.036007     -0.012730     -0.000000
      1.65915      3.53214     10.56607         0.001684     -0.000515     -0.002917
      2.76772      6.66765      4.79383         0.000804     -0.003003      0.001393
      2.76772      6.66765      8.64597         0.000804     -0.003003     -0.001393
      2.76352      6.66524     12.47982         0.016197     -0.005726      0.000000
      3.88318      0.38688      2.87373         0.000075      0.001759      0.002917
      3.87974      0.40064      6.71990        -0.000000      0.038191     -0.000000
      3.88318      0.38688     10.56607         0.000075      0.001759     -0.002917
      4.98412      3.52431      4.80705        -0.018003     -0.012730      0.031183
      4.98412      3.52431      8.63275        -0.018003     -0.012730     -0.031183
      4.99853      3.53449     12.47982         0.002254      0.001594      0.000000
      6.10377      6.66765      6.71990        -0.001608     -0.003003      0.000000
      6.10188      6.65523     10.56876         0.001127     -0.001594      0.001952
      6.10188      6.65523     14.39087         0.001127     -0.001594     -0.001952
      7.20890      0.38688      4.79383        -0.002563      0.001759      0.001393
      7.20890      0.38688      8.64597        -0.002563      0.001759     -0.001393
      7.20523      0.38373     12.47982        -0.000000      0.017179      0.000000
      8.32091      3.53214      6.71990        -0.003368     -0.000515      0.000000
      8.30857      3.53449     10.56876        -0.001127      0.001594      0.001952
      8.30857      3.53449     14.39087        -0.001127      0.001594     -0.001952
      9.42608      6.66524      8.63319        -0.008098     -0.005726      0.014027
      9.41192      6.65523     12.47982        -0.002254     -0.001594      0.000000
      9.42608      6.66524     16.32644        -0.008098     -0.005726     -0.014027
 -----------------------------------------------------------------------------------
    total drift:                                0.000009      0.000007      0.000016


--------------------------------------------------------------------------------------------------------



  FREE ENERGIE OF THE ION-ELECTRON SYSTEM (eV)
  ---------------------------------------------------
  free  energy   TOTEN  =      -289.73916572 eV

  energy  without entropy=     -289.73173944  energy(sigma->0) =     -289.73545258
 
 d Force = 0.1087230E-02[ 0.345E-03, 0.183E-02]  d Energy = 0.1090068E-02-0.284E-05
 d Force = 0.5785339E+00[ 0.571E+00, 0.586E+00]  d Ewald  = 0.5785389E+00-0.491E-05


--------------------------------------------------------------------------------------------------------


    POTLOK:  cpu time    0.0809: real time    0.0849


--------------------------------------------------------------------------------------------------------


 Conjugate gradient step on ions:
 trial-energy change:   -0.001090  1 .order   -0.001087   -0.001830   -0.000345
  (g-gl).g = 0.146E-02      g.g   = 0.148E-02  gl.gl    = 0.570E-02
 g(Force)  = 0.148E-02   g(Stress)= 0.000E+00 ortho     = 0.304E-04
 gamma     =   0.25591
 trial     =   1.22811
 opt step  =   1.51317  (harmonic =   1.51317) maximal distance =0.00478980
 next E    =  -289.739203   (d E  =  -0.00113)


--------------------------------------------------------------------------------------------------------


  
 reached required accuracy - stopping structural energy minimisation
 writing wavefunctions
     LOOP+:  cpu time   28.3565: real time   28.6668
    4ORBIT:  cpu time    0.0000: real time    0.0000
 


 total charge     
 
# of ion       s       p       d       tot
------------------------------------------
    1        0.756   0.908   0.000   1.664
    2        0.756   0.908   0.000   1.664
    3        0.754   0.925   0.000   1.679
    4        0.751   0.941   0.000   1.692
    5        0.754   0.923   0.000   1.676
    6        0.754   0.924   0.000   1.678
    7        0.754   0.922   0.000   1.676
    8        0.750   0.939   0.000   1.689
    9        0.754   0.935   0.000   1.689
   10        0.750   0.942   0.000   1.692
   11        0.754   0.937   0.000   1.691
   12        0.750   0.941   0.000   1.692
   13        0.750   0.941   0.000   1.692
   14        0.750   0.941   0.000   1.691
   15        0.754   0.926   0.000   1.680
   16        0.750   0.941   0.000   1.691
   17        0.750   0.941   0.000   1.691
   18        0.754   0.933   0.000   1.686
   19        0.754   0.935   0.000   1.688
   20        0.750   0.940   0.000   1.690
   21        0.754   0.925   0.000   1.679
   22        0.750   0.941   0.000   1.691
   23        0.750   0.941   0.000   1.691
   24        0.750   0.939   0.000   1.690
   25        0.750   0.941   0.000   1.691
   26        0.750   0.939   0.000   1.690
   27        0.750   0.942   0.000   1.692
   28        0.751   0.941   0.000   1.691
   29        0.751   0.941   0.000   1.691
   30        0.750   0.943   0.000   1.693
   31        0.796   0.872   0.000   1.667
   32        0.750   0.942   0.000   1.693
   33        0.750   0.942   0.000   1.692
   34        0.751   0.942   0.000   1.692
   35        0.750   0.940   0.000   1.690
   36        0.750   0.941   0.000   1.692
   37        0.789   0.813   0.000   1.602
   38        0.750   0.942   0.000   1.692
   39        0.792   0.824   0.000   1.616
   40        0.792   0.824   0.000   1.616
   41        0.760   0.895   0.000   1.655
   42        0.751   0.940   0.000   1.691
   43        0.759   0.909   0.000   1.667
   44        0.759   0.907   0.000   1.666
   45        0.751   0.941   0.000   1.691
   46        0.751   0.941   0.000   1.692
   47        0.750   0.939   0.000   1.689
   48        0.751   0.940   0.000   1.691
   49        0.759   0.918   0.000   1.677
   50        0.759   0.920   0.000   1.679
   51        0.751   0.939   0.000   1.689
   52        0.759   0.909   0.000   1.668
   53        0.751   0.939   0.000   1.689
--------------------------------------------------
tot         40.035  49.052   0.000  89.087
 

 total amount of memory used by VASP MPI-rank0   122888. kBytes
=======================================================================

   base      :      30000. kBytes
   nonl-proj :      43150. kBytes
   fftplans  :       5382. kBytes
   grid      :      19496. kBytes
   one-center:        162. kBytes
   wavefun   :      24698. kBytes
 
  
  
 General timing and accounting informations for this job:
 ========================================================
  
                  Total CPU time used (sec):      199.123
                            User time (sec):      192.964
                          System time (sec):        6.159
                         Elapsed time (sec):      204.135
  
                   Maximum memory used (kb):      401012.
                   Average memory used (kb):           0.
  
                          Minor page faults:        34231
                          Major page faults:            0
                 Voluntary context switches:         4552
