<?xml version="1.0" encoding="ISO-8859-1"?>
<modeling>
 <generator>
  <i name="program" type="string">vasp </i>
  <i name="version" type="string">5.4.4.18Apr17-6-g9f103f2a35  </i>
  <i name="subversion" type="string">(build Jun 19 2019 10:34:07) complex            parallel </i>
  <i name="platform" type="string">LB-5.4 </i>
  <i name="date" type="string">2023 05 15 </i>
  <i name="time" type="string">18:47:19 </i>
 </generator>
 <incar>
  <i type="string" name="SYSTEM"> Si</i>
  <i type="string" name="PREC">normal</i>
  <i type="string" name="ALGO"> Normal</i>
  <i type="int" name="ISPIN">     1</i>
  <i name="AMIX">      0.20000000</i>
  <i type="int" name="NELM">   200</i>
  <i type="int" name="IBRION">     2</i>
  <i name="EDIFF">      0.00001000</i>
  <i name="EDIFFG">     -0.05000000</i>
  <i type="int" name="NSW">   100</i>
  <i type="int" name="ISIF">     2</i>
  <i type="int" name="ISYM">     2</i>
  <i name="ENCUT">    550.00000000</i>
  <i name="NELECT">    213.00000000</i>
  <i type="logical" name="LREAL"> F  </i>
  <i type="int" name="ISMEAR">     0</i>
  <i name="SIGMA">      0.05000000</i>
  <i type="logical" name="LWAVE"> T  </i>
  <i type="logical" name="LCHARG"> T  </i>
  <i type="int" name="LORBIT">    10</i>
  <v type="int" name="KPOINT_BSE">    -1     0     0     0</v>
  <i type="int" name="NELM">   200</i>
 </incar>
 <structure name="primitive_cell" >
  <crystal>
   <varray name="basis" >
    <v>       9.97646553       0.00000000       5.75991507 </v>
    <v>       3.32548851       9.40590192       5.75991507 </v>
    <v>       0.00000000       0.00000000      11.51983014 </v>
   </varray>
   <i name="volume">   1080.99386112 </i>
   <varray name="rec_basis" >
    <v>       0.10023590      -0.03543874       0.00000000 </v>
    <v>       0.00000000       0.10631623       0.00000000 </v>
    <v>      -0.05011795      -0.03543874       0.08680684 </v>
   </varray>
  </crystal>
  <varray name="positions" >
   <v>       0.29166667       0.29166667      -0.37500000 </v>
   <v>       0.04166667       0.37500000      -0.29166667 </v>
   <v>       0.37500000       0.37500000       0.37500000 </v>
   <v>       0.37500000       0.37500000      -0.29166667 </v>
   <v>       0.37500000       0.04166667      -0.29166667 </v>
   <v>      -0.04166667       0.29166667      -0.37500000 </v>
   <v>      -0.04166667       0.29166667      -0.04166667 </v>
   <v>      -0.37500000       0.29166667       0.29166667 </v>
   <v>      -0.37500000       0.29166667      -0.37500000 </v>
   <v>      -0.37500000      -0.04166667      -0.37500000 </v>
   <v>      -0.04166667      -0.37500000      -0.37500000 </v>
   <v>       0.29166667      -0.04166667      -0.37500000 </v>
   <v>       0.29166667      -0.04166667      -0.04166667 </v>
   <v>       0.29166667      -0.37500000       0.29166667 </v>
   <v>       0.29166667      -0.37500000      -0.37500000 </v>
   <v>       0.29166667       0.29166667      -0.04166667 </v>
   <v>      -0.29166667       0.37500000       0.37500000 </v>
   <v>       0.04166667       0.04166667      -0.29166667 </v>
   <v>       0.04166667       0.04166667       0.04166667 </v>
   <v>      -0.29166667       0.04166667       0.37500000 </v>
   <v>      -0.29166667       0.04166667      -0.29166667 </v>
   <v>       0.37500000      -0.29166667       0.37500000 </v>
   <v>       0.04166667       0.37500000       0.37500000 </v>
   <v>       0.04166667       0.37500000       0.04166667 </v>
   <v>       0.04166667      -0.29166667       0.37500000 </v>
   <v>       0.04166667      -0.29166667      -0.29166667 </v>
   <v>       0.37500000       0.04166667       0.37500000 </v>
   <v>       0.37500000       0.04166667       0.04166667 </v>
   <v>      -0.04166667      -0.04166667      -0.04166667 </v>
   <v>      -0.37500000      -0.37500000       0.29166667 </v>
   <v>      -0.37500000      -0.04166667       0.29166667 </v>
   <v>      -0.04166667      -0.37500000       0.29166667 </v>
   <v>      -0.37500000      -0.04166667      -0.04166667 </v>
   <v>      -0.04166667      -0.37500000      -0.04166667 </v>
   <v>      -0.29166667       0.37500000      -0.29166667 </v>
   <v>      -0.29166667       0.37500000       0.04166667 </v>
   <v>      -0.29166667      -0.29166667      -0.29166667 </v>
   <v>       0.37500000      -0.29166667       0.04166667 </v>
   <v>       0.37500000      -0.29166667      -0.29166667 </v>
   <v>       0.37500000       0.37500000       0.04166667 </v>
   <v>      -0.37500000       0.29166667      -0.04166667 </v>
   <v>      -0.04166667       0.29166667       0.29166667 </v>
   <v>      -0.37500000      -0.37500000      -0.37500000 </v>
   <v>      -0.37500000      -0.37500000      -0.04166667 </v>
   <v>      -0.04166667      -0.04166667       0.29166667 </v>
   <v>      -0.04166667      -0.04166667      -0.37500000 </v>
   <v>       0.29166667      -0.37500000      -0.04166667 </v>
   <v>       0.29166667      -0.04166667       0.29166667 </v>
   <v>      -0.29166667       0.04166667       0.04166667 </v>
   <v>       0.04166667       0.04166667       0.37500000 </v>
   <v>      -0.29166667      -0.29166667       0.04166667 </v>
   <v>      -0.29166667      -0.29166667       0.37500000 </v>
   <v>       0.04166667      -0.29166667       0.04166667 </v>
  </varray>
 </structure>
 <varray name="primitive_index" >
  <v type="int" >        1 </v>
  <v type="int" >       32 </v>
  <v type="int" >       40 </v>
  <v type="int" >       41 </v>
  <v type="int" >       38 </v>
  <v type="int" >       19 </v>
  <v type="int" >       20 </v>
  <v type="int" >        9 </v>
  <v type="int" >       10 </v>
  <v type="int" >       16 </v>
  <v type="int" >       22 </v>
  <v type="int" >        7 </v>
  <v type="int" >        8 </v>
  <v type="int" >        3 </v>
  <v type="int" >        4 </v>
  <v type="int" >        2 </v>
  <v type="int" >       49 </v>
  <v type="int" >       29 </v>
  <v type="int" >       27 </v>
  <v type="int" >       46 </v>
  <v type="int" >       47 </v>
  <v type="int" >       43 </v>
  <v type="int" >       31 </v>
  <v type="int" >       30 </v>
  <v type="int" >       34 </v>
  <v type="int" >       35 </v>
  <v type="int" >       37 </v>
  <v type="int" >       36 </v>
  <v type="int" >       26 </v>
  <v type="int" >       12 </v>
  <v type="int" >       15 </v>
  <v type="int" >       21 </v>
  <v type="int" >       17 </v>
  <v type="int" >       23 </v>
  <v type="int" >       50 </v>
  <v type="int" >       48 </v>
  <v type="int" >       53 </v>
  <v type="int" >       42 </v>
  <v type="int" >       44 </v>
  <v type="int" >       39 </v>
  <v type="int" >       11 </v>
  <v type="int" >       18 </v>
  <v type="int" >       13 </v>
  <v type="int" >       14 </v>
  <v type="int" >       24 </v>
  <v type="int" >       25 </v>
  <v type="int" >        5 </v>
  <v type="int" >        6 </v>
  <v type="int" >       45 </v>
  <v type="int" >       28 </v>
  <v type="int" >       51 </v>
  <v type="int" >       52 </v>
  <v type="int" >       33 </v>
 </varray>
 <kpoints>
  <generation param="Gamma">
   <v type="int" name="divisions">       4        4        4 </v>
   <v name="usershift">      0.00000000       0.00000000       0.00000000 </v>
   <v name="genvec1">      0.25000000       0.00000000       0.00000000 </v>
   <v name="genvec2">      0.00000000       0.25000000       0.00000000 </v>
   <v name="genvec3">     -0.00000000      -0.00000000       0.25000000 </v>
   <v name="shift">      0.00000000       0.00000000       0.00000000 </v>
  </generation>
  <varray name="kpointlist" >
   <v>       0.00000000       0.00000000       0.00000000 </v>
   <v>       0.25000000       0.00000000       0.00000000 </v>
   <v>       0.50000000       0.00000000       0.00000000 </v>
   <v>       0.25000000       0.25000000       0.00000000 </v>
   <v>       0.50000000       0.25000000       0.00000000 </v>
   <v>      -0.25000000       0.25000000       0.00000000 </v>
   <v>       0.50000000       0.50000000       0.00000000 </v>
   <v>      -0.25000000       0.50000000       0.25000000 </v>
  </varray>
  <varray name="weights" >
   <v>       0.01562500 </v>
   <v>       0.12500000 </v>
   <v>       0.06250000 </v>
   <v>       0.09375000 </v>
   <v>       0.37500000 </v>
   <v>       0.18750000 </v>
   <v>       0.04687500 </v>
   <v>       0.09375000 </v>
  </varray>
 </kpoints>
 <parameters>
  <separator name="general" >
   <i type="string" name="SYSTEM">Si</i>
   <i type="logical" name="LCOMPAT"> F  </i>
  </separator>
  <separator name="electronic" >
   <i type="string" name="PREC">normal</i>
   <i name="ENMAX">    550.00000000</i>
   <i name="ENAUG">    322.06900000</i>
   <i name="EDIFF">      0.00001000</i>
   <i type="int" name="IALGO">    38</i>
   <i type="int" name="IWAVPR">    11</i>
   <i type="int" name="NBANDS">   144</i>
   <i name="NELECT">    213.00000000</i>
   <i type="int" name="TURBO">     0</i>
   <i type="int" name="IRESTART">     0</i>
   <i type="int" name="NREBOOT">     0</i>
   <i type="int" name="NMIN">     0</i>
   <i name="EREF">      0.00000000</i>
   <separator name="electronic smearing" >
    <i type="int" name="ISMEAR">     0</i>
    <i name="SIGMA">      0.05000000</i>
    <i name="KSPACING">      0.50000000</i>
    <i type="logical" name="KGAMMA"> T  </i>
   </separator>
   <separator name="electronic projectors" >
    <i type="logical" name="LREAL"> F  </i>
    <v name="ROPT">      0.00000000</v>
    <i type="int" name="LMAXPAW">  -100</i>
    <i type="int" name="LMAXMIX">     2</i>
    <i type="logical" name="NLSPLINE"> F  </i>
   </separator>
   <separator name="electronic startup" >
    <i type="int" name="ISTART">     1</i>
    <i type="int" name="ICHARG">     0</i>
    <i type="int" name="INIWAV">     1</i>
   </separator>
   <separator name="electronic spin" >
    <i type="int" name="ISPIN">     1</i>
    <i type="logical" name="LNONCOLLINEAR"> F  </i>
    <v name="MAGMOM">      1.00000000      1.00000000      1.00000000      1.00000000      1.00000000      1.00000000      1.00000000      1.00000000      1.00000000      1.00000000      1.00000000      1.00000000      1.00000000      1.00000000      1.00000000      1.00000000      1.00000000      1.00000000      1.00000000      1.00000000
      1.00000000      1.00000000      1.00000000      1.00000000      1.00000000      1.00000000      1.00000000      1.00000000      1.00000000      1.00000000      1.00000000      1.00000000      1.00000000      1.00000000      1.00000000      1.00000000      1.00000000      1.00000000      1.00000000      1.00000000
      1.00000000      1.00000000      1.00000000      1.00000000      1.00000000      1.00000000      1.00000000      1.00000000      1.00000000      1.00000000      1.00000000      1.00000000      1.00000000</v>
    <i name="NUPDOWN">     -1.00000000</i>
    <i type="logical" name="LSORBIT"> F  </i>
    <v name="SAXIS">      0.00000000      0.00000000      1.00000000</v>
    <i type="logical" name="LSPIRAL"> F  </i>
    <v name="QSPIRAL">      0.00000000      0.00000000      0.00000000</v>
    <i type="logical" name="LZEROZ"> F  </i>
   </separator>
   <separator name="electronic exchange-correlation" >
    <i type="logical" name="LASPH"> F  </i>
    <i type="logical" name="LMETAGGA"> F  </i>
   </separator>
   <separator name="electronic convergence" >
    <i type="int" name="NELM">   200</i>
    <i type="int" name="NELMDL">     0</i>
    <i type="int" name="NELMIN">     2</i>
    <i name="ENINI">    550.00000000</i>
    <separator name="electronic convergence detail" >
     <i type="logical" name="LDIAG"> T  </i>
     <i type="logical" name="LSUBROT"> F  </i>
     <i name="WEIMIN">      0.00100000</i>
     <i name="EBREAK">      0.00000002</i>
     <i name="DEPER">      0.30000000</i>
     <i type="int" name="NRMM">     4</i>
     <i name="TIME">      0.40000000</i>
    </separator>
   </separator>
   <separator name="electronic mixer" >
    <i name="AMIX">      0.20000000</i>
    <i name="BMIX">      1.00000000</i>
    <i name="AMIN">      0.10000000</i>
    <i name="AMIX_MAG">      0.80000000</i>
    <i name="BMIX_MAG">      1.00000000</i>
    <separator name="electronic mixer details" >
     <i type="int" name="IMIX">     4</i>
     <i type="logical" name="MIXFIRST"> F  </i>
     <i type="int" name="MAXMIX">   -45</i>
     <i name="WC">    100.00000000</i>
     <i type="int" name="INIMIX">     1</i>
     <i type="int" name="MIXPRE">     1</i>
     <i type="int" name="MREMOVE">     5</i>
    </separator>
   </separator>
   <separator name="electronic dipolcorrection" >
    <i type="logical" name="LDIPOL"> F  </i>
    <i type="logical" name="LMONO"> F  </i>
    <i type="int" name="IDIPOL">     0</i>
    <i name="EPSILON">      1.00000000</i>
    <v name="DIPOL">   -100.00000000   -100.00000000   -100.00000000</v>
    <i name="EFIELD">      0.00000000</i>
   </separator>
  </separator>
  <separator name="grids" >
   <i type="int" name="NGX">    70</i>
   <i type="int" name="NGY">    70</i>
   <i type="int" name="NGZ">    70</i>
   <i type="int" name="NGXF">   140</i>
   <i type="int" name="NGYF">   140</i>
   <i type="int" name="NGZF">   140</i>
   <i type="logical" name="ADDGRID"> F  </i>
  </separator>
  <separator name="ionic" >
   <i type="int" name="NSW">   100</i>
   <i type="int" name="IBRION">     2</i>
   <i type="int" name="MDALGO">     0</i>
   <i type="int" name="ISIF">     2</i>
   <i name="PSTRESS">      0.00000000</i>
   <i name="EDIFFG">     -0.05000000</i>
   <i type="int" name="NFREE">     1</i>
   <i name="POTIM">      0.50000000</i>
   <i name="SMASS">     -3.00000000</i>
   <i name="SCALEE">      1.00000000</i>
  </separator>
  <separator name="ionic md" >
   <i name="TEBEG">      0.00010000</i>
   <i name="TEEND">      0.00010000</i>
   <i type="int" name="NBLOCK">     1</i>
   <i type="int" name="KBLOCK">   100</i>
   <i type="int" name="NPACO">   256</i>
   <i name="APACO">     16.00000000</i>
  </separator>
  <separator name="symmetry" >
   <i type="int" name="ISYM">     2</i>
   <i name="SYMPREC">      0.00001000</i>
  </separator>
  <separator name="dos" >
   <i type="int" name="LORBIT">    10</i>
   <v name="RWIGS">     -1.00000000</v>
   <i type="int" name="NEDOS">   301</i>
   <i name="EMIN">     10.00000000</i>
   <i name="EMAX">    -10.00000000</i>
   <i name="EFERMI">      0.00000000</i>
  </separator>
  <separator name="writing" >
   <i type="int" name="NWRITE">     2</i>
   <i type="logical" name="LWAVE"> T  </i>
   <i type="logical" name="LDOWNSAMPLE"> F  </i>
   <i type="logical" name="LCHARG"> T  </i>
   <i type="logical" name="LPARD"> F  </i>
   <i type="logical" name="LVTOT"> F  </i>
   <i type="logical" name="LVHAR"> F  </i>
   <i type="logical" name="LELF"> F  </i>
   <i type="logical" name="LOPTICS"> F  </i>
   <v name="STM">      0.00000000      0.00000000      0.00000000      0.00000000      0.00000000      0.00000000      0.00000000</v>
  </separator>
  <separator name="performance" >
   <i type="int" name="NPAR">    24</i>
   <i type="int" name="NSIM">     4</i>
   <i type="int" name="NBLK">    -1</i>
   <i type="logical" name="LPLANE"> T  </i>
   <i type="logical" name="LSCALAPACK"> T  </i>
   <i type="logical" name="LSCAAWARE"> F  </i>
   <i type="logical" name="LSCALU"> F  </i>
   <i type="logical" name="LASYNC"> F  </i>
   <i type="logical" name="LORBITALREAL"> F  </i>
  </separator>
  <separator name="miscellaneous" >
   <i type="int" name="IDIOT">     3</i>
   <i type="int" name="ISPECIAL">     0</i>
   <i type="logical" name="LMUSIC"> F  </i>
   <v name="POMASS">     28.08500000</v>
   <v name="DARWINR">      0.00000000</v>
   <v name="DARWINV">      1.00000000</v>
   <i type="logical" name="LCORR"> T  </i>
  </separator>
  <i type="logical" name="GGA_COMPAT"> T  </i>
  <i type="logical" name="LBERRY"> F  </i>
  <i type="int" name="ICORELEVEL">     0</i>
  <i type="logical" name="LDAU"> F  </i>
  <i type="int" name="I_CONSTRAINED_M">     0</i>
  <separator name="electronic exchange-correlation" >
   <i type="string" name="GGA">--</i>
   <i type="int" name="VOSKOWN">     0</i>
   <i type="logical" name="LHFCALC"> F  </i>
   <i type="string" name="PRECFOCK"></i>
   <i type="logical" name="LSYMGRAD"> F  </i>
   <i type="logical" name="LHFONE"> F  </i>
   <i type="logical" name="LRHFCALC"> F  </i>
   <i type="logical" name="LTHOMAS"> F  </i>
   <i type="logical" name="LMODELHF"> F  </i>
   <i name="ENCUT4O">     -1.00000000</i>
   <i type="int" name="EXXOEP">     0</i>
   <i type="int" name="FOURORBIT">     0</i>
   <i name="AEXX">      0.00000000</i>
   <i name="HFALPHA">      0.00000000</i>
   <i name="MCALPHA">      0.00000000</i>
   <i name="ALDAX">      1.00000000</i>
   <i name="AGGAX">      1.00000000</i>
   <i name="ALDAC">      1.00000000</i>
   <i name="AGGAC">      1.00000000</i>
   <i type="int" name="NKREDX">     1</i>
   <i type="int" name="NKREDY">     1</i>
   <i type="int" name="NKREDZ">     1</i>
   <i type="logical" name="SHIFTRED"> F  </i>
   <i type="logical" name="ODDONLY"> F  </i>
   <i type="logical" name="EVENONLY"> F  </i>
   <i type="int" name="LMAXFOCK">     0</i>
   <i type="int" name="NMAXFOCKAE">     0</i>
   <i type="logical" name="LFOCKAEDFT"> F  </i>
   <i name="HFSCREEN">      0.00000000</i>
   <i name="HFSCREENC">      0.00000000</i>
   <i type="int" name="NBANDSGWLOW">     0</i>
  </separator>
  <separator name="vdW DFT" >
   <i type="logical" name="LUSE_VDW"> F  </i>
   <i name="Zab_VDW">     -0.84910000</i>
   <i name="PARAM1">      0.12340000</i>
   <i name="PARAM2">      1.00000000</i>
   <i name="PARAM3">      0.00000000</i>
  </separator>
  <separator name="model GW" >
   <i type="int" name="MODEL_GW">     0</i>
   <i name="MODEL_EPS0">     12.23766635</i>
   <i name="MODEL_ALPHA">      1.00000000</i>
  </separator>
  <separator name="linear response parameters" >
   <i type="logical" name="LEPSILON"> F  </i>
   <i type="logical" name="LRPA"> F  </i>
   <i type="logical" name="LNABLA"> F  </i>
   <i type="logical" name="LVEL"> F  </i>
   <i type="int" name="KINTER">     0</i>
   <i name="CSHIFT">      0.10000000</i>
   <i name="OMEGAMAX">     -1.00000000</i>
   <i name="DEG_THRESHOLD">      0.00200000</i>
   <i name="RTIME">     -0.10000000</i>
   <i name="WPLASMAI">      0.00000000</i>
   <v name="DFIELD">      0.00000000      0.00000000      0.00000000</v>
   <v name="WPLASMA">      0.00000000      0.00000000      0.00000000      0.00000000      0.00000000      0.00000000      0.00000000      0.00000000      0.00000000</v>
  </separator>
  <separator name="orbital magnetization" >
   <i type="logical" name="NUCIND"> F  </i>
   <v name="MAGPOS">      0.00000000      0.00000000      0.00000000</v>
   <i type="logical" name="LNICSALL"> T  </i>
   <i type="logical" name="ORBITALMAG"> F  </i>
   <i type="logical" name="LMAGBLOCH"> F  </i>
   <i type="logical" name="LCHIMAG"> F  </i>
   <i type="logical" name="LGAUGE"> T  </i>
   <i type="int" name="MAGATOM">     0</i>
   <v name="MAGDIPOL">      0.00000000      0.00000000      0.00000000</v>
   <v name="AVECCONST">      0.00000000      0.00000000      0.00000000</v>
  </separator>
  <separator name="response functions" >
   <i type="logical" name="LADDER"> F  </i>
   <i type="logical" name="LRPAFORCE"> F  </i>
   <i type="logical" name="LFXC"> F  </i>
   <i type="logical" name="LHARTREE"> T  </i>
   <i type="int" name="IBSE">     0</i>
   <v type="int" name="KPOINT">    -1     0     0     0</v>
   <i type="logical" name="LTCTE"> F  </i>
   <i type="logical" name="LTETE"> F  </i>
   <i type="logical" name="LTRIPLET"> F  </i>
   <i type="logical" name="LFXCEPS"> F  </i>
   <i type="logical" name="LFXHEG"> F  </i>
   <i type="int" name="NATURALO">     2</i>
   <i type="logical" name="L2ORDER"> F  </i>
   <i type="logical" name="LMP2LT"> F  </i>
   <i type="logical" name="LUSEW"> F  </i>
   <i name="ENCUTGW">     -2.00000000</i>
   <i name="ENCUTGWSOFT">     -2.00000000</i>
   <i name="ENCUTLF">     -1.00000000</i>
   <i type="int" name="LMAXMP2">    -1</i>
   <i name="SCISSOR">      0.00000000</i>
   <i type="int" name="NOMEGA">     0</i>
   <i type="int" name="NOMEGAR">     0</i>
   <i type="int" name="NBANDSGW">    -1</i>
   <i type="int" name="NBANDSO">    -1</i>
   <i type="int" name="NBANDSV">    -1</i>
   <i type="int" name="NELM">   200</i>
   <i type="int" name="NELMHF">     1</i>
   <i type="int" name="DIM">     3</i>
   <i type="int" name="ANTIRES">     0</i>
   <i name="OMEGAMAX">    -30.00000000</i>
   <i name="OMEGAMIN">    -30.00000000</i>
   <i name="OMEGATL">   -200.00000000</i>
   <i type="int" name="OMEGAGRID">   140</i>
   <i name="CSHIFT">     -0.10000000</i>
   <i type="logical" name="SELFENERGY"> F  </i>
   <i type="logical" name="LSPECTRAL"> F  </i>
   <i type="logical" name="LSPECTRALGW"> F  </i>
   <i type="logical" name="LSINGLES"> F  </i>
   <i type="logical" name="LFERMIGW"> F  </i>
   <i type="logical" name="ODDONLYGW"> F  </i>
   <i type="logical" name="EVENONLYGW"> F  </i>
   <i type="int" name="NKREDLFX">     1</i>
   <i type="int" name="NKREDLFY">     1</i>
   <i type="int" name="NKREDLFZ">     1</i>
   <i type="int" name="MAXMEM">  2800</i>
   <i type="int" name="TELESCOPE">     0</i>
   <i type="int" name="TAUPAR">     1</i>
   <i type="int" name="OMEGAPAR">    -1</i>
   <i name="LAMBDA">      1.00000000</i>
  </separator>
  <separator name="External order field" >
   <i name="OFIELD_KAPPA">      0.00000000</i>
   <v name="OFIELD_K">      0.00000000      0.00000000      0.00000000</v>
   <i name="OFIELD_Q6_NEAR">      0.00000000</i>
   <i name="OFIELD_Q6_FAR">      0.00000000</i>
   <i name="OFIELD_A">      0.00000000</i>
  </separator>
 </parameters>
 <atominfo>
  <atoms>      53 </atoms>
  <types>       1 </types>
  <array name="atoms" >
   <dimension dim="1">ion</dimension>
   <field type="string">element</field>
   <field type="int">atomtype</field>
   <set>
    <rc><c>Si</c><c>   1</c></rc>
    <rc><c>Si</c><c>   1</c></rc>
    <rc><c>Si</c><c>   1</c></rc>
    <rc><c>Si</c><c>   1</c></rc>
    <rc><c>Si</c><c>   1</c></rc>
    <rc><c>Si</c><c>   1</c></rc>
    <rc><c>Si</c><c>   1</c></rc>
    <rc><c>Si</c><c>   1</c></rc>
    <rc><c>Si</c><c>   1</c></rc>
    <rc><c>Si</c><c>   1</c></rc>
    <rc><c>Si</c><c>   1</c></rc>
    <rc><c>Si</c><c>   1</c></rc>
    <rc><c>Si</c><c>   1</c></rc>
    <rc><c>Si</c><c>   1</c></rc>
    <rc><c>Si</c><c>   1</c></rc>
    <rc><c>Si</c><c>   1</c></rc>
    <rc><c>Si</c><c>   1</c></rc>
    <rc><c>Si</c><c>   1</c></rc>
    <rc><c>Si</c><c>   1</c></rc>
    <rc><c>Si</c><c>   1</c></rc>
    <rc><c>Si</c><c>   1</c></rc>
    <rc><c>Si</c><c>   1</c></rc>
    <rc><c>Si</c><c>   1</c></rc>
    <rc><c>Si</c><c>   1</c></rc>
    <rc><c>Si</c><c>   1</c></rc>
    <rc><c>Si</c><c>   1</c></rc>
    <rc><c>Si</c><c>   1</c></rc>
    <rc><c>Si</c><c>   1</c></rc>
    <rc><c>Si</c><c>   1</c></rc>
    <rc><c>Si</c><c>   1</c></rc>
    <rc><c>Si</c><c>   1</c></rc>
    <rc><c>Si</c><c>   1</c></rc>
    <rc><c>Si</c><c>   1</c></rc>
    <rc><c>Si</c><c>   1</c></rc>
    <rc><c>Si</c><c>   1</c></rc>
    <rc><c>Si</c><c>   1</c></rc>
    <rc><c>Si</c><c>   1</c></rc>
    <rc><c>Si</c><c>   1</c></rc>
    <rc><c>Si</c><c>   1</c></rc>
    <rc><c>Si</c><c>   1</c></rc>
    <rc><c>Si</c><c>   1</c></rc>
    <rc><c>Si</c><c>   1</c></rc>
    <rc><c>Si</c><c>   1</c></rc>
    <rc><c>Si</c><c>   1</c></rc>
    <rc><c>Si</c><c>   1</c></rc>
    <rc><c>Si</c><c>   1</c></rc>
    <rc><c>Si</c><c>   1</c></rc>
    <rc><c>Si</c><c>   1</c></rc>
    <rc><c>Si</c><c>   1</c></rc>
    <rc><c>Si</c><c>   1</c></rc>
    <rc><c>Si</c><c>   1</c></rc>
    <rc><c>Si</c><c>   1</c></rc>
    <rc><c>Si</c><c>   1</c></rc>
   </set>
  </array>
  <array name="atomtypes" >
   <dimension dim="1">type</dimension>
   <field type="int">atomspertype</field>
   <field type="string">element</field>
   <field>mass</field>
   <field>valence</field>
   <field type="string">pseudopotential</field>
   <set>
    <rc><c>  53</c><c>Si</c><c>     28.08500000</c><c>      4.00000000</c><c>  PAW_PBE Si 05Jan2001                  </c></rc>
   </set>
  </array>
 </atominfo>
 <structure name="initialpos" >
  <crystal>
   <varray name="basis" >
    <v>       9.97646553       0.00000000       5.75991507 </v>
    <v>       3.32548851       9.40590192       5.75991507 </v>
    <v>       0.00000000       0.00000000      11.51983014 </v>
   </varray>
   <i name="volume">   1080.99386112 </i>
   <varray name="rec_basis" >
    <v>       0.10023590      -0.03543874       0.00000000 </v>
    <v>       0.00000000       0.10631623       0.00000000 </v>
    <v>      -0.05011795      -0.03543874       0.08680684 </v>
   </varray>
  </crystal>
  <varray name="positions" >
   <v>       0.29166667       0.29166667       0.62500000 </v>
   <v>       0.29166667       0.29166667       0.95833333 </v>
   <v>       0.29166667       0.62500000       0.29166667 </v>
   <v>       0.29166667       0.62500000       0.62500000 </v>
   <v>       0.29166667       0.62500000       0.95833333 </v>
   <v>       0.29166667       0.95833333       0.29166667 </v>
   <v>       0.29166667       0.95833333       0.62500000 </v>
   <v>       0.29166667       0.95833333       0.95833333 </v>
   <v>       0.62500000       0.29166667       0.29166667 </v>
   <v>       0.62500000       0.29166667       0.62500000 </v>
   <v>       0.62500000       0.29166667       0.95833333 </v>
   <v>       0.62500000       0.62500000       0.29166667 </v>
   <v>       0.62500000       0.62500000       0.62500000 </v>
   <v>       0.62500000       0.62500000       0.95833333 </v>
   <v>       0.62500000       0.95833333       0.29166667 </v>
   <v>       0.62500000       0.95833333       0.62500000 </v>
   <v>       0.62500000       0.95833333       0.95833333 </v>
   <v>       0.95833333       0.29166667       0.29166667 </v>
   <v>       0.95833333       0.29166667       0.62500000 </v>
   <v>       0.95833333       0.29166667       0.95833333 </v>
   <v>       0.95833333       0.62500000       0.29166667 </v>
   <v>       0.95833333       0.62500000       0.62500000 </v>
   <v>       0.95833333       0.62500000       0.95833333 </v>
   <v>       0.95833333       0.95833333       0.29166667 </v>
   <v>       0.95833333       0.95833333       0.62500000 </v>
   <v>       0.95833333       0.95833333       0.95833333 </v>
   <v>       0.04166667       0.04166667       0.04166667 </v>
   <v>       0.04166667       0.04166667       0.37500000 </v>
   <v>       0.04166667       0.04166667       0.70833333 </v>
   <v>       0.04166667       0.37500000       0.04166667 </v>
   <v>       0.04166667       0.37500000       0.37500000 </v>
   <v>       0.04166667       0.37500000       0.70833333 </v>
   <v>       0.04166667       0.70833333       0.04166667 </v>
   <v>       0.04166667       0.70833333       0.37500000 </v>
   <v>       0.04166667       0.70833333       0.70833333 </v>
   <v>       0.37500000       0.04166667       0.04166667 </v>
   <v>       0.37500000       0.04166667       0.37500000 </v>
   <v>       0.37500000       0.04166667       0.70833333 </v>
   <v>       0.37500000       0.37500000       0.04166667 </v>
   <v>       0.37500000       0.37500000       0.37500000 </v>
   <v>       0.37500000       0.37500000       0.70833333 </v>
   <v>       0.37500000       0.70833333       0.04166667 </v>
   <v>       0.37500000       0.70833333       0.37500000 </v>
   <v>       0.37500000       0.70833333       0.70833333 </v>
   <v>       0.70833333       0.04166667       0.04166667 </v>
   <v>       0.70833333       0.04166667       0.37500000 </v>
   <v>       0.70833333       0.04166667       0.70833333 </v>
   <v>       0.70833333       0.37500000       0.04166667 </v>
   <v>       0.70833333       0.37500000       0.37500000 </v>
   <v>       0.70833333       0.37500000       0.70833333 </v>
   <v>       0.70833333       0.70833333       0.04166667 </v>
   <v>       0.70833333       0.70833333       0.37500000 </v>
   <v>       0.70833333       0.70833333       0.70833333 </v>
  </varray>
 </structure>
 <calculation>
  <scstep>
   <time name="dav">    3.82    3.86</time>
   <time name="total">    4.20    4.25</time>
   <energy>
    <i name="alphaZ">     87.47481167 </i>
    <i name="ewald">  -5974.52528800 </i>
    <i name="hartreedc">   -435.28201080 </i>
    <i name="XCdc">   -475.23648455 </i>
    <i name="pawpsdc">  22596.48608911 </i>
    <i name="pawaedc"> -21669.92294145 </i>
    <i name="eentropy">     -0.01835353 </i>
    <i name="bandstr">    130.69329902 </i>
    <i name="atom">   5462.52286525 </i>
    <i name="e_fr_energy">   -277.80801329 </i>
    <i name="e_wo_entrp">   -277.78965975 </i>
    <i name="e_0_energy">   -277.79883652 </i>
   </energy>
  </scstep>
  <scstep>
   <time name="dav">    3.03    3.06</time>
   <time name="total">    4.08    4.12</time>
   <energy>
    <i name="alphaZ">     87.47481167 </i>
    <i name="ewald">  -5974.52528800 </i>
    <i name="hartreedc">   -435.27624325 </i>
    <i name="XCdc">   -475.23658546 </i>
    <i name="pawpsdc">  22596.73532978 </i>
    <i name="pawaedc"> -21670.17209257 </i>
    <i name="eentropy">     -0.01836762 </i>
    <i name="bandstr">    130.68755970 </i>
    <i name="atom">   5462.52286525 </i>
    <i name="e_fr_energy">   -277.80801050 </i>
    <i name="e_wo_entrp">   -277.78964288 </i>
    <i name="e_0_energy">   -277.79882669 </i>
   </energy>
  </scstep>
  <structure>
   <crystal>
    <varray name="basis" >
     <v>       9.97646553       0.00000000       5.75991507 </v>
     <v>       3.32548851       9.40590192       5.75991507 </v>
     <v>       0.00000000       0.00000000      11.51983014 </v>
    </varray>
    <i name="volume">   1080.99386112 </i>
    <varray name="rec_basis" >
     <v>       0.10023590      -0.03543874       0.00000000 </v>
     <v>       0.00000000       0.10631623       0.00000000 </v>
     <v>      -0.05011795      -0.03543874       0.08680684 </v>
    </varray>
   </crystal>
   <varray name="positions" >
    <v>       0.29166667       0.29166667       0.62500000 </v>
    <v>       0.29166667       0.29166667       0.95833333 </v>
    <v>       0.29166667       0.62500000       0.29166667 </v>
    <v>       0.29166667       0.62500000       0.62500000 </v>
    <v>       0.29166667       0.62500000       0.95833333 </v>
    <v>       0.29166667       0.95833333       0.29166667 </v>
    <v>       0.29166667       0.95833333       0.62500000 </v>
    <v>       0.29166667       0.95833333       0.95833333 </v>
    <v>       0.62500000       0.29166667       0.29166667 </v>
    <v>       0.62500000       0.29166667       0.62500000 </v>
    <v>       0.62500000       0.29166667       0.95833333 </v>
    <v>       0.62500000       0.62500000       0.29166667 </v>
    <v>       0.62500000       0.62500000       0.62500000 </v>
    <v>       0.62500000       0.62500000       0.95833333 </v>
    <v>       0.62500000       0.95833333       0.29166667 </v>
    <v>       0.62500000       0.95833333       0.62500000 </v>
    <v>       0.62500000       0.95833333       0.95833333 </v>
    <v>       0.95833333       0.29166667       0.29166667 </v>
    <v>       0.95833333       0.29166667       0.62500000 </v>
    <v>       0.95833333       0.29166667       0.95833333 </v>
    <v>       0.95833333       0.62500000       0.29166667 </v>
    <v>       0.95833333       0.62500000       0.62500000 </v>
    <v>       0.95833333       0.62500000       0.95833333 </v>
    <v>       0.95833333       0.95833333       0.29166667 </v>
    <v>       0.95833333       0.95833333       0.62500000 </v>
    <v>       0.95833333       0.95833333       0.95833333 </v>
    <v>       0.04166667       0.04166667       0.04166667 </v>
    <v>       0.04166667       0.04166667       0.37500000 </v>
    <v>       0.04166667       0.04166667       0.70833333 </v>
    <v>       0.04166667       0.37500000       0.04166667 </v>
    <v>       0.04166667       0.37500000       0.37500000 </v>
    <v>       0.04166667       0.37500000       0.70833333 </v>
    <v>       0.04166667       0.70833333       0.04166667 </v>
    <v>       0.04166667       0.70833333       0.37500000 </v>
    <v>       0.04166667       0.70833333       0.70833333 </v>
    <v>       0.37500000       0.04166667       0.04166667 </v>
    <v>       0.37500000       0.04166667       0.37500000 </v>
    <v>       0.37500000       0.04166667       0.70833333 </v>
    <v>       0.37500000       0.37500000       0.04166667 </v>
    <v>       0.37500000       0.37500000       0.37500000 </v>
    <v>       0.37500000       0.37500000       0.70833333 </v>
    <v>       0.37500000       0.70833333       0.04166667 </v>
    <v>       0.37500000       0.70833333       0.37500000 </v>
    <v>       0.37500000       0.70833333       0.70833333 </v>
    <v>       0.70833333       0.04166667       0.04166667 </v>
    <v>       0.70833333       0.04166667       0.37500000 </v>
    <v>       0.70833333       0.04166667       0.70833333 </v>
    <v>       0.70833333       0.37500000       0.04166667 </v>
    <v>       0.70833333       0.37500000       0.37500000 </v>
    <v>       0.70833333       0.37500000       0.70833333 </v>
    <v>       0.70833333       0.70833333       0.04166667 </v>
    <v>       0.70833333       0.70833333       0.37500000 </v>
    <v>       0.70833333       0.70833333       0.70833333 </v>
   </varray>
  </structure>
  <varray name="forces" >
   <v>       0.12265840       0.08673258      -0.25873703 </v>
   <v>       0.12265840       0.08673258       0.25873703 </v>
   <v>      -0.01336175      -0.29799049      -0.02314323 </v>
   <v>       0.03108128      -0.01098889      -0.00000000 </v>
   <v>      -0.01336175      -0.29799049       0.02314323 </v>
   <v>       0.13602015       0.12452532       0.23559380 </v>
   <v>       0.13602015       0.12452532      -0.23559380 </v>
   <v>       0.06318957      -0.02234089      -0.00000000 </v>
   <v>      -0.28540204       0.08673258      -0.02314323 </v>
   <v>       0.00000000       0.03296668      -0.00000000 </v>
   <v>      -0.28540204       0.08673258       0.02314323 </v>
   <v>      -0.01554064      -0.01098889       0.02691718 </v>
   <v>      -0.01554064      -0.01098889      -0.02691718 </v>
   <v>      -0.02311510      -0.01634485      -0.00000000 </v>
   <v>      -0.27204029       0.12452532       0.00000000 </v>
   <v>      -0.01155755       0.01634485      -0.02001827 </v>
   <v>      -0.01155755       0.01634485       0.02001827 </v>
   <v>       0.16274364       0.08673258       0.23559380 </v>
   <v>       0.16274364       0.08673258      -0.23559380 </v>
   <v>       0.00000000       0.06702266      -0.00000000 </v>
   <v>       0.02672350      -0.29799049       0.00000000 </v>
   <v>       0.01155755      -0.01634485      -0.02001827 </v>
   <v>       0.01155755      -0.01634485       0.02001827 </v>
   <v>      -0.03159478      -0.02234089       0.05472377 </v>
   <v>       0.02311510       0.01634485      -0.00000000 </v>
   <v>      -0.03159478      -0.02234089      -0.05472377 </v>
   <v>       0.00000000      -0.00000000      -0.00000000 </v>
   <v>       0.02487720       0.01759083      -0.05003703 </v>
   <v>       0.02487720       0.01759083       0.05003703 </v>
   <v>      -0.00200585      -0.05844590      -0.00347423 </v>
   <v>       0.48384380      -0.17106462       0.00000000 </v>
   <v>      -0.00200585      -0.05844590       0.00347423 </v>
   <v>       0.02688305       0.02326423       0.04656280 </v>
   <v>       0.02688305       0.02326423      -0.04656280 </v>
   <v>      -0.02643279       0.00934540      -0.00000000 </v>
   <v>      -0.05577194       0.01759083      -0.00347423 </v>
   <v>      -0.00000000       0.51319385       0.00000000 </v>
   <v>      -0.05577194       0.01759083       0.00347423 </v>
   <v>      -0.24192190      -0.17106462       0.41902103 </v>
   <v>      -0.24192190      -0.17106462      -0.41902103 </v>
   <v>      -0.05803649      -0.04103799      -0.00000000 </v>
   <v>      -0.05376609       0.02326423      -0.00000000 </v>
   <v>      -0.02901824       0.04103799      -0.05026107 </v>
   <v>      -0.02901824       0.04103799       0.05026107 </v>
   <v>       0.03089474       0.01759083       0.04656280 </v>
   <v>       0.03089474       0.01759083      -0.04656280 </v>
   <v>       0.00000000      -0.02803620      -0.00000000 </v>
   <v>       0.00401170      -0.05844590      -0.00000000 </v>
   <v>       0.02901824      -0.04103799      -0.05026107 </v>
   <v>       0.02901824      -0.04103799       0.05026107 </v>
   <v>       0.01321639       0.00934540      -0.02289146 </v>
   <v>       0.05803649       0.04103799      -0.00000000 </v>
   <v>       0.01321639       0.00934540       0.02289146 </v>
  </varray>
  <varray name="stress" >
   <v>      28.22623238       0.00000000      -0.00000000 </v>
   <v>       0.00000000      28.22623247       0.00000000 </v>
   <v>       0.00000000       0.00000000      28.22623249 </v>
  </varray>
  <energy>
   <i name="e_fr_energy">   -277.80801050 </i>
   <i name="e_wo_entrp">   -277.79882669 </i>
   <i name="e_0_energy">     -0.01836762 </i>
  </energy>
  <time name="totalsc">   21.02   22.42</time>
 </calculation>
 <calculation>
  <scstep>
   <time name="dav">    3.68    3.78</time>
   <time name="total">    5.14    5.27</time>
   <energy>
    <i name="alphaZ">     87.47481167 </i>
    <i name="ewald">  -5980.20393045 </i>
    <i name="hartreedc">   -430.59129570 </i>
    <i name="XCdc">   -475.32218782 </i>
    <i name="pawpsdc">  22597.20022077 </i>
    <i name="pawaedc"> -21670.63684248 </i>
    <i name="eentropy">     -0.01762987 </i>
    <i name="bandstr">    131.67471420 </i>
    <i name="atom">   5462.52286525 </i>
    <i name="e_fr_energy">   -277.89927443 </i>
    <i name="e_wo_entrp">   -277.88164456 </i>
    <i name="e_0_energy">   -277.89045950 </i>
   </energy>
  </scstep>
  <scstep>
   <time name="dav">    4.55    6.20</time>
   <time name="total">    6.19    8.09</time>
   <energy>
    <i name="e_fr_energy">   -277.90341726 </i>
    <i name="e_wo_entrp">   -277.88579662 </i>
    <i name="e_0_energy">   -277.89460694 </i>
   </energy>
  </scstep>
  <scstep>
   <time name="dav">    4.94    4.98</time>
   <time name="total">    7.26    7.33</time>
   <energy>
    <i name="e_fr_energy">   -277.90310920 </i>
    <i name="e_wo_entrp">   -277.88548294 </i>
    <i name="e_0_energy">   -277.89429607 </i>
   </energy>
  </scstep>
  <scstep>
   <time name="dav">    5.78    5.84</time>
   <time name="total">    6.74    6.84</time>
   <energy>
    <i name="e_fr_energy">   -277.90287545 </i>
    <i name="e_wo_entrp">   -277.88524550 </i>
    <i name="e_0_energy">   -277.89406047 </i>
   </energy>
  </scstep>
  <scstep>
   <time name="dav">    4.67    4.71</time>
   <time name="total">    5.25    5.45</time>
   <energy>
    <i name="e_fr_energy">   -277.90288041 </i>
    <i name="e_wo_entrp">   -277.88525806 </i>
    <i name="e_0_energy">   -277.89406924 </i>
   </energy>
  </scstep>
  <scstep>
   <time name="dav">    3.68    3.71</time>
   <time name="total">    3.77    3.80</time>
   <energy>
    <i name="alphaZ">     87.47481167 </i>
    <i name="ewald">  -5980.20393045 </i>
    <i name="hartreedc">   -430.55194035 </i>
    <i name="XCdc">   -475.33180734 </i>
    <i name="pawpsdc">  22548.04541180 </i>
    <i name="pawaedc"> -21621.46048886 </i>
    <i name="eentropy">     -0.01761924 </i>
    <i name="bandstr">    131.61981551 </i>
    <i name="atom">   5462.52286525 </i>
    <i name="e_fr_energy">   -277.90288201 </i>
    <i name="e_wo_entrp">   -277.88526278 </i>
    <i name="e_0_energy">   -277.89407240 </i>
   </energy>
  </scstep>
  <structure>
   <crystal>
    <varray name="basis" >
     <v>       9.97646553       0.00000000       5.75991507 </v>
     <v>       3.32548851       9.40590192       5.75991507 </v>
     <v>       0.00000000       0.00000000      11.51983014 </v>
    </varray>
    <i name="volume">   1080.99386112 </i>
    <varray name="rec_basis" >
     <v>       0.10023590      -0.03543874       0.00000000 </v>
     <v>       0.00000000       0.10631623       0.00000000 </v>
     <v>      -0.05011795      -0.03543874       0.08680684 </v>
    </varray>
   </crystal>
   <varray name="positions" >
    <v>       0.29211152       0.29211152       0.62347161 </v>
    <v>       0.29211152       0.29211152       0.95897202 </v>
    <v>       0.29211152       0.62347161       0.29211152 </v>
    <v>       0.29183575       0.62494364       0.62494364 </v>
    <v>       0.29211152       0.62347161       0.95897202 </v>
    <v>       0.29211152       0.95897202       0.29211152 </v>
    <v>       0.29211152       0.95897202       0.62347161 </v>
    <v>       0.29201042       0.95821875       0.95821875 </v>
    <v>       0.62347161       0.29211152       0.29211152 </v>
    <v>       0.62494364       0.29183575       0.62494364 </v>
    <v>       0.62347161       0.29211152       0.95897202 </v>
    <v>       0.62494364       0.62494364       0.29183575 </v>
    <v>       0.62494364       0.62494364       0.62494364 </v>
    <v>       0.62491617       0.62491617       0.95841717 </v>
    <v>       0.62347161       0.95897202       0.29211152 </v>
    <v>       0.62491617       0.95841717       0.62491617 </v>
    <v>       0.62491617       0.95841717       0.95841717 </v>
    <v>       0.95897202       0.29211152       0.29211152 </v>
    <v>       0.95897202       0.29211152       0.62347161 </v>
    <v>       0.95821875       0.29201042       0.95821875 </v>
    <v>       0.95897202       0.62347161       0.29211152 </v>
    <v>       0.95841717       0.62491617       0.62491617 </v>
    <v>       0.95841717       0.62491617       0.95841717 </v>
    <v>       0.95821875       0.95821875       0.29201042 </v>
    <v>       0.95841717       0.95841717       0.62491617 </v>
    <v>       0.95821875       0.95821875       0.95821875 </v>
    <v>       0.04166667       0.04166667       0.04166667 </v>
    <v>       0.04175689       0.04175689       0.37470023 </v>
    <v>       0.04175689       0.04175689       0.70845266 </v>
    <v>       0.04175689       0.37470023       0.04175689 </v>
    <v>       0.04429883       0.37412261       0.37412261 </v>
    <v>       0.04175689       0.37470023       0.70845266 </v>
    <v>       0.04175689       0.70845266       0.04175689 </v>
    <v>       0.04175689       0.70845266       0.37470023 </v>
    <v>       0.04152287       0.70838127       0.70838127 </v>
    <v>       0.37470023       0.04175689       0.04175689 </v>
    <v>       0.37412261       0.04429883       0.37412261 </v>
    <v>       0.37470023       0.04175689       0.70845266 </v>
    <v>       0.37412261       0.37412261       0.04429883 </v>
    <v>       0.37412261       0.37412261       0.37412261 </v>
    <v>       0.37478952       0.37478952       0.70854382 </v>
    <v>       0.37470023       0.70845266       0.04175689 </v>
    <v>       0.37478952       0.70854382       0.37478952 </v>
    <v>       0.37478952       0.70854382       0.70854382 </v>
    <v>       0.70845266       0.04175689       0.04175689 </v>
    <v>       0.70845266       0.04175689       0.37470023 </v>
    <v>       0.70838127       0.04152287       0.70838127 </v>
    <v>       0.70845266       0.37470023       0.04175689 </v>
    <v>       0.70854382       0.37478952       0.37478952 </v>
    <v>       0.70854382       0.37478952       0.70854382 </v>
    <v>       0.70838127       0.70838127       0.04152287 </v>
    <v>       0.70854382       0.70854382       0.37478952 </v>
    <v>       0.70838127       0.70838127       0.70838127 </v>
   </varray>
  </structure>
  <varray name="forces" >
   <v>       0.05148663       0.03640654      -0.14599207 </v>
   <v>       0.05148663       0.03640654       0.14599207 </v>
   <v>      -0.01640097      -0.15560857      -0.02840731 </v>
   <v>       0.01386313      -0.00490136       0.00000000 </v>
   <v>      -0.01640097      -0.15560857       0.02840731 </v>
   <v>       0.06788759       0.08279548       0.11758476 </v>
   <v>       0.06788759       0.08279548      -0.11758476 </v>
   <v>      -0.00588038       0.00207903       0.00000000 </v>
   <v>      -0.15217615       0.03640654      -0.02840731 </v>
   <v>      -0.00000000       0.01470407       0.00000000 </v>
   <v>      -0.15217615       0.03640654       0.02840731 </v>
   <v>      -0.00693156      -0.00490136       0.01200582 </v>
   <v>      -0.00693156      -0.00490136      -0.01200582 </v>
   <v>      -0.02487725      -0.01759088       0.00000000 </v>
   <v>      -0.13577518       0.08279548       0.00000000 </v>
   <v>      -0.01243863       0.01759088      -0.02154433 </v>
   <v>      -0.01243863       0.01759088       0.02154433 </v>
   <v>       0.10068953       0.03640654       0.11758476 </v>
   <v>       0.10068953       0.03640654      -0.11758476 </v>
   <v>      -0.00000000      -0.00623708       0.00000000 </v>
   <v>       0.03280193      -0.15560857       0.00000000 </v>
   <v>       0.01243863      -0.01759088      -0.02154433 </v>
   <v>       0.01243863      -0.01759088       0.02154433 </v>
   <v>       0.00294019       0.00207903      -0.00509256 </v>
   <v>       0.02487725       0.01759088       0.00000000 </v>
   <v>       0.00294019       0.00207903       0.00509256 </v>
   <v>      -0.00000000      -0.00000000       0.00000000 </v>
   <v>       0.04986759       0.03526171       0.00815720 </v>
   <v>       0.04986759       0.03526171      -0.00815720 </v>
   <v>       0.02728858      -0.02860139       0.04726520 </v>
   <v>       0.49999473      -0.17677483      -0.00000000 </v>
   <v>       0.02728858      -0.02860139      -0.04726520 </v>
   <v>       0.02257902      -0.04192203       0.03910800 </v>
   <v>       0.02257902      -0.04192203      -0.03910800 </v>
   <v>       0.00077422      -0.00027373       0.00000000 </v>
   <v>      -0.01786946       0.03526171       0.04726520 </v>
   <v>      -0.00000000       0.53032450      -0.00000000 </v>
   <v>      -0.01786946       0.03526171      -0.04726520 </v>
   <v>      -0.24999737      -0.17677483       0.43300814 </v>
   <v>      -0.24999737      -0.17677483      -0.43300814 </v>
   <v>      -0.03407386      -0.02409386       0.00000000 </v>
   <v>      -0.04515803      -0.04192203       0.00000000 </v>
   <v>      -0.01703693       0.02409386      -0.02950883 </v>
   <v>      -0.01703693       0.02409386       0.02950883 </v>
   <v>      -0.03199813       0.03526171       0.03910800 </v>
   <v>      -0.03199813       0.03526171      -0.03910800 </v>
   <v>      -0.00000000       0.00082119       0.00000000 </v>
   <v>      -0.05457715      -0.02860139       0.00000000 </v>
   <v>       0.01703693      -0.02409386      -0.02950883 </v>
   <v>       0.01703693      -0.02409386       0.02950883 </v>
   <v>      -0.00038711      -0.00027373       0.00067050 </v>
   <v>       0.03407386       0.02409386       0.00000000 </v>
   <v>      -0.00038711      -0.00027373      -0.00067050 </v>
  </varray>
  <varray name="stress" >
   <v>      27.42999875       0.00000000      -0.00000000 </v>
   <v>       0.00000000      27.42999884       0.00000000 </v>
   <v>       0.00000000       0.00000000      27.42999885 </v>
  </varray>
  <energy>
   <i name="e_fr_energy">   -277.90288201 </i>
   <i name="e_wo_entrp">   -277.89407240 </i>
   <i name="e_0_energy">     -0.01761924 </i>
  </energy>
  <time name="totalsc">   46.65   49.24</time>
 </calculation>
 <calculation>
  <scstep>
   <time name="dav">    4.05    4.09</time>
   <time name="total">    5.12    5.17</time>
   <energy>
    <i name="alphaZ">     87.47481167 </i>
    <i name="ewald">  -5994.63459254 </i>
    <i name="hartreedc">   -418.88289340 </i>
    <i name="XCdc">   -475.57279054 </i>
    <i name="pawpsdc">  22545.80570263 </i>
    <i name="pawaedc"> -21619.22055366 </i>
    <i name="eentropy">     -0.01687266 </i>
    <i name="bandstr">    134.52460971 </i>
    <i name="atom">   5462.52286525 </i>
    <i name="e_fr_energy">   -277.99971353 </i>
    <i name="e_wo_entrp">   -277.98284088 </i>
    <i name="e_0_energy">   -277.99127721 </i>
   </energy>
  </scstep>
  <scstep>
   <time name="dav">    4.21    4.26</time>
   <time name="total">    4.60    4.66</time>
   <energy>
    <i name="e_fr_energy">   -278.03078571 </i>
    <i name="e_wo_entrp">   -278.01392213 </i>
    <i name="e_0_energy">   -278.02235392 </i>
   </energy>
  </scstep>
  <scstep>
   <time name="dav">    4.05    4.08</time>
   <time name="total">    4.30    4.34</time>
   <energy>
    <i name="e_fr_energy">   -278.02818605 </i>
    <i name="e_wo_entrp">   -278.01131622 </i>
    <i name="e_0_energy">   -278.01975114 </i>
   </energy>
  </scstep>
  <scstep>
   <time name="dav">    4.19    4.22</time>
   <time name="total">    4.44    4.48</time>
   <energy>
    <i name="e_fr_energy">   -278.02582681 </i>
    <i name="e_wo_entrp">   -278.00895087 </i>
    <i name="e_0_energy">   -278.01738884 </i>
   </energy>
  </scstep>
  <scstep>
   <time name="dav">    5.80    5.87</time>
   <time name="total">    6.06    6.13</time>
   <energy>
    <i name="e_fr_energy">   -278.02589525 </i>
    <i name="e_wo_entrp">   -278.00902550 </i>
    <i name="e_0_energy">   -278.01746038 </i>
   </energy>
  </scstep>
  <scstep>
   <time name="dav">    3.83    3.86</time>
   <time name="total">    4.09    4.12</time>
   <energy>
    <i name="e_fr_energy">   -278.02588504 </i>
    <i name="e_wo_entrp">   -278.00901907 </i>
    <i name="e_0_energy">   -278.01745205 </i>
   </energy>
  </scstep>
  <scstep>
   <time name="dav">    3.95    3.99</time>
   <time name="total">    4.21    4.25</time>
   <energy>
    <i name="e_fr_energy">   -278.02587132 </i>
    <i name="e_wo_entrp">   -278.00900590 </i>
    <i name="e_0_energy">   -278.01743861 </i>
   </energy>
  </scstep>
  <scstep>
   <time name="dav">    4.13    4.17</time>
   <time name="total">    4.22    4.26</time>
   <energy>
    <i name="alphaZ">     87.47481167 </i>
    <i name="ewald">  -5994.63459254 </i>
    <i name="hartreedc">   -418.64894368 </i>
    <i name="XCdc">   -475.62853978 </i>
    <i name="pawpsdc">  22371.13371717 </i>
    <i name="pawaedc"> -21444.47441752 </i>
    <i name="eentropy">     -0.01686623 </i>
    <i name="bandstr">    134.24609585 </i>
    <i name="atom">   5462.52286525 </i>
    <i name="e_fr_energy">   -278.02586981 </i>
    <i name="e_wo_entrp">   -278.00900358 </i>
    <i name="e_0_energy">   -278.01743670 </i>
   </energy>
  </scstep>
  <structure>
   <crystal>
    <varray name="basis" >
     <v>       9.97646553       0.00000000       5.75991507 </v>
     <v>       3.32548851       9.40590192       5.75991507 </v>
     <v>       0.00000000       0.00000000      11.51983014 </v>
    </varray>
    <i name="volume">   1080.99386112 </i>
    <varray name="rec_basis" >
     <v>       0.10023590      -0.03543874       0.00000000 </v>
     <v>       0.00000000       0.10631623       0.00000000 </v>
     <v>      -0.05011795      -0.03543874       0.08680684 </v>
    </varray>
   </crystal>
   <varray name="positions" >
    <v>       0.29333273       0.29333273       0.61927584 </v>
    <v>       0.29333273       0.29333273       0.96072536 </v>
    <v>       0.29333273       0.61927584       0.29333273 </v>
    <v>       0.29229993       0.62478891       0.62478891 </v>
    <v>       0.29333273       0.61927584       0.96072536 </v>
    <v>       0.29333273       0.96072536       0.29333273 </v>
    <v>       0.29333273       0.96072536       0.61927584 </v>
    <v>       0.29295412       0.95790418       0.95790418 </v>
    <v>       0.61927584       0.29333273       0.29333273 </v>
    <v>       0.62478891       0.29229993       0.62478891 </v>
    <v>       0.61927584       0.29333273       0.96072536 </v>
    <v>       0.62478891       0.62478891       0.29229993 </v>
    <v>       0.62478891       0.62478891       0.62478891 </v>
    <v>       0.62468603       0.62468603       0.95864730 </v>
    <v>       0.61927584       0.96072536       0.29333273 </v>
    <v>       0.62468603       0.95864730       0.62468603 </v>
    <v>       0.62468603       0.95864730       0.95864730 </v>
    <v>       0.96072536       0.29333273       0.29333273 </v>
    <v>       0.96072536       0.29333273       0.61927584 </v>
    <v>       0.95790418       0.29295412       0.95790418 </v>
    <v>       0.96072536       0.61927584       0.29333273 </v>
    <v>       0.95864730       0.62468603       0.62468603 </v>
    <v>       0.95864730       0.62468603       0.95864730 </v>
    <v>       0.95790418       0.95790418       0.29295412 </v>
    <v>       0.95864730       0.95864730       0.62468603 </v>
    <v>       0.95790418       0.95790418       0.95790418 </v>
    <v>       0.04166667       0.04166667       0.04166667 </v>
    <v>       0.04200457       0.04200457       0.37387730 </v>
    <v>       0.04200457       0.04200457       0.70878022 </v>
    <v>       0.04200457       0.37387730       0.04200457 </v>
    <v>       0.05152470       0.37171399       0.37171399 </v>
    <v>       0.04200457       0.37387730       0.70878022 </v>
    <v>       0.04200457       0.70878022       0.04200457 </v>
    <v>       0.04200457       0.70878022       0.37387730 </v>
    <v>       0.04112811       0.70851285       0.70851285 </v>
    <v>       0.37387730       0.04200457       0.04200457 </v>
    <v>       0.37171399       0.05152470       0.37171399 </v>
    <v>       0.37387730       0.04200457       0.70878022 </v>
    <v>       0.37171399       0.37171399       0.05152470 </v>
    <v>       0.37171399       0.37171399       0.37171399 </v>
    <v>       0.37421169       0.37421169       0.70912164 </v>
    <v>       0.37387730       0.70878022       0.04200457 </v>
    <v>       0.37421169       0.70912164       0.37421169 </v>
    <v>       0.37421169       0.70912164       0.70912164 </v>
    <v>       0.70878022       0.04200457       0.04200457 </v>
    <v>       0.70878022       0.04200457       0.37387730 </v>
    <v>       0.70851285       0.04112811       0.70851285 </v>
    <v>       0.70878022       0.37387730       0.04200457 </v>
    <v>       0.70912164       0.37421169       0.37421169 </v>
    <v>       0.70912164       0.37421169       0.70912164 </v>
    <v>       0.70851285       0.70851285       0.04112811 </v>
    <v>       0.70912164       0.70912164       0.37421169 </v>
    <v>       0.70851285       0.70851285       0.70851285 </v>
   </varray>
  </structure>
  <varray name="forces" >
   <v>      -0.15948503      -0.11277295       0.16683252 </v>
   <v>      -0.15948503      -0.11277295      -0.16683252 </v>
   <v>      -0.03158211       0.24899113      -0.05470183 </v>
   <v>      -0.03433333       0.01213867       0.00000000 </v>
   <v>      -0.03158211       0.24899113       0.05470183 </v>
   <v>      -0.12790292      -0.02344524      -0.22153435 </v>
   <v>      -0.12790292      -0.02344524       0.22153435 </v>
   <v>      -0.19844967       0.07016255       0.00000000 </v>
   <v>       0.22422372      -0.11277295      -0.05470183 </v>
   <v>      -0.00000000      -0.03641600       0.00000000 </v>
   <v>       0.22422372      -0.11277295       0.05470183 </v>
   <v>       0.01716667       0.01213867      -0.02973354 </v>
   <v>       0.01716667       0.01213867       0.02973354 </v>
   <v>      -0.02803495      -0.01982370       0.00000000 </v>
   <v>       0.25580583      -0.02344524       0.00000000 </v>
   <v>      -0.01401747       0.01982370      -0.02427898 </v>
   <v>      -0.01401747       0.01982370       0.02427898 </v>
   <v>      -0.06473869      -0.11277295      -0.22153435 </v>
   <v>      -0.06473869      -0.11277295       0.22153435 </v>
   <v>       0.00000000      -0.21048766       0.00000000 </v>
   <v>       0.06316423       0.24899113       0.00000000 </v>
   <v>       0.01401747      -0.01982370      -0.02427898 </v>
   <v>       0.01401747      -0.01982370       0.02427898 </v>
   <v>       0.09922483       0.07016255      -0.17186246 </v>
   <v>       0.02803495       0.01982370       0.00000000 </v>
   <v>       0.09922483       0.07016255       0.17186246 </v>
   <v>      -0.00000000       0.00000000       0.00000000 </v>
   <v>       0.12027988       0.08505072       0.17652401 </v>
   <v>       0.12027988       0.08505072      -0.17652401 </v>
   <v>       0.11109803       0.05908053       0.19242744 </v>
   <v>       0.53379418      -0.18872474       0.00000000 </v>
   <v>       0.11109803       0.05908053      -0.19242744 </v>
   <v>       0.00918185      -0.22918197       0.01590343 </v>
   <v>       0.00918185      -0.22918197      -0.01590343 </v>
   <v>       0.07014702      -0.02480072       0.00000000 </v>
   <v>       0.09273433       0.08505072       0.19242744 </v>
   <v>      -0.00000000       0.56617423       0.00000000 </v>
   <v>       0.09273433       0.08505072      -0.19242744 </v>
   <v>      -0.26689709      -0.18872474       0.46227932 </v>
   <v>      -0.26689709      -0.18872474      -0.46227932 </v>
   <v>       0.05135247       0.03631168       0.00000000 </v>
   <v>      -0.01836370      -0.22918197       0.00000000 </v>
   <v>       0.02567623      -0.03631168       0.04447254 </v>
   <v>       0.02567623      -0.03631168      -0.04447254 </v>
   <v>      -0.21301422       0.08505072       0.01590343 </v>
   <v>      -0.21301422       0.08505072      -0.01590343 </v>
   <v>      -0.00000000       0.07440215       0.00000000 </v>
   <v>      -0.22219607       0.05908053       0.00000000 </v>
   <v>      -0.02567623       0.03631168       0.04447254 </v>
   <v>      -0.02567623       0.03631168      -0.04447254 </v>
   <v>      -0.03507351      -0.02480072       0.06074910 </v>
   <v>      -0.05135247      -0.03631168       0.00000000 </v>
   <v>      -0.03507351      -0.02480072      -0.06074910 </v>
  </varray>
  <varray name="stress" >
   <v>      24.93294555      -0.00000000       0.00000000 </v>
   <v>       0.00000000      24.93294563      -0.00000000 </v>
   <v>      -0.00000000       0.00000000      24.93294565 </v>
  </varray>
  <energy>
   <i name="e_fr_energy">   -278.02586981 </i>
   <i name="e_wo_entrp">   -278.01743670 </i>
   <i name="e_0_energy">     -0.01686623 </i>
  </energy>
  <time name="totalsc">   47.22   47.68</time>
 </calculation>
 <calculation>
  <scstep>
   <time name="dav">    3.61    3.64</time>
   <time name="total">    3.87    3.91</time>
   <energy>
    <i name="alphaZ">     87.47481167 </i>
    <i name="ewald">  -5999.58087345 </i>
    <i name="hartreedc">   -414.88003071 </i>
    <i name="XCdc">   -475.72441904 </i>
    <i name="pawpsdc">  22369.76089921 </i>
    <i name="pawaedc"> -21443.10193534 </i>
    <i name="eentropy">     -0.01613226 </i>
    <i name="bandstr">    135.45371701 </i>
    <i name="atom">   5462.52286525 </i>
    <i name="e_fr_energy">   -278.09109767 </i>
    <i name="e_wo_entrp">   -278.07496541 </i>
    <i name="e_0_energy">   -278.08303154 </i>
   </energy>
  </scstep>
  <scstep>
   <time name="dav">    4.07    4.11</time>
   <time name="total">    4.33    4.36</time>
   <energy>
    <i name="e_fr_energy">   -278.09534906 </i>
    <i name="e_wo_entrp">   -278.07921097 </i>
    <i name="e_0_energy">   -278.08728001 </i>
   </energy>
  </scstep>
  <scstep>
   <time name="dav">    4.02    4.06</time>
   <time name="total">    4.28    4.33</time>
   <energy>
    <i name="e_fr_energy">   -278.09495705 </i>
    <i name="e_wo_entrp">   -278.07880442 </i>
    <i name="e_0_energy">   -278.08688073 </i>
   </energy>
  </scstep>
  <scstep>
   <time name="dav">    3.92    3.96</time>
   <time name="total">    4.78    4.84</time>
   <energy>
    <i name="e_fr_energy">   -278.09461044 </i>
    <i name="e_wo_entrp">   -278.07843424 </i>
    <i name="e_0_energy">   -278.08652234 </i>
   </energy>
  </scstep>
  <scstep>
   <time name="dav">    4.53    4.57</time>
   <time name="total">    4.92    4.97</time>
   <energy>
    <i name="e_fr_energy">   -278.09461335 </i>
    <i name="e_wo_entrp">   -278.07843167 </i>
    <i name="e_0_energy">   -278.08652251 </i>
   </energy>
  </scstep>
  <scstep>
   <time name="dav">    4.08    4.11</time>
   <time name="total">    4.17    4.20</time>
   <energy>
    <i name="alphaZ">     87.47481167 </i>
    <i name="ewald">  -5999.58087345 </i>
    <i name="hartreedc">   -414.70258523 </i>
    <i name="XCdc">   -475.75440580 </i>
    <i name="pawpsdc">  22302.67358887 </i>
    <i name="pawaedc"> -21375.98145882 </i>
    <i name="eentropy">     -0.01618129 </i>
    <i name="bandstr">    135.26962168 </i>
    <i name="atom">   5462.52286525 </i>
    <i name="e_fr_energy">   -278.09461712 </i>
    <i name="e_wo_entrp">   -278.07843584 </i>
    <i name="e_0_energy">   -278.08652648 </i>
   </energy>
  </scstep>
  <structure>
   <crystal>
    <varray name="basis" >
     <v>       9.97646553       0.00000000       5.75991507 </v>
     <v>       3.32548851       9.40590192       5.75991507 </v>
     <v>       0.00000000       0.00000000      11.51983014 </v>
    </varray>
    <i name="volume">   1080.99386112 </i>
    <varray name="rec_basis" >
     <v>       0.10023590      -0.03543874       0.00000000 </v>
     <v>       0.00000000       0.10631623       0.00000000 </v>
     <v>      -0.05011795      -0.03543874       0.08680684 </v>
    </varray>
   </crystal>
   <varray name="positions" >
    <v>       0.29332219       0.29332219       0.61895248 </v>
    <v>       0.29332219       0.29332219       0.96106980 </v>
    <v>       0.29332219       0.61895248       0.29332219 </v>
    <v>       0.29231267       0.62478467       0.62478467 </v>
    <v>       0.29332219       0.61895248       0.96106980 </v>
    <v>       0.29332219       0.96106980       0.29332219 </v>
    <v>       0.29332219       0.96106980       0.61895248 </v>
    <v>       0.29262569       0.95801366       0.95801366 </v>
    <v>       0.61895248       0.29332219       0.29332219 </v>
    <v>       0.62478467       0.29231267       0.62478467 </v>
    <v>       0.61895248       0.29332219       0.96106980 </v>
    <v>       0.62478467       0.62478467       0.29231267 </v>
    <v>       0.62478467       0.62478467       0.62478467 </v>
    <v>       0.62458135       0.62458135       0.95875198 </v>
    <v>       0.61895248       0.96106980       0.29332219 </v>
    <v>       0.62458135       0.95875198       0.62458135 </v>
    <v>       0.62458135       0.95875198       0.95875198 </v>
    <v>       0.96106980       0.29332219       0.29332219 </v>
    <v>       0.96106980       0.29332219       0.61895248 </v>
    <v>       0.95801366       0.29262569       0.95801366 </v>
    <v>       0.96106980       0.61895248       0.29332219 </v>
    <v>       0.95875198       0.62458135       0.62458135 </v>
    <v>       0.95875198       0.62458135       0.95875198 </v>
    <v>       0.95801366       0.95801366       0.29262569 </v>
    <v>       0.95875198       0.95875198       0.62458135 </v>
    <v>       0.95801366       0.95801366       0.95801366 </v>
    <v>       0.04166667       0.04166667       0.04166667 </v>
    <v>       0.04228268       0.04228268       0.37384048 </v>
    <v>       0.04228268       0.04228268       0.70826082 </v>
    <v>       0.04228268       0.37384048       0.04228268 </v>
    <v>       0.05466526       0.37066713       0.37066713 </v>
    <v>       0.04228268       0.37384048       0.70826082 </v>
    <v>       0.04228268       0.70826082       0.04228268 </v>
    <v>       0.04228268       0.70826082       0.37384048 </v>
    <v>       0.04123006       0.70847887       0.70847887 </v>
    <v>       0.37384048       0.04228268       0.04228268 </v>
    <v>       0.37066713       0.05466526       0.37066713 </v>
    <v>       0.37384048       0.04228268       0.70826082 </v>
    <v>       0.37066713       0.37066713       0.05466526 </v>
    <v>       0.37066713       0.37066713       0.37066713 </v>
    <v>       0.37417241       0.37417241       0.70916092 </v>
    <v>       0.37384048       0.70826082       0.04228268 </v>
    <v>       0.37417241       0.70916092       0.37417241 </v>
    <v>       0.37417241       0.70916092       0.70916092 </v>
    <v>       0.70826082       0.04228268       0.04228268 </v>
    <v>       0.70826082       0.04228268       0.37384048 </v>
    <v>       0.70847887       0.04123006       0.70847887 </v>
    <v>       0.70826082       0.37384048       0.04228268 </v>
    <v>       0.70916092       0.37417241       0.37417241 </v>
    <v>       0.70916092       0.37417241       0.70916092 </v>
    <v>       0.70847887       0.70847887       0.04123006 </v>
    <v>       0.70916092       0.70916092       0.37417241 </v>
    <v>       0.70847887       0.70847887       0.70847887 </v>
   </varray>
  </structure>
  <varray name="forces" >
   <v>      -0.12359177      -0.08739258       0.13894337 </v>
   <v>      -0.12359177      -0.08739258      -0.13894337 </v>
   <v>      -0.02168639       0.20083936      -0.03756193 </v>
   <v>      -0.02802879       0.00990967      -0.00000000 </v>
   <v>      -0.02168639       0.20083936       0.03756193 </v>
   <v>      -0.10190538      -0.02605421      -0.17650529 </v>
   <v>      -0.10190538      -0.02605421       0.17650529 </v>
   <v>      -0.12941881       0.04575646       0.00000000 </v>
   <v>       0.18212437      -0.08739258      -0.03756193 </v>
   <v>       0.00000000      -0.02972902      -0.00000000 </v>
   <v>       0.18212437      -0.08739258       0.03756193 </v>
   <v>       0.01401440       0.00990967      -0.02427365 </v>
   <v>       0.01401440       0.00990967       0.02427365 </v>
   <v>      -0.01726293      -0.01220674       0.00000000 </v>
   <v>       0.20381075      -0.02605421       0.00000000 </v>
   <v>      -0.00863147       0.01220674      -0.01495014 </v>
   <v>      -0.00863147       0.01220674       0.01495014 </v>
   <v>      -0.05853260      -0.08739258      -0.17650529 </v>
   <v>      -0.05853260      -0.08739258       0.17650529 </v>
   <v>       0.00000000      -0.13726938       0.00000000 </v>
   <v>       0.04337278       0.20083936       0.00000000 </v>
   <v>       0.00863147      -0.01220674      -0.01495014 </v>
   <v>       0.00863147      -0.01220674       0.01495014 </v>
   <v>       0.06470941       0.04575646      -0.11207998 </v>
   <v>       0.01726293       0.01220674      -0.00000000 </v>
   <v>       0.06470941       0.04575646       0.11207998 </v>
   <v>       0.00000000       0.00000000      -0.00000000 </v>
   <v>       0.07025503       0.04967781       0.11433511 </v>
   <v>       0.07025503       0.04967781      -0.11433511 </v>
   <v>       0.06813322       0.04367642       0.11801019 </v>
   <v>       0.45305945      -0.16018070      -0.00000000 </v>
   <v>       0.06813322       0.04367642      -0.11801019 </v>
   <v>       0.00212181      -0.14303203       0.00367509 </v>
   <v>       0.00212181      -0.14303203      -0.00367509 </v>
   <v>       0.05669848      -0.02004594       0.00000000 </v>
   <v>       0.06388959       0.04967781       0.11801019 </v>
   <v>      -0.00000000       0.48054211      -0.00000000 </v>
   <v>       0.06388959       0.04967781      -0.11801019 </v>
   <v>      -0.22652972      -0.16018070       0.39236099 </v>
   <v>      -0.22652972      -0.16018070      -0.39236099 </v>
   <v>       0.05229991       0.03698162      -0.00000000 </v>
   <v>      -0.00424362      -0.14303203      -0.00000000 </v>
   <v>       0.02614996      -0.03698162       0.04529305 </v>
   <v>       0.02614996      -0.03698162      -0.04529305 </v>
   <v>      -0.13414462       0.04967781       0.00367509 </v>
   <v>      -0.13414462       0.04967781      -0.00367509 </v>
   <v>       0.00000000       0.06013782       0.00000000 </v>
   <v>      -0.13626643       0.04367642      -0.00000000 </v>
   <v>      -0.02614996       0.03698162       0.04529305 </v>
   <v>      -0.02614996       0.03698162      -0.04529305 </v>
   <v>      -0.02834924      -0.02004594       0.04910232 </v>
   <v>      -0.05229991      -0.03698162      -0.00000000 </v>
   <v>      -0.02834924      -0.02004594      -0.04910232 </v>
  </varray>
  <varray name="stress" >
   <v>      23.76283423      -0.00000000       0.00000000 </v>
   <v>       0.00000000      23.76283431       0.00000000 </v>
   <v>      -0.00000000       0.00000000      23.76283432 </v>
  </varray>
  <energy>
   <i name="e_fr_energy">   -278.09461712 </i>
   <i name="e_wo_entrp">   -278.08652648 </i>
   <i name="e_0_energy">     -0.01618129 </i>
  </energy>
  <time name="totalsc">   34.42   34.76</time>
 </calculation>
 <calculation>
  <scstep>
   <time name="dav">    3.28    3.30</time>
   <time name="total">    3.53    3.57</time>
   <energy>
    <i name="alphaZ">     87.47481167 </i>
    <i name="ewald">  -6012.75406519 </i>
    <i name="hartreedc">   -404.86448905 </i>
    <i name="XCdc">   -476.02867001 </i>
    <i name="pawpsdc">  22298.11340160 </i>
    <i name="pawaedc"> -21371.42000550 </i>
    <i name="eentropy">     -0.01331417 </i>
    <i name="bandstr">    138.79451806 </i>
    <i name="atom">   5462.52286525 </i>
    <i name="e_fr_energy">   -278.17494735 </i>
    <i name="e_wo_entrp">   -278.16163318 </i>
    <i name="e_0_energy">   -278.16829027 </i>
   </energy>
  </scstep>
  <scstep>
   <time name="dav">    3.85    3.89</time>
   <time name="total">    4.11    4.14</time>
   <energy>
    <i name="e_fr_energy">   -278.21454377 </i>
    <i name="e_wo_entrp">   -278.20121386 </i>
    <i name="e_0_energy">   -278.20787882 </i>
   </energy>
  </scstep>
  <scstep>
   <time name="dav">    5.75    5.81</time>
   <time name="total">    6.64    6.72</time>
   <energy>
    <i name="e_fr_energy">   -278.21132443 </i>
    <i name="e_wo_entrp">   -278.19795165 </i>
    <i name="e_0_energy">   -278.20463804 </i>
   </energy>
  </scstep>
  <scstep>
   <time name="dav">   12.45   12.62</time>
   <time name="total">   13.78   13.97</time>
   <energy>
    <i name="e_fr_energy">   -278.20823123 </i>
    <i name="e_wo_entrp">   -278.19477956 </i>
    <i name="e_0_energy">   -278.20150539 </i>
   </energy>
  </scstep>
  <scstep>
   <time name="dav">    4.34    4.38</time>
   <time name="total">    4.73    4.78</time>
   <energy>
    <i name="e_fr_energy">   -278.20821414 </i>
    <i name="e_wo_entrp">   -278.19473694 </i>
    <i name="e_0_energy">   -278.20147554 </i>
   </energy>
  </scstep>
  <scstep>
   <time name="dav">    5.03    5.08</time>
   <time name="total">    5.29    5.35</time>
   <energy>
    <i name="e_fr_energy">   -278.20826788 </i>
    <i name="e_wo_entrp">   -278.19479218 </i>
    <i name="e_0_energy">   -278.20153003 </i>
   </energy>
  </scstep>
  <scstep>
   <time name="dav">    3.70    3.75</time>
   <time name="total">    3.96    4.01</time>
   <energy>
    <i name="e_fr_energy">   -278.20828733 </i>
    <i name="e_wo_entrp">   -278.19481194 </i>
    <i name="e_0_energy">   -278.20154964 </i>
   </energy>
  </scstep>
  <scstep>
   <time name="dav">    3.99    4.02</time>
   <time name="total">    4.24    4.28</time>
   <energy>
    <i name="e_fr_energy">   -278.20826657 </i>
    <i name="e_wo_entrp">   -278.19480169 </i>
    <i name="e_0_energy">   -278.20153413 </i>
   </energy>
  </scstep>
  <scstep>
   <time name="dav">    3.56    3.59</time>
   <time name="total">    3.92    3.96</time>
   <energy>
    <i name="alphaZ">     87.47481167 </i>
    <i name="ewald">  -6012.75406519 </i>
    <i name="hartreedc">   -404.24152433 </i>
    <i name="XCdc">   -476.13784216 </i>
    <i name="pawpsdc">  22073.17143181 </i>
    <i name="pawaedc"> -21146.37108857 </i>
    <i name="eentropy">     -0.01346674 </i>
    <i name="bandstr">    138.14061037 </i>
    <i name="atom">   5462.52286525 </i>
    <i name="e_fr_energy">   -278.20826790 </i>
    <i name="e_wo_entrp">   -278.19480116 </i>
    <i name="e_0_energy">   -278.20153453 </i>
   </energy>
  </scstep>
  <structure>
   <crystal>
    <varray name="basis" >
     <v>       9.97646553       0.00000000       5.75991507 </v>
     <v>       3.32548851       9.40590192       5.75991507 </v>
     <v>       0.00000000       0.00000000      11.51983014 </v>
    </varray>
    <i name="volume">   1080.99386112 </i>
    <varray name="rec_basis" >
     <v>       0.10023590      -0.03543874       0.00000000 </v>
     <v>       0.00000000       0.10631623       0.00000000 </v>
     <v>      -0.05011795      -0.03543874       0.08680684 </v>
    </varray>
   </crystal>
   <varray name="positions" >
    <v>       0.29329059       0.29329059       0.61798241 </v>
    <v>       0.29329059       0.29329059       0.96210309 </v>
    <v>       0.29329059       0.61798241       0.29329059 </v>
    <v>       0.29235089       0.62477193       0.62477193 </v>
    <v>       0.29329059       0.61798241       0.96210309 </v>
    <v>       0.29329059       0.96210309       0.29329059 </v>
    <v>       0.29329059       0.96210309       0.61798241 </v>
    <v>       0.29164042       0.95834208       0.95834208 </v>
    <v>       0.61798241       0.29329059       0.29329059 </v>
    <v>       0.62477193       0.29235089       0.62477193 </v>
    <v>       0.61798241       0.29329059       0.96210309 </v>
    <v>       0.62477193       0.62477193       0.29235089 </v>
    <v>       0.62477193       0.62477193       0.62477193 </v>
    <v>       0.62426732       0.62426732       0.95906601 </v>
    <v>       0.61798241       0.96210309       0.29329059 </v>
    <v>       0.62426732       0.95906601       0.62426732 </v>
    <v>       0.62426732       0.95906601       0.95906601 </v>
    <v>       0.96210309       0.29329059       0.29329059 </v>
    <v>       0.96210309       0.29329059       0.61798241 </v>
    <v>       0.95834208       0.29164042       0.95834208 </v>
    <v>       0.96210309       0.61798241       0.29329059 </v>
    <v>       0.95906601       0.62426732       0.62426732 </v>
    <v>       0.95906601       0.62426732       0.95906601 </v>
    <v>       0.95834208       0.95834208       0.29164042 </v>
    <v>       0.95906601       0.95906601       0.62426732 </v>
    <v>       0.95834208       0.95834208       0.95834208 </v>
    <v>       0.04166667       0.04166667       0.04166667 </v>
    <v>       0.04311700       0.04311700       0.37373003 </v>
    <v>       0.04311700       0.04311700       0.70670264 </v>
    <v>       0.04311700       0.37373003       0.04311700 </v>
    <v>       0.06408694       0.36752658       0.36752658 </v>
    <v>       0.04311700       0.37373003       0.70670264 </v>
    <v>       0.04311700       0.70670264       0.04311700 </v>
    <v>       0.04311700       0.70670264       0.37373003 </v>
    <v>       0.04153590       0.70837692       0.70837692 </v>
    <v>       0.37373003       0.04311700       0.04311700 </v>
    <v>       0.36752658       0.06408694       0.36752658 </v>
    <v>       0.37373003       0.04311700       0.70670264 </v>
    <v>       0.36752658       0.36752658       0.06408694 </v>
    <v>       0.36752658       0.36752658       0.36752658 </v>
    <v>       0.37405457       0.37405457       0.70927877 </v>
    <v>       0.37373003       0.70670264       0.04311700 </v>
    <v>       0.37405457       0.70927877       0.37405457 </v>
    <v>       0.37405457       0.70927877       0.70927877 </v>
    <v>       0.70670264       0.04311700       0.04311700 </v>
    <v>       0.70670264       0.04311700       0.37373003 </v>
    <v>       0.70837692       0.04153590       0.70837692 </v>
    <v>       0.70670264       0.37373003       0.04311700 </v>
    <v>       0.70927877       0.37405457       0.37405457 </v>
    <v>       0.70927877       0.37405457       0.70927877 </v>
    <v>       0.70837692       0.70837692       0.04153590 </v>
    <v>       0.70927877       0.70927877       0.37405457 </v>
    <v>       0.70837692       0.70837692       0.70837692 </v>
   </varray>
  </structure>
  <varray name="forces" >
   <v>      -0.02415890      -0.01708292       0.05311491 </v>
   <v>      -0.02415890      -0.01708292      -0.05311491 </v>
   <v>       0.00325350       0.06045106       0.00563524 </v>
   <v>      -0.00764062       0.00270137      -0.00000000 </v>
   <v>       0.00325350       0.06045106      -0.00563524 </v>
   <v>      -0.02741240      -0.02628522      -0.04747968 </v>
   <v>      -0.02741240      -0.02628522       0.04747968 </v>
   <v>       0.07364688      -0.02603811      -0.00000000 </v>
   <v>       0.05807831      -0.01708292       0.00563524 </v>
   <v>       0.00000000      -0.00810410      -0.00000000 </v>
   <v>       0.05807831      -0.01708292      -0.00563524 </v>
   <v>       0.00382031       0.00270137      -0.00661697 </v>
   <v>       0.00382031       0.00270137       0.00661697 </v>
   <v>       0.01602801       0.01133351      -0.00000000 </v>
   <v>       0.05482481      -0.02628522      -0.00000000 </v>
   <v>       0.00801400      -0.01133351       0.01388066 </v>
   <v>       0.00801400      -0.01133351      -0.01388066 </v>
   <v>      -0.03391941      -0.01708292      -0.04747968 </v>
   <v>      -0.03391941      -0.01708292       0.04747968 </v>
   <v>      -0.00000000       0.07811432      -0.00000000 </v>
   <v>      -0.00650701       0.06045106      -0.00000000 </v>
   <v>      -0.00801400       0.01133351       0.01388066 </v>
   <v>      -0.00801400       0.01133351      -0.01388066 </v>
   <v>      -0.03682344      -0.02603811       0.06378007 </v>
   <v>      -0.01602801      -0.01133351      -0.00000000 </v>
   <v>      -0.03682344      -0.02603811      -0.06378007 </v>
   <v>       0.00000000      -0.00000000      -0.00000000 </v>
   <v>      -0.07563988      -0.05348547      -0.06480109 </v>
   <v>      -0.07563988      -0.05348547       0.06480109 </v>
   <v>      -0.05652640       0.00057560      -0.09790660 </v>
   <v>       0.20722419      -0.07326481       0.00000000 </v>
   <v>      -0.05652640       0.00057560       0.09790660 </v>
   <v>      -0.01911347       0.10639534      -0.03310551 </v>
   <v>      -0.01911347       0.10639534       0.03310551 </v>
   <v>       0.01665219      -0.00588744      -0.00000000 </v>
   <v>      -0.01829945      -0.05348547      -0.09790660 </v>
   <v>       0.00000000       0.21979444       0.00000000 </v>
   <v>      -0.01829945      -0.05348547       0.09790660 </v>
   <v>      -0.10361209      -0.07326481       0.17946141 </v>
   <v>      -0.10361209      -0.07326481      -0.17946141 </v>
   <v>       0.05838346       0.04128334      -0.00000000 </v>
   <v>       0.03822695       0.10639534      -0.00000000 </v>
   <v>       0.02919173      -0.04128334       0.05056156 </v>
   <v>       0.02919173      -0.04128334      -0.05056156 </v>
   <v>       0.09393933      -0.05348547      -0.03310551 </v>
   <v>       0.09393933      -0.05348547       0.03310551 </v>
   <v>       0.00000000       0.01766232      -0.00000000 </v>
   <v>       0.11305280       0.00057560      -0.00000000 </v>
   <v>      -0.02919173       0.04128334       0.05056156 </v>
   <v>      -0.02919173       0.04128334      -0.05056156 </v>
   <v>      -0.00832610      -0.00588744       0.01442122 </v>
   <v>      -0.05838346      -0.04128334      -0.00000000 </v>
   <v>      -0.00832610      -0.00588744      -0.01442122 </v>
  </varray>
  <varray name="stress" >
   <v>      20.35366266       0.00000000      -0.00000000 </v>
   <v>       0.00000000      20.35366273       0.00000000 </v>
   <v>       0.00000000       0.00000000      20.35366274 </v>
  </varray>
  <energy>
   <i name="e_fr_energy">   -278.20826790 </i>
   <i name="e_wo_entrp">   -278.20153453 </i>
   <i name="e_0_energy">     -0.01346674 </i>
  </energy>
  <time name="totalsc">   59.97   60.70</time>
[...]
        <r>  0.0008  0.0030  0.0000 </r>
        <r>  0.0034  0.0030  0.0000 </r>
        <r>  0.0013  0.0013  0.0000 </r>
        <r>  0.0008  0.0030  0.0000 </r>
        <r>  0.0032  0.0022  0.0000 </r>
        <r>  0.0000  0.0017  0.0000 </r>
        <r>  0.0013  0.0013  0.0000 </r>
        <r>  0.0032  0.0022  0.0000 </r>
        <r>  0.0013  0.0013  0.0000 </r>
       </set>
       <set comment="band 138">
        <r>  0.0003  0.0021  0.0000 </r>
        <r>  0.0003  0.0021  0.0000 </r>
        <r>  0.0002  0.0041  0.0000 </r>
        <r>  0.0016  0.0030  0.0000 </r>
        <r>  0.0003  0.0021  0.0000 </r>
        <r>  0.0002  0.0041  0.0000 </r>
        <r>  0.0003  0.0021  0.0000 </r>
        <r>  0.0005  0.0023  0.0000 </r>
        <r>  0.0003  0.0021  0.0000 </r>
        <r>  0.0016  0.0030  0.0000 </r>
        <r>  0.0002  0.0041  0.0000 </r>
        <r>  0.0016  0.0030  0.0000 </r>
        <r>  0.0016  0.0030  0.0000 </r>
        <r>  0.0016  0.0062  0.0000 </r>
        <r>  0.0003  0.0021  0.0000 </r>
        <r>  0.0000  0.0014  0.0000 </r>
        <r>  0.0016  0.0062  0.0000 </r>
        <r>  0.0003  0.0021  0.0000 </r>
        <r>  0.0002  0.0041  0.0000 </r>
        <r>  0.0005  0.0023  0.0000 </r>
        <r>  0.0003  0.0021  0.0000 </r>
        <r>  0.0016  0.0062  0.0000 </r>
        <r>  0.0000  0.0014  0.0000 </r>
        <r>  0.0005  0.0023  0.0000 </r>
        <r>  0.0016  0.0062  0.0000 </r>
        <r>  0.0005  0.0023  0.0000 </r>
        <r>  0.0000  0.0000  0.0000 </r>
        <r>  0.0020  0.0030  0.0000 </r>
        <r>  0.0020  0.0030  0.0000 </r>
        <r>  0.0000  0.0014  0.0000 </r>
        <r>  0.0003  0.0016  0.0000 </r>
        <r>  0.0020  0.0030  0.0000 </r>
        <r>  0.0000  0.0014  0.0000 </r>
        <r>  0.0020  0.0030  0.0000 </r>
        <r>  0.0007  0.0051  0.0000 </r>
        <r>  0.0020  0.0030  0.0000 </r>
        <r>  0.0003  0.0016  0.0000 </r>
        <r>  0.0000  0.0014  0.0000 </r>
        <r>  0.0003  0.0016  0.0000 </r>
        <r>  0.0003  0.0016  0.0000 </r>
        <r>  0.0000  0.0055  0.0000 </r>
        <r>  0.0020  0.0030  0.0000 </r>
        <r>  0.0001  0.0001  0.0000 </r>
        <r>  0.0000  0.0055  0.0000 </r>
        <r>  0.0020  0.0030  0.0000 </r>
        <r>  0.0000  0.0014  0.0000 </r>
        <r>  0.0007  0.0051  0.0000 </r>
        <r>  0.0020  0.0030  0.0000 </r>
        <r>  0.0000  0.0055  0.0000 </r>
        <r>  0.0001  0.0001  0.0000 </r>
        <r>  0.0007  0.0051  0.0000 </r>
        <r>  0.0000  0.0055  0.0000 </r>
        <r>  0.0007  0.0051  0.0000 </r>
       </set>
       <set comment="band 139">
        <r>  0.0001  0.0030  0.0000 </r>
        <r>  0.0001  0.0030  0.0000 </r>
        <r>  0.0000  0.0037  0.0000 </r>
        <r>  0.0003  0.0069  0.0000 </r>
        <r>  0.0001  0.0030  0.0000 </r>
        <r>  0.0000  0.0037  0.0000 </r>
        <r>  0.0001  0.0030  0.0000 </r>
        <r>  0.0011  0.0052  0.0000 </r>
        <r>  0.0001  0.0030  0.0000 </r>
        <r>  0.0003  0.0069  0.0000 </r>
        <r>  0.0000  0.0037  0.0000 </r>
        <r>  0.0003  0.0069  0.0000 </r>
        <r>  0.0003  0.0069  0.0000 </r>
        <r>  0.0005  0.0030  0.0000 </r>
        <r>  0.0001  0.0030  0.0000 </r>
        <r>  0.0000  0.0000  0.0000 </r>
        <r>  0.0005  0.0030  0.0000 </r>
        <r>  0.0001  0.0030  0.0000 </r>
        <r>  0.0000  0.0037  0.0000 </r>
        <r>  0.0011  0.0052  0.0000 </r>
        <r>  0.0001  0.0030  0.0000 </r>
        <r>  0.0005  0.0030  0.0000 </r>
        <r>  0.0000  0.0000  0.0000 </r>
        <r>  0.0011  0.0052  0.0000 </r>
        <r>  0.0005  0.0030  0.0000 </r>
        <r>  0.0011  0.0052  0.0000 </r>
        <r>  0.0000  0.0004  0.0000 </r>
        <r>  0.0003  0.0039  0.0000 </r>
        <r>  0.0003  0.0039  0.0000 </r>
        <r>  0.0002  0.0040  0.0000 </r>
        <r>  0.0005  0.0022  0.0000 </r>
        <r>  0.0003  0.0039  0.0000 </r>
        <r>  0.0002  0.0040  0.0000 </r>
        <r>  0.0003  0.0039  0.0000 </r>
        <r>  0.0004  0.0010  0.0000 </r>
        <r>  0.0003  0.0039  0.0000 </r>
        <r>  0.0005  0.0022  0.0000 </r>
        <r>  0.0002  0.0040  0.0000 </r>
        <r>  0.0005  0.0022  0.0000 </r>
        <r>  0.0005  0.0022  0.0000 </r>
        <r>  0.0027  0.0028  0.0000 </r>
        <r>  0.0003  0.0039  0.0000 </r>
        <r>  0.0000  0.0007  0.0000 </r>
        <r>  0.0027  0.0028  0.0000 </r>
        <r>  0.0003  0.0039  0.0000 </r>
        <r>  0.0002  0.0040  0.0000 </r>
        <r>  0.0004  0.0010  0.0000 </r>
        <r>  0.0003  0.0039  0.0000 </r>
        <r>  0.0027  0.0028  0.0000 </r>
        <r>  0.0000  0.0007  0.0000 </r>
        <r>  0.0004  0.0010  0.0000 </r>
        <r>  0.0027  0.0028  0.0000 </r>
        <r>  0.0004  0.0010  0.0000 </r>
       </set>
       <set comment="band 140">
        <r>  0.0031  0.0014  0.0000 </r>
        <r>  0.0031  0.0014  0.0000 </r>
        <r>  0.0000  0.0008  0.0000 </r>
        <r>  0.0013  0.0052  0.0000 </r>
        <r>  0.0031  0.0014  0.0000 </r>
        <r>  0.0000  0.0008  0.0000 </r>
        <r>  0.0031  0.0014  0.0000 </r>
        <r>  0.0017  0.0038  0.0000 </r>
        <r>  0.0031  0.0014  0.0000 </r>
        <r>  0.0013  0.0052  0.0000 </r>
        <r>  0.0000  0.0008  0.0000 </r>
        <r>  0.0013  0.0052  0.0000 </r>
        <r>  0.0013  0.0052  0.0000 </r>
        <r>  0.0002  0.0030  0.0000 </r>
        <r>  0.0031  0.0014  0.0000 </r>
        <r>  0.0014  0.0002  0.0000 </r>
        <r>  0.0002  0.0030  0.0000 </r>
        <r>  0.0031  0.0014  0.0000 </r>
        <r>  0.0000  0.0008  0.0000 </r>
        <r>  0.0017  0.0038  0.0000 </r>
        <r>  0.0031  0.0014  0.0000 </r>
        <r>  0.0002  0.0030  0.0000 </r>
        <r>  0.0014  0.0002  0.0000 </r>
        <r>  0.0017  0.0038  0.0000 </r>
        <r>  0.0002  0.0030  0.0000 </r>
        <r>  0.0017  0.0038  0.0000 </r>
        <r>  0.0000  0.0002  0.0000 </r>
        <r>  0.0003  0.0018  0.0000 </r>
        <r>  0.0003  0.0018  0.0000 </r>
        <r>  0.0006  0.0054  0.0000 </r>
        <r>  0.0004  0.0040  0.0000 </r>
        <r>  0.0003  0.0018  0.0000 </r>
        <r>  0.0006  0.0054  0.0000 </r>
        <r>  0.0003  0.0018  0.0000 </r>
        <r>  0.0017  0.0026  0.0000 </r>
        <r>  0.0003  0.0018  0.0000 </r>
        <r>  0.0004  0.0040  0.0000 </r>
        <r>  0.0006  0.0054  0.0000 </r>
        <r>  0.0004  0.0040  0.0000 </r>
        <r>  0.0004  0.0040  0.0000 </r>
        <r>  0.0001  0.0068  0.0000 </r>
        <r>  0.0003  0.0018  0.0000 </r>
        <r>  0.0000  0.0015  0.0000 </r>
        <r>  0.0001  0.0068  0.0000 </r>
        <r>  0.0003  0.0018  0.0000 </r>
        <r>  0.0006  0.0054  0.0000 </r>
        <r>  0.0017  0.0026  0.0000 </r>
        <r>  0.0003  0.0018  0.0000 </r>
        <r>  0.0001  0.0068  0.0000 </r>
        <r>  0.0000  0.0015  0.0000 </r>
        <r>  0.0017  0.0026  0.0000 </r>
        <r>  0.0001  0.0068  0.0000 </r>
        <r>  0.0017  0.0026  0.0000 </r>
       </set>
       <set comment="band 141">
        <r>  0.0001  0.0081  0.0000 </r>
        <r>  0.0001  0.0081  0.0000 </r>
        <r>  0.0009  0.0029  0.0000 </r>
        <r>  0.0007  0.0027  0.0000 </r>
        <r>  0.0001  0.0081  0.0000 </r>
        <r>  0.0009  0.0029  0.0000 </r>
        <r>  0.0001  0.0081  0.0000 </r>
        <r>  0.0015  0.0031  0.0000 </r>
        <r>  0.0001  0.0081  0.0000 </r>
        <r>  0.0007  0.0027  0.0000 </r>
        <r>  0.0009  0.0029  0.0000 </r>
        <r>  0.0007  0.0027  0.0000 </r>
        <r>  0.0007  0.0027  0.0000 </r>
        <r>  0.0003  0.0080  0.0000 </r>
        <r>  0.0001  0.0081  0.0000 </r>
        <r>  0.0000  0.0005  0.0000 </r>
        <r>  0.0003  0.0080  0.0000 </r>
        <r>  0.0001  0.0081  0.0000 </r>
        <r>  0.0009  0.0029  0.0000 </r>
        <r>  0.0015  0.0031  0.0000 </r>
        <r>  0.0001  0.0081  0.0000 </r>
        <r>  0.0003  0.0080  0.0000 </r>
        <r>  0.0000  0.0005  0.0000 </r>
        <r>  0.0015  0.0031  0.0000 </r>
        <r>  0.0003  0.0080  0.0000 </r>
        <r>  0.0015  0.0031  0.0000 </r>
        <r>  0.0039  0.0000  0.0000 </r>
        <r>  0.0002  0.0067  0.0000 </r>
        <r>  0.0002  0.0067  0.0000 </r>
        <r>  0.0007  0.0015  0.0000 </r>
        <r>  0.0005  0.0030  0.0000 </r>
        <r>  0.0002  0.0067  0.0000 </r>
        <r>  0.0007  0.0015  0.0000 </r>
        <r>  0.0002  0.0067  0.0000 </r>
        <r>  0.0010  0.0026  0.0000 </r>
        <r>  0.0002  0.0067  0.0000 </r>
        <r>  0.0005  0.0030  0.0000 </r>
        <r>  0.0007  0.0015  0.0000 </r>
        <r>  0.0005  0.0030  0.0000 </r>
        <r>  0.0005  0.0030  0.0000 </r>
        <r>  0.0002  0.0062  0.0000 </r>
        <r>  0.0002  0.0067  0.0000 </r>
        <r>  0.0046  0.0000  0.0000 </r>
        <r>  0.0002  0.0062  0.0000 </r>
        <r>  0.0002  0.0067  0.0000 </r>
        <r>  0.0007  0.0015  0.0000 </r>
        <r>  0.0010  0.0026  0.0000 </r>
        <r>  0.0002  0.0067  0.0000 </r>
        <r>  0.0002  0.0062  0.0000 </r>
        <r>  0.0046  0.0000  0.0000 </r>
        <r>  0.0010  0.0026  0.0000 </r>
        <r>  0.0002  0.0062  0.0000 </r>
        <r>  0.0010  0.0026  0.0000 </r>
       </set>
       <set comment="band 142">
        <r>  0.0014  0.0014  0.0000 </r>
        <r>  0.0014  0.0014  0.0000 </r>
        <r>  0.0020  0.0013  0.0000 </r>
        <r>  0.0058  0.0018  0.0000 </r>
        <r>  0.0014  0.0014  0.0000 </r>
        <r>  0.0020  0.0013  0.0000 </r>
        <r>  0.0014  0.0014  0.0000 </r>
        <r>  0.0029  0.0015  0.0000 </r>
        <r>  0.0014  0.0014  0.0000 </r>
        <r>  0.0058  0.0018  0.0000 </r>
        <r>  0.0020  0.0013  0.0000 </r>
        <r>  0.0058  0.0018  0.0000 </r>
        <r>  0.0058  0.0018  0.0000 </r>
        <r>  0.0018  0.0016  0.0000 </r>
        <r>  0.0014  0.0014  0.0000 </r>
        <r>  0.0000  0.0030  0.0000 </r>
        <r>  0.0018  0.0016  0.0000 </r>
        <r>  0.0014  0.0014  0.0000 </r>
        <r>  0.0020  0.0013  0.0000 </r>
        <r>  0.0029  0.0015  0.0000 </r>
        <r>  0.0014  0.0014  0.0000 </r>
        <r>  0.0018  0.0016  0.0000 </r>
        <r>  0.0000  0.0030  0.0000 </r>
        <r>  0.0029  0.0015  0.0000 </r>
        <r>  0.0018  0.0016  0.0000 </r>
        <r>  0.0029  0.0015  0.0000 </r>
        <r>  0.0000  0.0123  0.0000 </r>
        <r>  0.0000  0.0044  0.0000 </r>
        <r>  0.0000  0.0044  0.0000 </r>
        <r>  0.0000  0.0075  0.0000 </r>
        <r>  0.0000  0.0071  0.0000 </r>
        <r>  0.0000  0.0044  0.0000 </r>
        <r>  0.0000  0.0075  0.0000 </r>
        <r>  0.0000  0.0044  0.0000 </r>
        <r>  0.0002  0.0120  0.0000 </r>
        <r>  0.0000  0.0044  0.0000 </r>
        <r>  0.0000  0.0071  0.0000 </r>
        <r>  0.0000  0.0075  0.0000 </r>
        <r>  0.0000  0.0071  0.0000 </r>
        <r>  0.0000  0.0071  0.0000 </r>
        <r>  0.0001  0.0030  0.0000 </r>
        <r>  0.0000  0.0044  0.0000 </r>
        <r>  0.0003  0.0098  0.0000 </r>
        <r>  0.0001  0.0030  0.0000 </r>
        <r>  0.0000  0.0044  0.0000 </r>
        <r>  0.0000  0.0075  0.0000 </r>
        <r>  0.0002  0.0120  0.0000 </r>
        <r>  0.0000  0.0044  0.0000 </r>
        <r>  0.0001  0.0030  0.0000 </r>
        <r>  0.0003  0.0098  0.0000 </r>
        <r>  0.0002  0.0120  0.0000 </r>
        <r>  0.0001  0.0030  0.0000 </r>
        <r>  0.0002  0.0120  0.0000 </r>
       </set>
       <set comment="band 143">
        <r>  0.0006  0.0060  0.0000 </r>
        <r>  0.0006  0.0060  0.0000 </r>
        <r>  0.0001  0.0068  0.0000 </r>
        <r>  0.0000  0.0051  0.0000 </r>
        <r>  0.0006  0.0060  0.0000 </r>
        <r>  0.0001  0.0068  0.0000 </r>
        <r>  0.0006  0.0060  0.0000 </r>
        <r>  0.0000  0.0100  0.0000 </r>
        <r>  0.0006  0.0060  0.0000 </r>
        <r>  0.0000  0.0051  0.0000 </r>
        <r>  0.0001  0.0068  0.0000 </r>
        <r>  0.0000  0.0051  0.0000 </r>
        <r>  0.0000  0.0051  0.0000 </r>
        <r>  0.0000  0.0090  0.0000 </r>
        <r>  0.0006  0.0060  0.0000 </r>
        <r>  0.0001  0.0001  0.0000 </r>
        <r>  0.0000  0.0090  0.0000 </r>
        <r>  0.0006  0.0060  0.0000 </r>
        <r>  0.0001  0.0068  0.0000 </r>
        <r>  0.0000  0.0100  0.0000 </r>
        <r>  0.0006  0.0060  0.0000 </r>
        <r>  0.0000  0.0090  0.0000 </r>
        <r>  0.0001  0.0001  0.0000 </r>
        <r>  0.0000  0.0100  0.0000 </r>
        <r>  0.0000  0.0090  0.0000 </r>
        <r>  0.0000  0.0100  0.0000 </r>
        <r>  0.0000  0.0012  0.0000 </r>
        <r>  0.0021  0.0030  0.0000 </r>
        <r>  0.0021  0.0030  0.0000 </r>
        <r>  0.0016  0.0013  0.0000 </r>
        <r>  0.0035  0.0031  0.0000 </r>
        <r>  0.0021  0.0030  0.0000 </r>
        <r>  0.0016  0.0013  0.0000 </r>
        <r>  0.0021  0.0030  0.0000 </r>
        <r>  0.0024  0.0017  0.0000 </r>
        <r>  0.0021  0.0030  0.0000 </r>
        <r>  0.0035  0.0031  0.0000 </r>
        <r>  0.0016  0.0013  0.0000 </r>
        <r>  0.0035  0.0031  0.0000 </r>
        <r>  0.0035  0.0031  0.0000 </r>
        <r>  0.0020  0.0005  0.0000 </r>
        <r>  0.0021  0.0030  0.0000 </r>
        <r>  0.0000  0.0004  0.0000 </r>
        <r>  0.0020  0.0005  0.0000 </r>
        <r>  0.0021  0.0030  0.0000 </r>
        <r>  0.0016  0.0013  0.0000 </r>
        <r>  0.0024  0.0017  0.0000 </r>
        <r>  0.0021  0.0030  0.0000 </r>
        <r>  0.0020  0.0005  0.0000 </r>
        <r>  0.0000  0.0004  0.0000 </r>
        <r>  0.0024  0.0017  0.0000 </r>
        <r>  0.0020  0.0005  0.0000 </r>
        <r>  0.0024  0.0017  0.0000 </r>
       </set>
       <set comment="band 144">
        <r>  0.0052  0.0009  0.0000 </r>
        <r>  0.0052  0.0009  0.0000 </r>
        <r>  0.0002  0.0016  0.0000 </r>
        <r>  0.0000  0.0013  0.0000 </r>
        <r>  0.0052  0.0009  0.0000 </r>
        <r>  0.0002  0.0016  0.0000 </r>
        <r>  0.0052  0.0009  0.0000 </r>
        <r>  0.0001  0.0008  0.0000 </r>
        <r>  0.0052  0.0009  0.0000 </r>
        <r>  0.0000  0.0013  0.0000 </r>
        <r>  0.0002  0.0016  0.0000 </r>
        <r>  0.0000  0.0013  0.0000 </r>
        <r>  0.0000  0.0013  0.0000 </r>
        <r>  0.0068  0.0008  0.0000 </r>
        <r>  0.0052  0.0009  0.0000 </r>
        <r>  0.0004  0.0033  0.0000 </r>
        <r>  0.0068  0.0008  0.0000 </r>
        <r>  0.0052  0.0009  0.0000 </r>
        <r>  0.0002  0.0016  0.0000 </r>
        <r>  0.0001  0.0008  0.0000 </r>
        <r>  0.0052  0.0009  0.0000 </r>
        <r>  0.0068  0.0008  0.0000 </r>
        <r>  0.0004  0.0033  0.0000 </r>
        <r>  0.0001  0.0008  0.0000 </r>
        <r>  0.0068  0.0008  0.0000 </r>
        <r>  0.0001  0.0008  0.0000 </r>
        <r>  0.0000  0.0246  0.0000 </r>
        <r>  0.0003  0.0035  0.0000 </r>
        <r>  0.0003  0.0035  0.0000 </r>
        <r>  0.0003  0.0087  0.0000 </r>
        <r>  0.0001  0.0050  0.0000 </r>
        <r>  0.0003  0.0035  0.0000 </r>
        <r>  0.0003  0.0087  0.0000 </r>
        <r>  0.0003  0.0035  0.0000 </r>
        <r>  0.0003  0.0083  0.0000 </r>
        <r>  0.0003  0.0035  0.0000 </r>
        <r>  0.0001  0.0050  0.0000 </r>
        <r>  0.0003  0.0087  0.0000 </r>
        <r>  0.0001  0.0050  0.0000 </r>
        <r>  0.0001  0.0050  0.0000 </r>
        <r>  0.0002  0.0040  0.0000 </r>
        <r>  0.0003  0.0035  0.0000 </r>
        <r>  0.0000  0.0174  0.0000 </r>
        <r>  0.0002  0.0040  0.0000 </r>
        <r>  0.0003  0.0035  0.0000 </r>
        <r>  0.0003  0.0087  0.0000 </r>
        <r>  0.0003  0.0083  0.0000 </r>
        <r>  0.0003  0.0035  0.0000 </r>
        <r>  0.0002  0.0040  0.0000 </r>
        <r>  0.0000  0.0174  0.0000 </r>
        <r>  0.0003  0.0083  0.0000 </r>
        <r>  0.0002  0.0040  0.0000 </r>
        <r>  0.0003  0.0083  0.0000 </r>
       </set>
      </set>
     </set>
    </set>
   </array>
  </projected>
 </calculation>
 <structure name="finalpos" >
  <crystal>
   <varray name="basis" >
    <v>       9.97646553       0.00000000       5.75991507 </v>
    <v>       3.32548851       9.40590192       5.75991507 </v>
    <v>       0.00000000       0.00000000      11.51983014 </v>
   </varray>
   <i name="volume">   1080.99386112 </i>
   <varray name="rec_basis" >
    <v>       0.10023590      -0.03543874       0.00000000 </v>
    <v>       0.00000000       0.10631623       0.00000000 </v>
    <v>      -0.05011795      -0.03543874       0.08680684 </v>
   </varray>
  </crystal>
  <varray name="positions" >
   <v>       0.29331740       0.29331740       0.61743934 </v>
   <v>       0.29331740       0.29331740       0.96259254 </v>
   <v>       0.29331740       0.61743934       0.29331740 </v>
   <v>       0.29236504       0.62476721       0.62476721 </v>
   <v>       0.29331740       0.61743934       0.96259254 </v>
   <v>       0.29331740       0.96259254       0.29331740 </v>
   <v>       0.29331740       0.96259254       0.61743934 </v>
   <v>       0.29234781       0.95810629       0.95810629 </v>
   <v>       0.61743934       0.29331740       0.29331740 </v>
   <v>       0.62476721       0.29236504       0.62476721 </v>
   <v>       0.61743934       0.29331740       0.96259254 </v>
   <v>       0.62476721       0.62476721       0.29236504 </v>
   <v>       0.62476721       0.62476721       0.62476721 </v>
   <v>       0.62423057       0.62423057       0.95910277 </v>
   <v>       0.61743934       0.96259254       0.29331740 </v>
   <v>       0.62423057       0.95910277       0.62423057 </v>
   <v>       0.62423057       0.95910277       0.95910277 </v>
   <v>       0.96259254       0.29331740       0.29331740 </v>
   <v>       0.96259254       0.29331740       0.61743934 </v>
   <v>       0.95810629       0.29234781       0.95810629 </v>
   <v>       0.96259254       0.61743934       0.29331740 </v>
   <v>       0.95910277       0.62423057       0.62423057 </v>
   <v>       0.95910277       0.62423057       0.95910277 </v>
   <v>       0.95810629       0.95810629       0.29234781 </v>
   <v>       0.95910277       0.95910277       0.62423057 </v>
   <v>       0.95810629       0.95810629       0.95810629 </v>
   <v>       0.04166667       0.04166667       0.04166667 </v>
   <v>       0.04288781       0.04288781       0.37353338 </v>
   <v>       0.04288781       0.04288781       0.70735767 </v>
   <v>       0.04288781       0.37353338       0.04288781 </v>
   <v>       0.07212536       0.36484710       0.36484710 </v>
   <v>       0.04288781       0.37353338       0.70735767 </v>
   <v>       0.04288781       0.70735767       0.04288781 </v>
   <v>       0.04288781       0.70735767       0.37353338 </v>
   <v>       0.04179349       0.70829106       0.70829106 </v>
   <v>       0.37353338       0.04288781       0.04288781 </v>
   <v>       0.36484710       0.07212536       0.36484710 </v>
   <v>       0.37353338       0.04288781       0.70735767 </v>
   <v>       0.36484710       0.36484710       0.07212536 </v>
   <v>       0.36484710       0.36484710       0.36484710 </v>
   <v>       0.37437580       0.37437580       0.70895754 </v>
   <v>       0.37353338       0.70735767       0.04288781 </v>
   <v>       0.37437580       0.70895754       0.37437580 </v>
   <v>       0.37437580       0.70895754       0.70895754 </v>
   <v>       0.70735767       0.04288781       0.04288781 </v>
   <v>       0.70735767       0.04288781       0.37353338 </v>
   <v>       0.70829106       0.04179349       0.70829106 </v>
   <v>       0.70735767       0.37353338       0.04288781 </v>
   <v>       0.70895754       0.37437580       0.37437580 </v>
   <v>       0.70895754       0.37437580       0.70895754 </v>
   <v>       0.70829106       0.70829106       0.04179349 </v>
   <v>       0.70895754       0.70895754       0.37437580 </v>
   <v>       0.70829106       0.70829106       0.70829106 </v>
  </varray>
 </structure>
</modeling>
