 vasp.6.3.0 20Jan22 (build Mar 07 2022 09:35:52) complex                        
  
 executed on             LinuxIFC date 2025.06.26  16:12:39
 running on   96 total cores
 distrk:  each k-point on   96 cores,    1 groups
 distr:  one band on NCORE=   1 cores,   96 groups


--------------------------------------------------------------------------------------------------------


 INCAR:
   ALGO = Normal
   AMIX = 0.2
   EDIFF = 1e-06
   EDIFFG = -0.05
   ENCUT = 550.0
   IBRION = 2
   ISIF = 2
   ISMEAR = 0
   ISPIN = 1
   ISYM = 2
   LCHARG = True
   LORBIT = 11
   LREAL = False
   LVTOT = True
   LWAVE = True
   NELECT = 375.0
   NELM = 200
   NSW = 0
   SIGMA = 0.05
   SYSTEM = SiO2

 POTCAR:    PAW_PBE Si 05Jan2001                  
 POTCAR:    PAW_PBE O 08Apr2002                   
 WARNING: For LVTOT=.TRUE., VASP.5.x writes the TOTAL local potential to the
     file LOCPOT. If you want only the Hartree contributions, use LVHAR=.TRUE.
     instead. 

 -----------------------------------------------------------------------------
|                                                                             |
|           W    W    AA    RRRRR   N    N  II  N    N   GGGG   !!!           |
|           W    W   A  A   R    R  NN   N  II  NN   N  G    G  !!!           |
|           W    W  A    A  R    R  N N  N  II  N N  N  G       !!!           |
|           W WW W  AAAAAA  RRRRR   N  N N  II  N  N N  G  GGG   !            |
|           WW  WW  A    A  R   R   N   NN  II  N   NN  G    G                |
|           W    W  A    A  R    R  N    N  II  N    N   GGGG   !!!           |
|                                                                             |
|     For optimal performance we recommend to set                             |
|       NCORE = 2 up to number-of-cores-per-socket                            |
|     NCORE specifies how many cores store one orbital (NPAR=cpu/NCORE).      |
|     This setting can greatly improve the performance of VASP for DFT.       |
|     The default, NCORE=1 might be grossly inefficient on modern             |
|     multi-core architectures or massively parallel machines. Do your        |
|     own testing! More info at https://www.vasp.at/wiki/index.php/NCORE      |
|     Unfortunately you need to use the default for GW and RPA                |
|     calculations (for HF NCORE is supported but not extensively tested      |
|     yet).                                                                   |
|                                                                             |
 -----------------------------------------------------------------------------

 POTCAR:    PAW_PBE Si 05Jan2001                  
   VRHFIN =Si: s2p2                                                                                 
   LEXCH  = PE                                                                                      
   EATOM  =   103.0669 eV,    7.5752 Ry                                                             
                                                                                                    
   TITEL  = PAW_PBE Si 05Jan2001                                                                    
   LULTRA =        F    use ultrasoft PP ?                                                          
   IUNSCR =        1    unscreen: 0-lin 1-nonlin 2-no                                               
   RPACOR =    1.500    partial core radius                                                         
   POMASS =   28.085; ZVAL   =    4.000    mass and valenz                                          
   RCORE  =    1.900    outmost cutoff radius                                                       
   RWIGS  =    2.480; RWIGS  =    1.312    wigner-seitz radius (au A)                               
   ENMAX  =  245.345; ENMIN  =  184.009 eV                                                          
   ICORE  =        2    local potential                                                             
   LCOR   =        T    correct aug charges                                                         
   LPAW   =        T    paw PP                                                                      
   EAUG   =  322.069                                                                                
   DEXC   =    0.000                                                                                
   RMAX   =    1.950    core radius for proj-oper                                                   
   RAUG   =    1.300    factor for augmentation sphere                                              
   RDEP   =    1.993    radius for radial grids                                                     
   RDEPT  =    1.837    core radius for aug-charge                                                  
                                                                                                    
   Atomic configuration                                                                             
    6 entries                                                                                       
     n  l   j            E        occ.                                                              
     1  0  0.50     -1785.8828   2.0000                                                             
     2  0  0.50      -139.4969   2.0000                                                             
     2  1  1.50       -95.5546   6.0000                                                             
     3  0  0.50       -10.8127   2.0000                                                             
     3  1  0.50        -4.0811   2.0000                                                             
     3  2  1.50        -4.0817   0.0000                                                             
   Description                                                                                      
     l       E           TYP  RCUT    TYP  RCUT                                                     
     0    -10.8127223     23  1.900                                                                 
     0     -7.6451159     23  1.900                                                                 
     1     -4.0811372     23  1.900                                                                 
     1      2.4879257     23  1.900                                                                 
     2     -4.0817478      7  1.900                                                                 
  local pseudopotential read in
  partial core-charges read in
  partial kinetic energy density read in
  atomic valenz-charges read in
  non local Contribution for L=           0  read in
    real space projection operators read in
  non local Contribution for L=           0  read in
    real space projection operators read in
  non local Contribution for L=           1  read in
    real space projection operators read in
  non local Contribution for L=           1  read in
    real space projection operators read in
    PAW grid and wavefunctions read in
 
   number of l-projection  operators is LMAX  =           4
   number of lm-projection operators is LMMAX =           8
 
 POTCAR:    PAW_PBE O 08Apr2002                   
   VRHFIN =O: s2p4                                                                                  
   LEXCH  = PE                                                                                      
   EATOM  =   432.3788 eV,   31.7789 Ry                                                             
                                                                                                    
   TITEL  = PAW_PBE O 08Apr2002                                                                     
   LULTRA =        F    use ultrasoft PP ?                                                          
   IUNSCR =        1    unscreen: 0-lin 1-nonlin 2-no                                               
   RPACOR =    1.200    partial core radius                                                         
   POMASS =   16.000; ZVAL   =    6.000    mass and valenz                                          
   RCORE  =    1.520    outmost cutoff radius                                                       
   RWIGS  =    1.550; RWIGS  =    0.820    wigner-seitz radius (au A)                               
   ENMAX  =  400.000; ENMIN  =  300.000 eV                                                          
   ICORE  =        2    local potential                                                             
   LCOR   =        T    correct aug charges                                                         
   LPAW   =        T    paw PP                                                                      
   EAUG   =  605.392                                                                                
   DEXC   =    0.000                                                                                
   RMAX   =    1.553    core radius for proj-oper                                                   
   RAUG   =    1.300    factor for augmentation sphere                                              
   RDEP   =    1.550    radius for radial grids                                                     
   RDEPT  =    1.329    core radius for aug-charge                                                  
                                                                                                    
   Atomic configuration                                                                             
    4 entries                                                                                       
     n  l   j            E        occ.                                                              
     1  0  0.50      -514.6923   2.0000                                                             
     2  0  0.50       -23.9615   2.0000                                                             
     2  1  0.50        -9.0305   4.0000                                                             
     3  2  1.50        -9.5241   0.0000                                                             
   Description                                                                                      
     l       E           TYP  RCUT    TYP  RCUT                                                     
     0    -23.9615318     23  1.200                                                                 
     0     -9.5240782     23  1.200                                                                 
     1     -9.0304911     23  1.520                                                                 
     1      8.1634956     23  1.520                                                                 
     2     -9.5240782      7  1.500                                                                 
  local pseudopotential read in
  partial core-charges read in
  partial kinetic energy density read in
  kinetic energy density of atom read in
  atomic valenz-charges read in
  non local Contribution for L=           0  read in
    real space projection operators read in
  non local Contribution for L=           0  read in
    real space projection operators read in
  non local Contribution for L=           1  read in
    real space projection operators read in
  non local Contribution for L=           1  read in
    real space projection operators read in
    PAW grid and wavefunctions read in
 
   number of l-projection  operators is LMAX  =           4
   number of lm-projection operators is LMMAX =           8
 
 -----------------------------------------------------------------------------
|                                                                             |
|               ----> ADVICE to this user running VASP <----                  |
|                                                                             |
|     You have a (more or less) 'large supercell' and for larger cells it     |
|     might be more efficient to use real-space projection operators.         |
|     Therefore, try LREAL= Auto in the INCAR file.                           |
|     Mind: For very accurate calculation, you might also keep the            |
|     reciprocal projection scheme (i.e. LREAL=.FALSE.).                      |
|                                                                             |
 -----------------------------------------------------------------------------

  PAW_PBE Si 05Jan2001                  :
 energy of atom  1       EATOM= -103.0669
 kinetic energy error for atom=    0.0004 (will be added to EATOM!!)
  PAW_PBE O 08Apr2002                   :
 energy of atom  2       EATOM= -432.3788
 kinetic energy error for atom=    0.0194 (will be added to EATOM!!)
 
 
 POSCAR: Si23 O47
  positions in direct lattice
  No initial velocities read in
 exchange correlation table for  LEXCH =        8
   RHO(1)=    0.500       N(1)  =     2000
   RHO(2)=  100.500       N(2)  =     4000

 VTST: version 4.2, (08/11/21)

 CHAIN: initializing optimizer
 
 OPT: Using VASP Conjugate-Gradient optimizer
 CHAIN: Read ICHAIN            0
 
 POSCAR: Si23 O47
  positions in direct lattice
  No initial velocities read in
 


--------------------------------------------------------------------------------------------------------


 ion  position               nearest neighbor table
   1  0.266  0.266  0.000-  64 1.61  31 1.61  47 1.62  18 3.06  13 3.06   9 3.06  16 3.06
   2  0.266  0.766  0.000-  66 1.61  33 1.61  49 1.62  26 1.62  15 3.06  16 3.06  11 3.06  18 3.06

   3  0.266  0.766  0.500-  65 1.61  34 1.61  50 1.62  25 1.62  14 3.06  17 3.06  10 3.06  19 3.06

   4  0.766  0.266  0.000-  68 1.61  35 1.61  51 1.62  28 1.62   9 3.06  22 3.06  20 3.06  13 3.06

   5  0.766  0.266  0.500-  67 1.61  36 1.61  52 1.62  27 1.62   8 3.06  23 3.06  21 3.06  12 3.06

   6  0.766  0.766  0.000-  70 1.61  37 1.61  53 1.62  30 1.62  11 3.06  20 3.06  15 3.06  22 3.06

   7  0.766  0.766  0.500-  69 1.61  38 1.61  54 1.62  29 1.62  10 3.06  21 3.06  14 3.06  23 3.06

   8  0.000  0.234  0.333-  24 1.61  59 1.61  39 1.62  67 1.62   5 3.06  18 3.06  20 3.06
   9  0.000  0.234  0.833-  60 1.61  40 1.62  68 1.62   4 3.06   1 3.06  21 3.06  19 3.06
  10  0.000  0.734  0.333-  25 1.61  61 1.61  41 1.62  69 1.62   7 3.06   3 3.06  16 3.06  22 3.06

  11  0.000  0.734  0.833-  26 1.61  62 1.61  42 1.62  70 1.62   6 3.06   2 3.06  17 3.06  23 3.06

  12  0.500  0.234  0.333-  27 1.61  55 1.61  43 1.62  63 1.62   5 3.06  16 3.06  22 3.06
  13  0.500  0.234  0.833-  28 1.61  56 1.61  44 1.62  64 1.62   1 3.06   4 3.06  17 3.06  23 3.06

  14  0.500  0.734  0.333-  29 1.61  57 1.61  45 1.62  65 1.62   3 3.06   7 3.06  18 3.06  20 3.06

  15  0.500  0.734  0.833-  30 1.61  58 1.61  46 1.62  66 1.62   2 3.06   6 3.06  19 3.06  21 3.06

  16  0.234  0.000  0.167-  47 1.61  41 1.61  33 1.62  55 1.62   2 3.06   1 3.06  10 3.06  12 3.06

  17  0.234  0.000  0.667-  48 1.61  42 1.61  34 1.62  56 1.62   3 3.06  11 3.06  13 3.06
  18  0.234  0.500  0.167-  49 1.61  39 1.61  31 1.62  57 1.62   1 3.06   2 3.06   8 3.06  14 3.06

  19  0.234  0.500  0.667-  50 1.61  40 1.61  32 1.62  58 1.62   3 3.06   9 3.06  15 3.06
  20  0.734  0.000  0.167-  51 1.61  45 1.61  37 1.62  59 1.62   6 3.06   4 3.06   8 3.06  14 3.06

  21  0.734  0.000  0.667-  52 1.61  46 1.61  38 1.62  60 1.62   7 3.06   5 3.06   9 3.06  15 3.06

  22  0.734  0.500  0.167-  53 1.61  43 1.61  35 1.62  61 1.62   4 3.06   6 3.06  10 3.06  12 3.06

  23  0.734  0.500  0.667-  54 1.61  44 1.61  36 1.62  62 1.62   5 3.06   7 3.06  11 3.06  13 3.06

  24  0.135  0.207  0.392-   8 1.61
  25  0.135  0.707  0.392-  10 1.61   3 1.62
  26  0.135  0.707  0.892-  11 1.61   2 1.62
  27  0.635  0.207  0.392-  12 1.61   5 1.62
  28  0.635  0.207  0.892-  13 1.61   4 1.62
  29  0.635  0.707  0.392-  14 1.61   7 1.62
  30  0.635  0.707  0.892-  15 1.61   6 1.62
  31  0.293  0.428  0.059-   1 1.61  18 1.62
  32  0.293  0.428  0.559-  19 1.62
  33  0.293  0.928  0.059-   2 1.61  16 1.62
  34  0.293  0.928  0.559-   3 1.61  17 1.62
  35  0.793  0.428  0.059-   4 1.61  22 1.62
  36  0.793  0.428  0.559-   5 1.61  23 1.62
  37  0.793  0.928  0.059-   6 1.61  20 1.62
  38  0.793  0.928  0.559-   7 1.61  21 1.62
  39  0.072  0.365  0.226-  18 1.61   8 1.62
  40  0.072  0.365  0.726-  19 1.61   9 1.62
  41  0.072  0.865  0.226-  16 1.61  10 1.62
  42  0.072  0.865  0.726-  17 1.61  11 1.62
  43  0.572  0.365  0.226-  22 1.61  12 1.62
  44  0.572  0.365  0.726-  23 1.61  13 1.62
  45  0.572  0.865  0.226-  20 1.61  14 1.62
  46  0.572  0.865  0.726-  21 1.61  15 1.62
  47  0.207  0.135  0.108-  16 1.61   1 1.62
  48  0.207  0.135  0.608-  17 1.61
  49  0.207  0.635  0.108-  18 1.61   2 1.62
  50  0.207  0.635  0.608-  19 1.61   3 1.62
  51  0.707  0.135  0.108-  20 1.61   4 1.62
  52  0.707  0.135  0.608-  21 1.61   5 1.62
  53  0.707  0.635  0.108-  22 1.61   6 1.62
  54  0.707  0.635  0.608-  23 1.61   7 1.62
  55  0.365  0.072  0.274-  12 1.61  16 1.62
  56  0.365  0.072  0.774-  13 1.61  17 1.62
  57  0.365  0.572  0.274-  14 1.61  18 1.62
  58  0.365  0.572  0.774-  15 1.61  19 1.62
  59  0.865  0.072  0.274-   8 1.61  20 1.62
  60  0.865  0.072  0.774-   9 1.61  21 1.62
  61  0.865  0.572  0.274-  10 1.61  22 1.62
  62  0.865  0.572  0.774-  11 1.61  23 1.62
  63  0.428  0.293  0.441-  12 1.62
  64  0.428  0.293  0.941-   1 1.61  13 1.62
  65  0.428  0.793  0.441-   3 1.61  14 1.62
  66  0.428  0.793  0.941-   2 1.61  15 1.62
  67  0.928  0.293  0.441-   5 1.61   8 1.62
  68  0.928  0.293  0.941-   4 1.61   9 1.62
  69  0.928  0.793  0.441-   7 1.61  10 1.62
  70  0.928  0.793  0.941-   6 1.61  11 1.62
 
  LATTYP: Found a hexagonal cell.
 ALAT       =     9.8299323535
 C/A-ratio  =     1.1050536148
  
  Lattice vectors:
  
 A1 = (   4.9149661767,  -8.5129711356,   0.0000000000)
 A2 = (   4.9149661767,   8.5129711356,   0.0000000000)
 A3 = (   0.0000000000,   0.0000000000,  10.8626022800)


Analysis of symmetry for initial positions (statically):
=====================================================================
 Subroutine PRICEL returns:
 Original cell was already a primitive cell.
 

 Routine SETGRP: Setting up the symmetry group for a 
 hexagonal supercell.


 Subroutine GETGRP returns: Found  1 space group operations
 (whereof  1 operations were pure point group operations)
 out of a pool of 24 trial point group operations.


The static configuration has the point symmetry C_1 .


Analysis of symmetry for dynamics (positions and initial velocities):
=====================================================================
 Subroutine PRICEL returns:
 Original cell was already a primitive cell.
 

 Routine SETGRP: Setting up the symmetry group for a 
 hexagonal supercell.


 Subroutine GETGRP returns: Found  1 space group operations
 (whereof  1 operations were pure point group operations)
 out of a pool of 24 trial point group operations.


The dynamic configuration has the point symmetry C_1 .


 Subroutine INISYM returns: Found  1 space group operations
 (whereof  1 operations are pure point group operations),
 and found     1 'primitive' translations


----------------------------------------------------------------------------------------

                                     Primitive cell                                     

  volume of cell :     909.0035

  direct lattice vectors                    reciprocal lattice vectors
     4.914966177 -8.512971136  0.000000000     0.101730100 -0.058733901  0.000000000
     4.914966177  8.512971136  0.000000000     0.101730100  0.058733901  0.000000000
     0.000000000  0.000000000 10.862602280     0.000000000  0.000000000  0.092058972

  length of vectors
     9.829932353  9.829932353 10.862602280     0.117467801  0.117467801  0.092058972

  position of ions in fractional coordinates (direct lattice)
     0.265544295  0.265544295  0.000000000
     0.265544295  0.765544295  0.000000000
     0.265544295  0.765544295  0.500000000
     0.765544295  0.265544295  0.000000000
     0.765544295  0.265544295  0.500000000
     0.765544295  0.765544295  0.000000000
     0.765544295  0.765544295  0.500000000
     1.000000000  0.234455705  0.333333333
     1.000000000  0.234455705  0.833333333
     1.000000000  0.734455705  0.333333333
     1.000000000  0.734455705  0.833333333
     0.500000000  0.234455705  0.333333333
     0.500000000  0.234455705  0.833333333
     0.500000000  0.734455705  0.333333333
     0.500000000  0.734455705  0.833333333
     0.234455705  1.000000000  0.166666667
     0.234455705  1.000000000  0.666666667
     0.234455705  0.500000000  0.166666667
     0.234455705  0.500000000  0.666666667
     0.734455705  1.000000000  0.166666667
     0.734455705  1.000000000  0.666666667
     0.734455705  0.500000000  0.166666667
     0.734455705  0.500000000  0.666666667
     0.134611555  0.206697145  0.392445490
     0.134611555  0.706697145  0.392445490
     0.134611555  0.706697145  0.892445490
     0.634611555  0.206697145  0.392445490
     0.634611555  0.206697145  0.892445490
     0.634611555  0.706697145  0.392445490
     0.634611555  0.706697145  0.892445490
     0.293302855  0.427914410  0.059112157
     0.293302855  0.427914410  0.559112157
     0.293302855  0.927914410  0.059112157
     0.293302855  0.927914410  0.559112157
     0.793302855  0.427914410  0.059112157
     0.793302855  0.427914410  0.559112157
     0.793302855  0.927914410  0.059112157
     0.793302855  0.927914410  0.559112157
     0.072085590  0.365388445  0.225778823
     0.072085590  0.365388445  0.725778823
     0.072085590  0.865388445  0.225778823
     0.072085590  0.865388445  0.725778823
     0.572085590  0.365388445  0.225778823
     0.572085590  0.365388445  0.725778823
     0.572085590  0.865388445  0.225778823
     0.572085590  0.865388445  0.725778823
     0.206697145  0.134611555  0.107554510
     0.206697145  0.134611555  0.607554510
     0.206697145  0.634611555  0.107554510
     0.206697145  0.634611555  0.607554510
     0.706697145  0.134611555  0.107554510
     0.706697145  0.134611555  0.607554510
     0.706697145  0.634611555  0.107554510
     0.706697145  0.634611555  0.607554510
     0.365388445  0.072085590  0.274221177
     0.365388445  0.072085590  0.774221177
     0.365388445  0.572085590  0.274221177
     0.365388445  0.572085590  0.774221177
     0.865388445  0.072085590  0.274221177
     0.865388445  0.072085590  0.774221177
     0.865388445  0.572085590  0.274221177
     0.865388445  0.572085590  0.774221177
     0.427914410  0.293302855  0.440887843
     0.427914410  0.293302855  0.940887843
     0.427914410  0.793302855  0.440887843
     0.427914410  0.793302855  0.940887843
     0.927914410  0.293302855  0.440887843
     0.927914410  0.293302855  0.940887843
     0.927914410  0.793302855  0.440887843
     0.927914410  0.793302855  0.940887843

  ion indices of the primitive-cell ions
   primitive index   ion index
                 1           1
                 2           2
                 3           3
                 4           4
                 5           5
                 6           6
                 7           7
                 8           8
                 9           9
                10          10
                11          11
                12          12
                13          13
                14          14
                15          15
                16          16
                17          17
                18          18
                19          19
                20          20
                21          21
                22          22
                23          23
                24          24
                25          25
                26          26
                27          27
                28          28
                29          29
                30          30
                31          31
                32          32
                33          33
                34          34
                35          35
                36          36
                37          37
                38          38
                39          39
                40          40
                41          41
                42          42
                43          43
                44          44
                45          45
                46          46
                47          47
                48          48
                49          49
                50          50
                51          51
                52          52
                53          53
                54          54
                55          55
                56          56
                57          57
                58          58
                59          59
                60          60
                61          61
                62          62
                63          63
                64          64
                65          65
                66          66
                67          67
                68          68
                69          69
                70          70

----------------------------------------------------------------------------------------

 
 
 KPOINTS: pymatgen with grid density = 1000 / numb

Automatic generation of k-mesh.
 Grid dimensions read from file:
 generate k-points for:    4    4    2

 Generating k-lattice:

  Cartesian coordinates                     Fractional coordinates (reciprocal lattice)
     0.025432525 -0.014683475  0.000000000     0.250000000 -0.000000000  0.000000000
     0.025432525  0.014683475  0.000000000    -0.000000000  0.250000000  0.000000000
     0.000000000  0.000000000  0.046029486     0.000000000  0.000000000  0.500000000

  Length of vectors
     0.029366950  0.029366950  0.046029486

  Shift w.r.t. Gamma in fractional coordinates (k-lattice)
     0.000000000  0.000000000  0.000000000

 
 Subroutine IBZKPT returns following result:
 ===========================================
 
 Found     20 irreducible k-points:
 
 Following reciprocal coordinates:
            Coordinates               Weight
  0.000000  0.000000  0.000000      1.000000
  0.250000  0.000000  0.000000      2.000000
  0.000000  0.250000  0.000000      2.000000
 -0.250000  0.250000  0.000000      2.000000
  0.500000  0.000000  0.000000      1.000000
  0.000000  0.500000  0.000000      1.000000
  0.500000  0.500000  0.000000      1.000000
  0.250000  0.250000  0.000000      2.000000
 -0.250000  0.500000  0.000000      2.000000
  0.500000  0.250000  0.000000      2.000000
  0.000000  0.000000  0.500000      1.000000
  0.250000  0.000000  0.500000      2.000000
  0.000000  0.250000  0.500000      2.000000
 -0.250000  0.250000  0.500000      2.000000
  0.500000  0.000000  0.500000      1.000000
  0.000000  0.500000  0.500000      1.000000
  0.500000  0.500000  0.500000      1.000000
  0.250000  0.250000  0.500000      2.000000
 -0.250000  0.500000  0.500000      2.000000
  0.500000  0.250000  0.500000      2.000000
 
 Following cartesian coordinates:
            Coordinates               Weight
  0.000000  0.000000  0.000000      1.000000
  0.025433 -0.014683  0.000000      2.000000
  0.025433  0.014683  0.000000      2.000000
  0.000000  0.029367  0.000000      2.000000
  0.050865 -0.029367  0.000000      1.000000
  0.050865  0.029367  0.000000      1.000000
  0.101730  0.000000  0.000000      1.000000
  0.050865  0.000000  0.000000      2.000000
  0.025433  0.044050  0.000000      2.000000
  0.076298 -0.014683  0.000000      2.000000
  0.000000  0.000000  0.046029      1.000000
  0.025433 -0.014683  0.046029      2.000000
  0.025433  0.014683  0.046029      2.000000
  0.000000  0.029367  0.046029      2.000000
  0.050865 -0.029367  0.046029      1.000000
  0.050865  0.029367  0.046029      1.000000
  0.101730  0.000000  0.046029      1.000000
  0.050865  0.000000  0.046029      2.000000
  0.025433  0.044050  0.046029      2.000000
  0.076298 -0.014683  0.046029      2.000000
 


--------------------------------------------------------------------------------------------------------




 Dimension of arrays:
   k-points           NKPTS =     20   k-points in BZ     NKDIM =     20   number of bands    NBANDS=    288
   number of dos      NEDOS =    301   number of ions     NIONS =     70
   non local maximal  LDIM  =      4   non local SUM 2l+1 LMDIM =      8
   total plane-waves  NPLWV = 200704
   max r-space proj   IRMAX =      1   max aug-charges    IRDMAX=   7581
   dimension x,y,z NGX =    56 NGY =   56 NGZ =   64
   dimension x,y,z NGXF=   112 NGYF=  112 NGZF=  128
   support grid    NGXF=   112 NGYF=  112 NGZF=  128
   ions per type =              23  47
   NGX,Y,Z   is equivalent  to a cutoff of   9.47,  9.47,  9.79 a.u.
   NGXF,Y,Z  is equivalent  to a cutoff of  18.94, 18.94, 19.59 a.u.

 SYSTEM =  SiO2                                    
 POSCAR =  Si23 O47                                

 Startparameter for this run:
   NWRITE =      2    write-flag & timer
   PREC   = normal    normal or accurate (medium, high low for compatibility)
   ISTART =      0    job   : 0-new  1-cont  2-samecut
   ICHARG =      2    charge: 1-file 2-atom 10-const
   ISPIN  =      1    spin polarized calculation?
   LNONCOLLINEAR =      F non collinear calculations
   LSORBIT =      F    spin-orbit coupling
   INIWAV =      1    electr: 0-lowe 1-rand  2-diag
   LASPH  =      F    aspherical Exc in radial PAW
 Electronic Relaxation 1
   ENCUT  =  550.0 eV  40.42 Ry    6.36 a.u.  18.80 18.80 20.77*2*pi/ulx,y,z
   ENINI  =  550.0     initial cutoff
   ENAUG  =  605.4 eV  augmentation charge cutoff
   NELM   =    200;   NELMIN=  2; NELMDL= -5     # of ELM steps 
   EDIFF  = 0.1E-05   stopping-criterion for ELM
   LREAL  =      F    real-space projection
   NLSPLINE    = F    spline interpolate recip. space projectors
   LCOMPAT=      F    compatible to vasp.4.4
   GGA_COMPAT  = T    GGA compatible to vasp.4.4-vasp.4.6
   LMAXPAW     = -100 max onsite density
   LMAXMIX     =    2 max onsite mixed and CHGCAR
   VOSKOWN=      0    Vosko Wilk Nusair interpolation
   ROPT   =    0.00000   0.00000
 Ionic relaxation
   EDIFFG = -.5E-01   stopping-criterion for IOM
   NSW    =      0    number of steps for IOM
   NBLOCK =      1;   KBLOCK =      1    inner block; outer block 
   IBRION =     -1    ionic relax: 0-MD 1-quasi-New 2-CG
   NFREE  =      1    steps in history (QN), initial steepest desc. (CG)
   ISIF   =      2    stress and relaxation
   IWAVPR =     10    prediction:  0-non 1-charg 2-wave 3-comb
   ISYM   =      2    0-nonsym 1-usesym 2-fastsym
   LCORR  =      T    Harris-Foulkes like correction to forces

   POTIM  = 0.5000    time-step for ionic-motion
   TEIN   =    0.0    initial temperature
   TEBEG  =    0.0;   TEEND  =   0.0 temperature during run
   SMASS  =  -3.00    Nose mass-parameter (am)
   estimated Nose-frequenzy (Omega)   =  0.10E-29 period in steps = 0.13E+47 mass=  -0.221E-26a.u.
   SCALEE = 1.0000    scale energy and forces
   NPACO  =    256;   APACO  = 10.0  distance and # of slots for P.C.
   PSTRESS=    0.0 pullay stress

  Mass of Ions in am
   POMASS =  28.09 16.00
  Ionic Valenz
   ZVAL   =   4.00  6.00
  Atomic Wigner-Seitz radii
   RWIGS  =  -1.00 -1.00
  virtual crystal weights 
   VCA    =   1.00  1.00
   NELECT =     375.0000    total number of electrons
   NUPDOWN=      -1.0000    fix difference up-down

 DOS related values:
   EMIN   =  10.00;   EMAX   =-10.00  energy-range for DOS
   EFERMI =   0.00
   ISMEAR =     0;   SIGMA  =   0.05  broadening in eV -4-tet -1-fermi 0-gaus

 Electronic relaxation 2 (details)
   IALGO  =     38    algorithm
   LDIAG  =      T    sub-space diagonalisation (order eigenvalues)
   LSUBROT=      F    optimize rotation matrix (better conditioning)
   TURBO    =      0    0=normal 1=particle mesh
   IRESTART =      0    0=no restart 2=restart with 2 vectors
   NREBOOT  =      0    no. of reboots
   NMIN     =      0    reboot dimension
   EREF     =   0.00    reference energy to select bands
   IMIX   =      4    mixing-type and parameters
     AMIX     =   0.20;   BMIX     =  1.00
     AMIX_MAG =   0.80;   BMIX_MAG =  1.00
     AMIN     =   0.10
     WC   =   100.;   INIMIX=   1;  MIXPRE=   1;  MAXMIX= -45

 Intra band minimization:
   WEIMIN = 0.0000     energy-eigenvalue tresh-hold
   EBREAK =  0.87E-09  absolut break condition
   DEPER  =   0.30     relativ break condition  

   TIME   =   0.40     timestep for ELM

  volume/ion in A,a.u.               =      12.99        87.63
  Fermi-wavevector in a.u.,A,eV,Ry     =   1.218700  2.303009 20.207769  1.485229
  Thomas-Fermi vector in A             =   2.353977
 
 Write flags
   LWAVE        =      T    write WAVECAR
   LDOWNSAMPLE  =      F    k-point downsampling of WAVECAR
   LCHARG       =      T    write CHGCAR
   LVTOT        =      T    write LOCPOT, total local potential
   LVHAR        =      F    write LOCPOT, Hartree potential only
   LELF         =      F    write electronic localiz. function (ELF)
   LORBIT       =     11    0 simple, 1 ext, 2 COOP (PROOUT), +10 PAW based schemes


 Dipole corrections
   LMONO  =      F    monopole corrections only (constant potential shift)
   LDIPOL =      F    correct potential (dipole corrections)
   IDIPOL =      0    1-x, 2-y, 3-z, 4-all directions 
   EPSILON=  1.0000000 bulk dielectric constant

 Exchange correlation treatment:
   GGA     =    --    GGA type
   LEXCH   =     8    internal setting for exchange type
   LIBXC   =     F    Libxc                    
   VOSKOWN =     0    Vosko Wilk Nusair interpolation
   LHFCALC =     F    Hartree Fock is set to
   LHFONE  =     F    Hartree Fock one center treatment
   AEXX    =    0.0000 exact exchange contribution

 Linear response parameters
   LEPSILON=     F    determine dielectric tensor
   LRPA    =     F    only Hartree local field effects (RPA)
   LNABLA  =     F    use nabla operator in PAW spheres
   LVEL    =     F    velocity operator in full k-point grid
   CSHIFT  =0.1000    complex shift for real part using Kramers Kronig
   OMEGAMAX=  -1.0    maximum frequency
   DEG_THRESHOLD= 0.2000000E-02 threshold for treating states as degnerate
   RTIME   =   -0.100 relaxation time in fs
  (WPLASMAI=    0.000 imaginary part of plasma frequency in eV, 0.658/RTIME)
   DFIELD  = 0.0000000 0.0000000 0.0000000 field for delta impulse in time
 
  Optional k-point grid parameters
   LKPOINTS_OPT  =     F    use optional k-point grid
   KPOINTS_OPT_MODE=     1    mode for optional k-point grid
 
 Orbital magnetization related:
   ORBITALMAG=     F  switch on orbital magnetization
   LCHIMAG   =     F  perturbation theory with respect to B field
   DQ        =  0.001000  dq finite difference perturbation B field
   LLRAUG    =     F  two centre corrections for induced B field



--------------------------------------------------------------------------------------------------------


 Static calculation
 charge density and potential will be updated during run
 non-spin polarized calculation
 Variant of blocked Davidson
 Davidson routine will perform the subspace rotation
 perform sub-space diagonalisation
    after iterative eigenvector-optimisation
 modified Broyden-mixing scheme, WC =      100.0
 initial mixing is a Kerker type mixing with AMIX =  0.2000 and BMIX =      1.0000
 Hartree-type preconditioning will be used
 using additional bands          100
 reciprocal scheme for non local part
 use partial core corrections
 calculate Harris-corrections to forces 
   (improved forces if not selfconsistent)
 use gradient corrections 
 use of overlap-Matrix (Vanderbilt PP)
 Gauss-broadening in eV      SIGMA  =   0.05


--------------------------------------------------------------------------------------------------------


  energy-cutoff  :      550.00
  volume of cell :      909.00
      direct lattice vectors                 reciprocal lattice vectors
     4.914966177 -8.512971136  0.000000000     0.101730100 -0.058733901  0.000000000
     4.914966177  8.512971136  0.000000000     0.101730100  0.058733901  0.000000000
     0.000000000  0.000000000 10.862602280     0.000000000  0.000000000  0.092058972

  length of vectors
     9.829932353  9.829932353 10.862602280     0.117467801  0.117467801  0.092058972


 
 k-points in units of 2pi/SCALE and weight: pymatgen with grid density = 1000 / numb
   0.00000000  0.00000000  0.00000000       0.031
   0.02543252 -0.01468348  0.00000000       0.062
   0.02543252  0.01468348  0.00000000       0.062
  -0.00000000  0.02936695  0.00000000       0.062
   0.05086505 -0.02936695  0.00000000       0.031
   0.05086505  0.02936695  0.00000000       0.031
   0.10173010  0.00000000  0.00000000       0.031
   0.05086505  0.00000000  0.00000000       0.062
   0.02543252  0.04405043  0.00000000       0.062
   0.07629757 -0.01468348  0.00000000       0.062
   0.00000000  0.00000000  0.04602949       0.031
   0.02543252 -0.01468348  0.04602949       0.062
   0.02543252  0.01468348  0.04602949       0.062
  -0.00000000  0.02936695  0.04602949       0.062
   0.05086505 -0.02936695  0.04602949       0.031
   0.05086505  0.02936695  0.04602949       0.031
   0.10173010  0.00000000  0.04602949       0.031
   0.05086505  0.00000000  0.04602949       0.062
   0.02543252  0.04405043  0.04602949       0.062
   0.07629757 -0.01468348  0.04602949       0.062
 
 k-points in reciprocal lattice and weights: pymatgen with grid density = 1000 / numb
   0.00000000  0.00000000  0.00000000       0.031
   0.25000000  0.00000000  0.00000000       0.062
   0.00000000  0.25000000  0.00000000       0.062
  -0.25000000  0.25000000  0.00000000       0.062
   0.50000000  0.00000000  0.00000000       0.031
   0.00000000  0.50000000  0.00000000       0.031
   0.50000000  0.50000000  0.00000000       0.031
   0.25000000  0.25000000  0.00000000       0.062
  -0.25000000  0.50000000  0.00000000       0.062
   0.50000000  0.25000000  0.00000000       0.062
   0.00000000  0.00000000  0.50000000       0.031
   0.25000000  0.00000000  0.50000000       0.062
   0.00000000  0.25000000  0.50000000       0.062
  -0.25000000  0.25000000  0.50000000       0.062
   0.50000000  0.00000000  0.50000000       0.031
   0.00000000  0.50000000  0.50000000       0.031
   0.50000000  0.50000000  0.50000000       0.031
   0.25000000  0.25000000  0.50000000       0.062
  -0.25000000  0.50000000  0.50000000       0.062
   0.50000000  0.25000000  0.50000000       0.062
 
 position of ions in fractional coordinates (direct lattice) 
   0.26554429  0.26554429  0.00000000
   0.26554429  0.76554429  0.00000000
   0.26554429  0.76554429  0.50000000
   0.76554429  0.26554429  0.00000000
   0.76554429  0.26554429  0.50000000
   0.76554429  0.76554429  0.00000000
   0.76554429  0.76554429  0.50000000
   0.00000000  0.23445571  0.33333333
   0.00000000  0.23445571  0.83333333
   0.00000000  0.73445571  0.33333333
   0.00000000  0.73445571  0.83333333
   0.50000000  0.23445571  0.33333333
   0.50000000  0.23445571  0.83333333
   0.50000000  0.73445571  0.33333333
   0.50000000  0.73445571  0.83333333
   0.23445571  0.00000000  0.16666667
   0.23445571  0.00000000  0.66666667
   0.23445571  0.50000000  0.16666667
   0.23445571  0.50000000  0.66666667
   0.73445571  0.00000000  0.16666667
   0.73445571  0.00000000  0.66666667
   0.73445571  0.50000000  0.16666667
   0.73445571  0.50000000  0.66666667
   0.13461155  0.20669714  0.39244549
   0.13461155  0.70669714  0.39244549
   0.13461155  0.70669714  0.89244549
   0.63461155  0.20669714  0.39244549
   0.63461155  0.20669714  0.89244549
   0.63461155  0.70669714  0.39244549
   0.63461155  0.70669714  0.89244549
   0.29330286  0.42791441  0.05911216
   0.29330286  0.42791441  0.55911216
   0.29330286  0.92791441  0.05911216
   0.29330286  0.92791441  0.55911216
   0.79330286  0.42791441  0.05911216
   0.79330286  0.42791441  0.55911216
   0.79330286  0.92791441  0.05911216
   0.79330286  0.92791441  0.55911216
   0.07208559  0.36538845  0.22577882
   0.07208559  0.36538845  0.72577882
   0.07208559  0.86538845  0.22577882
   0.07208559  0.86538845  0.72577882
   0.57208559  0.36538845  0.22577882
   0.57208559  0.36538845  0.72577882
   0.57208559  0.86538845  0.22577882
   0.57208559  0.86538845  0.72577882
   0.20669714  0.13461155  0.10755451
   0.20669714  0.13461155  0.60755451
   0.20669714  0.63461155  0.10755451
   0.20669714  0.63461155  0.60755451
   0.70669714  0.13461155  0.10755451
   0.70669714  0.13461155  0.60755451
   0.70669714  0.63461155  0.10755451
   0.70669714  0.63461155  0.60755451
   0.36538845  0.07208559  0.27422118
   0.36538845  0.07208559  0.77422118
   0.36538845  0.57208559  0.27422118
   0.36538845  0.57208559  0.77422118
   0.86538845  0.07208559  0.27422118
   0.86538845  0.07208559  0.77422118
   0.86538845  0.57208559  0.27422118
   0.86538845  0.57208559  0.77422118
   0.42791441  0.29330286  0.44088784
   0.42791441  0.29330286  0.94088784
   0.42791441  0.79330286  0.44088784
   0.42791441  0.79330286  0.94088784
   0.92791441  0.29330286  0.44088784
   0.92791441  0.29330286  0.94088784
   0.92791441  0.79330286  0.44088784
   0.92791441  0.79330286  0.94088784
 
 position of ions in cartesian coordinates  (Angst):
   2.61028246 -0.00000000  0.00000000
   5.06776555  4.25648557  0.00000000
   5.06776555  4.25648557  5.43130114
   5.06776555 -4.25648557  0.00000000
   5.06776555 -4.25648557  5.43130114
   7.52524863  0.00000000  0.00000000
   7.52524863  0.00000000  5.43130114
   1.15234186  1.99591465  3.62086743
   1.15234186  1.99591465  9.05216857
   3.60982495  6.25240022  3.62086743
   3.60982495  6.25240022  9.05216857
   3.60982495 -2.26057092  3.62086743
   3.60982495 -2.26057092  9.05216857
   6.06730804  1.99591465  3.62086743
   6.06730804  1.99591465  9.05216857
   1.15234186 -1.99591465  1.81043371
   1.15234186 -1.99591465  7.24173485
   3.60982495  2.26057092  1.81043371
   3.60982495  2.26057092  7.24173485
   3.60982495 -6.25240022  1.81043371
   3.60982495 -6.25240022  7.24173485
   6.06730804 -1.99591465  1.81043371
   6.06730804 -1.99591465  7.24173485
   1.67752072  0.61366255  4.26297927
   4.13500380  4.87014811  4.26297927
   4.13500380  4.87014811  9.69428041
   4.13500380 -3.64282302  4.26297927
   4.13500380 -3.64282302  9.69428041
   6.59248689  0.61366255  4.26297927
   6.59248689  0.61366255  9.69428041
   3.54475846  1.14594428  0.64211185
   3.54475846  1.14594428  6.07341299
   6.00224155  5.40242985  0.64211185
   6.00224155  5.40242985  6.07341299
   6.00224155 -3.11054129  0.64211185
   6.00224155 -3.11054129  6.07341299
   8.45972464  1.14594428  0.64211185
   8.45972464  1.14594428  6.07341299
   2.15017009  2.49687874  2.45254556
   2.15017009  2.49687874  7.88384670
   4.60765317  6.75336431  2.45254556
   4.60765317  6.75336431  7.88384670
   4.60765317 -1.75960683  2.45254556
   4.60765317 -1.75960683  7.88384670
   7.06513626  2.49687874  2.45254556
   7.06513626  2.49687874  7.88384670
   1.67752072 -0.61366255  1.16832187
   1.67752072 -0.61366255  6.59962301
   4.13500380  3.64282302  1.16832187
   4.13500380  3.64282302  6.59962301
   4.13500380 -4.87014811  1.16832187
   4.13500380 -4.87014811  6.59962301
   6.59248689 -0.61366255  1.16832187
   6.59248689 -0.61366255  6.59962301
   2.15017009 -2.49687874  2.97875558
   2.15017009 -2.49687874  8.41005672
   4.60765317  1.75960683  2.97875558
   4.60765317  1.75960683  8.41005672
   4.60765317 -6.75336431  2.97875558
   4.60765317 -6.75336431  8.41005672
   7.06513626 -2.49687874  2.97875558
   7.06513626 -2.49687874  8.41005672
   3.54475846 -1.14594428  4.78918929
   3.54475846 -1.14594428 10.22049043
   6.00224155  3.11054129  4.78918929
   6.00224155  3.11054129 10.22049043
   6.00224155 -5.40242985  4.78918929
   6.00224155 -5.40242985 10.22049043
   8.45972464 -1.14594428  4.78918929
   8.45972464 -1.14594428 10.22049043
 


--------------------------------------------------------------------------------------------------------


 k-point   1 :   0.0000 0.0000 0.0000  plane waves:   26579
 k-point   2 :   0.2500 0.0000 0.0000  plane waves:   26609
 k-point   3 :   0.0000 0.2500 0.0000  plane waves:   26609
 k-point   4 :  -0.2500 0.2500 0.0000  plane waves:   26609
 k-point   5 :   0.5000 0.0000 0.0000  plane waves:   26614
 k-point   6 :   0.0000 0.5000 0.0000  plane waves:   26614
 k-point   7 :   0.5000 0.5000 0.0000  plane waves:   26614
 k-point   8 :   0.2500 0.2500 0.0000  plane waves:   26641
 k-point   9 :  -0.2500 0.5000 0.0000  plane waves:   26641
 k-point  10 :   0.5000 0.2500 0.0000  plane waves:   26641
 k-point  11 :   0.0000 0.0000 0.5000  plane waves:   26718
 k-point  12 :   0.2500 0.0000 0.5000  plane waves:   26636
 k-point  13 :   0.0000 0.2500 0.5000  plane waves:   26636
 k-point  14 :  -0.2500 0.2500 0.5000  plane waves:   26636
 k-point  15 :   0.5000 0.0000 0.5000  plane waves:   26636
 k-point  16 :   0.0000 0.5000 0.5000  plane waves:   26636
 k-point  17 :   0.5000 0.5000 0.5000  plane waves:   26636
 k-point  18 :   0.2500 0.2500 0.5000  plane waves:   26596
 k-point  19 :  -0.2500 0.5000 0.5000  plane waves:   26596
 k-point  20 :   0.5000 0.2500 0.5000  plane waves:   26596

 maximum and minimum number of plane-waves per node :     26718    26579

 maximum number of plane-waves:     26718
 maximum index in each direction: 
   IXMAX=   19   IYMAX=   18   IZMAX=   20
   IXMIN=  -19   IYMIN=  -19   IZMIN=  -21


 serial   3D FFT for wavefunctions
 parallel 3D FFT for charge:
    minimum data exchange during FFTs selected (reduces bandwidth)


 total amount of memory used by VASP MPI-rank0   166467. kBytes
=======================================================================

   base      :      30000. kBytes
   nonl-proj :      98565. kBytes
   fftplans  :       1721. kBytes
   grid      :       9701. kBytes
   one-center:        215. kBytes
   wavefun   :      26265. kBytes
 
     INWAV:  cpu time      0.0000: real time      0.0001
 Broyden mixing: mesh for mixing (old mesh)
   NGX = 37   NGY = 37   NGZ = 41
  (NGX  =112   NGY  =112   NGZ  =128)
  gives a total of  56129 points

 initial charge density was supplied:
 charge density of overlapping atoms calculated
 number of electron     374.0000000 magnetization 
 keeping initial charge density in first step


--------------------------------------------------------------------------------------------------------


 Maximum index for augmentation-charges          412 (set IRDMAX)


--------------------------------------------------------------------------------------------------------


 First call to EWALD:  gamma=   0.183
 Maximum number of real-space cells 3x 3x 3
 Maximum number of reciprocal cells 3x 3x 3

    FEWALD:  cpu time      0.0021: real time      0.0022


--------------------------------------- Iteration      1(   1)  ---------------------------------------


    POTLOK:  cpu time      0.0159: real time      0.0165
    SETDIJ:  cpu time      0.0023: real time      0.0023
     EDDAV:  cpu time     10.9516: real time     11.0018
       DOS:  cpu time      0.0038: real time      0.0039
    --------------------------------------------
      LOOP:  cpu time     10.9737: real time     11.0245

 eigenvalue-minimisations  : 11520
 total energy-change (2. order) : 0.1919731E+04  (-0.2019671E+05)
 number of electron     374.0000000 magnetization 
 augmentation part      374.0000000 magnetization 

 Free energy of the ion-electron system (eV)
  ---------------------------------------------------
  alpha Z        PSCENC =       527.48178200
  Ewald energy   TEWEN  =    -14529.27944803
  -Hartree energ DENC   =     -7470.65410749
  -exchange      EXHF   =         0.00000000
  -V(xc)+E(xc)   XCENC  =      1108.30413461
  PAW double counting   =     18314.67280499   -17994.56484431
  entropy T*S    EENTRO =        -0.00794812
  eigenvalues    EBANDS =      -727.64326894
  atomic energy  EATOM  =     22691.42155104
  Solvation  Ediel_sol  =         0.00000000
  ---------------------------------------------------
  free energy    TOTEN  =      1919.73065575 eV

  energy without entropy =     1919.73860388  energy(sigma->0) =     1919.73462982


--------------------------------------------------------------------------------------------------------




--------------------------------------- Iteration      1(   2)  ---------------------------------------


     EDDAV:  cpu time     16.2676: real time     16.3340
       DOS:  cpu time      0.0037: real time      0.0037
    --------------------------------------------
      LOOP:  cpu time     16.2713: real time     16.3377

 eigenvalue-minimisations  : 16992
 total energy-change (2. order) :-0.2415882E+04  (-0.2344511E+04)
 number of electron     374.0000000 magnetization 
 augmentation part      374.0000000 magnetization 

 Free energy of the ion-electron system (eV)
  ---------------------------------------------------
  alpha Z        PSCENC =       527.48178200
  Ewald energy   TEWEN  =    -14529.27944803
  -Hartree energ DENC   =     -7470.65410749
  -exchange      EXHF   =         0.00000000
  -V(xc)+E(xc)   XCENC  =      1108.30413461
  PAW double counting   =     18314.67280499   -17994.56484431
  entropy T*S    EENTRO =        -0.01243604
  eigenvalues    EBANDS =     -3143.52114085
  atomic energy  EATOM  =     22691.42155104
  Solvation  Ediel_sol  =         0.00000000
  ---------------------------------------------------
  free energy    TOTEN  =      -496.15170407 eV

  energy without entropy =     -496.13926804  energy(sigma->0) =     -496.14548606


--------------------------------------------------------------------------------------------------------




--------------------------------------- Iteration      1(   3)  ---------------------------------------


     EDDAV:  cpu time     14.3026: real time     14.3534
       DOS:  cpu time      0.0031: real time      0.0031
    --------------------------------------------
      LOOP:  cpu time     14.3057: real time     14.3565

 eigenvalue-minimisations  : 15360
 total energy-change (2. order) :-0.1139236E+03  (-0.1135421E+03)
 number of electron     374.0000000 magnetization 
 augmentation part      374.0000000 magnetization 

 Free energy of the ion-electron system (eV)
  ---------------------------------------------------
  alpha Z        PSCENC =       527.48178200
  Ewald energy   TEWEN  =    -14529.27944803
  -Hartree energ DENC   =     -7470.65410749
  -exchange      EXHF   =         0.00000000
  -V(xc)+E(xc)   XCENC  =      1108.30413461
  PAW double counting   =     18314.67280499   -17994.56484431
  entropy T*S    EENTRO =        -0.04703083
  eigenvalues    EBANDS =     -3257.41010130
  atomic energy  EATOM  =     22691.42155104
  Solvation  Ediel_sol  =         0.00000000
  ---------------------------------------------------
  free energy    TOTEN  =      -610.07525932 eV

  energy without entropy =     -610.02822848  energy(sigma->0) =     -610.05174390


--------------------------------------------------------------------------------------------------------




--------------------------------------- Iteration      1(   4)  ---------------------------------------


     EDDAV:  cpu time     11.8801: real time     11.9225
       DOS:  cpu time      0.0029: real time      0.0029
    --------------------------------------------
      LOOP:  cpu time     11.8830: real time     11.9255

 eigenvalue-minimisations  : 13344
 total energy-change (2. order) :-0.9679572E+00  (-0.9678722E+00)
 number of electron     374.0000000 magnetization 
 augmentation part      374.0000000 magnetization 

 Free energy of the ion-electron system (eV)
  ---------------------------------------------------
  alpha Z        PSCENC =       527.48178200
  Ewald energy   TEWEN  =    -14529.27944803
  -Hartree energ DENC   =     -7470.65410749
  -exchange      EXHF   =         0.00000000
  -V(xc)+E(xc)   XCENC  =      1108.30413461
  PAW double counting   =     18314.67280499   -17994.56484431
  entropy T*S    EENTRO =        -0.04704024
  eigenvalues    EBANDS =     -3258.37804910
  atomic energy  EATOM  =     22691.42155104
  Solvation  Ediel_sol  =         0.00000000
  ---------------------------------------------------
  free energy    TOTEN  =      -611.04321652 eV

  energy without entropy =     -610.99617628  energy(sigma->0) =     -611.01969640


--------------------------------------------------------------------------------------------------------




--------------------------------------- Iteration      1(   5)  ---------------------------------------


     EDDAV:  cpu time     14.3312: real time     14.3816
       DOS:  cpu time      0.0030: real time      0.0030
    CHARGE:  cpu time      0.0674: real time      0.0680
    MIXING:  cpu time      0.0012: real time      0.0014
    --------------------------------------------
      LOOP:  cpu time     14.4028: real time     14.4540

 eigenvalue-minimisations  : 15840
 total energy-change (2. order) :-0.1085636E-01  (-0.1085623E-01)
 number of electron     375.0000059 magnetization 
 augmentation part       34.8743504 magnetization 

 Broyden mixing:
  rms(total) = 0.70510E+01    rms(broyden)= 0.70500E+01
  rms(prec ) = 0.82811E+01
  weight for this iteration     100.00

 Free energy of the ion-electron system (eV)
  ---------------------------------------------------
  alpha Z        PSCENC =       527.48178200
  Ewald energy   TEWEN  =    -14529.27944803
  -Hartree energ DENC   =     -7470.65410749
  -exchange      EXHF   =         0.00000000
  -V(xc)+E(xc)   XCENC  =      1108.30413461
  PAW double counting   =     18314.67280499   -17994.56484431
  entropy T*S    EENTRO =        -0.04704004
  eigenvalues    EBANDS =     -3258.38890566
  atomic energy  EATOM  =     22691.42155104
  Solvation  Ediel_sol  =         0.00000000
  ---------------------------------------------------
  free energy    TOTEN  =      -611.05407288 eV

  energy without entropy =     -611.00703284  energy(sigma->0) =     -611.03055286


--------------------------------------------------------------------------------------------------------




--------------------------------------- Iteration      1(   6)  ---------------------------------------


    POTLOK:  cpu time      0.0113: real time      0.0114
    SETDIJ:  cpu time      0.0016: real time      0.0016
     EDDAV:  cpu time     14.4979: real time     14.5504
       DOS:  cpu time      0.0035: real time      0.0035
    CHARGE:  cpu time      0.0726: real time      0.0729
    MIXING:  cpu time      0.0006: real time      0.0008
    --------------------------------------------
      LOOP:  cpu time     14.5876: real time     14.6407

 eigenvalue-minimisations  : 15360
 total energy-change (2. order) : 0.5927152E+02  (-0.6782696E+01)
 number of electron     375.0000051 magnetization 
 augmentation part       31.0489395 magnetization 

 Broyden mixing:
  rms(total) = 0.48119E+01    rms(broyden)= 0.48118E+01
  rms(prec ) = 0.53376E+01
  weight for this iteration     100.00

 eigenvalues of (default mixing * dielectric matrix)
  average eigenvalue GAMMA=   1.9842
  1.9842

 Free energy of the ion-electron system (eV)
  ---------------------------------------------------
  alpha Z        PSCENC =       527.48178200
  Ewald energy   TEWEN  =    -14529.27944803
  -Hartree energ DENC   =     -7892.47377284
  -exchange      EXHF   =         0.00000000
  -V(xc)+E(xc)   XCENC  =      1139.36815540
  PAW double counting   =     24009.21215993   -23697.30744369
  entropy T*S    EENTRO =        -0.05940895
  eigenvalues    EBANDS =     -2800.14612441
  atomic energy  EATOM  =     22691.42155104
  Solvation  Ediel_sol  =         0.00000000
  ---------------------------------------------------
  free energy    TOTEN  =      -551.78254954 eV

  energy without entropy =     -551.72314059  energy(sigma->0) =     -551.75284506


--------------------------------------------------------------------------------------------------------




--------------------------------------- Iteration      1(   7)  ---------------------------------------


    POTLOK:  cpu time      0.0113: real time      0.0115
    SETDIJ:  cpu time      0.0017: real time      0.0017
     EDDAV:  cpu time     14.6719: real time     14.7245
       DOS:  cpu time      0.0032: real time      0.0032
    CHARGE:  cpu time      0.0728: real time      0.0731
    MIXING:  cpu time      0.0006: real time      0.0006
    --------------------------------------------
      LOOP:  cpu time     14.7615: real time     14.8146

 eigenvalue-minimisations  : 15360
 total energy-change (2. order) : 0.1488081E+02  (-0.1059085E+02)
 number of electron     375.0000047 magnetization 
 augmentation part       27.9475842 magnetization 

 Broyden mixing:
  rms(total) = 0.28397E+01    rms(broyden)= 0.28391E+01
  rms(prec ) = 0.33560E+01
  weight for this iteration     100.00

 eigenvalues of (default mixing * dielectric matrix)
  average eigenvalue GAMMA=   1.4958
  0.7689  2.2227

 Free energy of the ion-electron system (eV)
  ---------------------------------------------------
  alpha Z        PSCENC =       527.48178200
  Ewald energy   TEWEN  =    -14529.27944803
  -Hartree energ DENC   =     -8293.44878990
  -exchange      EXHF   =         0.00000000
  -V(xc)+E(xc)   XCENC  =      1166.34740584
  PAW double counting   =     36524.76555579   -36220.14551121
  entropy T*S    EENTRO =        -0.03271900
  eigenvalues    EBANDS =     -2404.01157096
  atomic energy  EATOM  =     22691.42155104
  Solvation  Ediel_sol  =         0.00000000
  ---------------------------------------------------
  free energy    TOTEN  =      -536.90174444 eV

  energy without entropy =     -536.86902544  energy(sigma->0) =     -536.88538494


--------------------------------------------------------------------------------------------------------




--------------------------------------- Iteration      1(   8)  ---------------------------------------


    POTLOK:  cpu time      0.0109: real time      0.0111
    SETDIJ:  cpu time      0.0017: real time      0.0018
     EDDAV:  cpu time     14.5984: real time     14.6505
       DOS:  cpu time      0.0036: real time      0.0036
    CHARGE:  cpu time      0.0755: real time      0.0759
    MIXING:  cpu time      0.0006: real time      0.0006
    --------------------------------------------
      LOOP:  cpu time     14.6907: real time     14.7434

 eigenvalue-minimisations  : 15360
 total energy-change (2. order) : 0.1376237E+01  (-0.6013774E+01)
 number of electron     375.0000055 magnetization 
 augmentation part       27.4571686 magnetization 

 Broyden mixing:
  rms(total) = 0.20819E+01    rms(broyden)= 0.20811E+01
  rms(prec ) = 0.24942E+01
  weight for this iteration     100.00

 eigenvalues of (default mixing * dielectric matrix)
  average eigenvalue GAMMA=   1.3003
  2.3346  1.0920  0.4745

 Free energy of the ion-electron system (eV)
  ---------------------------------------------------
  alpha Z        PSCENC =       527.48178200
  Ewald energy   TEWEN  =    -14529.27944803
  -Hartree energ DENC   =     -8369.74646153
  -exchange      EXHF   =         0.00000000
  -V(xc)+E(xc)   XCENC  =      1171.57764257
  PAW double counting   =     41967.84850533   -41664.39703282
  entropy T*S    EENTRO =        -0.03942507
  eigenvalues    EBANDS =     -2330.39262081
  atomic energy  EATOM  =     22691.42155104
  Solvation  Ediel_sol  =         0.00000000
  ---------------------------------------------------
  free energy    TOTEN  =      -535.52550731 eV

  energy without entropy =     -535.48608224  energy(sigma->0) =     -535.50579478


--------------------------------------------------------------------------------------------------------




--------------------------------------- Iteration      1(   9)  ---------------------------------------


    POTLOK:  cpu time      0.0114: real time      0.0116
    SETDIJ:  cpu time      0.0015: real time      0.0015
     EDDAV:  cpu time     15.1655: real time     15.2263
       DOS:  cpu time      0.0036: real time      0.0036
    CHARGE:  cpu time      0.0742: real time      0.0746
    MIXING:  cpu time      0.0007: real time      0.0009
    --------------------------------------------
      LOOP:  cpu time     15.2569: real time     15.3186

 eigenvalue-minimisations  : 15360
 total energy-change (2. order) : 0.1530760E+01  (-0.2196237E+01)
 number of electron     375.0000045 magnetization 
 augmentation part       27.3136325 magnetization 

 Broyden mixing:
  rms(total) = 0.17629E+01    rms(broyden)= 0.17622E+01
  rms(prec ) = 0.21916E+01
  weight for this iteration     100.00

 eigenvalues of (default mixing * dielectric matrix)
  average eigenvalue GAMMA=   1.2915
  2.4984  1.7668  0.4505  0.4505

 Free energy of the ion-electron system (eV)
  ---------------------------------------------------
  alpha Z        PSCENC =       527.48178200
  Ewald energy   TEWEN  =    -14529.27944803
  -Hartree energ DENC   =     -8402.79701601
  -exchange      EXHF   =         0.00000000
  -V(xc)+E(xc)   XCENC  =      1173.90305976
  PAW double counting   =     45831.97675238   -45528.92870842
  entropy T*S    EENTRO =        -0.02794760
  eigenvalues    EBANDS =     -2297.74477243
  atomic energy  EATOM  =     22691.42155104
  Solvation  Ediel_sol  =         0.00000000
  ---------------------------------------------------
  free energy    TOTEN  =      -533.99474731 eV

  energy without entropy =     -533.96679971  energy(sigma->0) =     -533.98077351


--------------------------------------------------------------------------------------------------------




--------------------------------------- Iteration      1(  10)  ---------------------------------------


    POTLOK:  cpu time      0.0114: real time      0.0115
    SETDIJ:  cpu time      0.0017: real time      0.0017
     EDDAV:  cpu time     17.0998: real time     17.1717
       DOS:  cpu time      0.0034: real time      0.0034
    CHARGE:  cpu time      0.0762: real time      0.0765
    MIXING:  cpu time      0.0006: real time      0.0006
    --------------------------------------------
      LOOP:  cpu time     17.1931: real time     17.2655

 eigenvalue-minimisations  : 15360
 total energy-change (2. order) : 0.3926751E+00  (-0.1985761E+01)
 number of electron     375.0000050 magnetization 
 augmentation part       27.3181932 magnetization 

 Broyden mixing:
  rms(total) = 0.13805E+01    rms(broyden)= 0.13797E+01
  rms(prec ) = 0.18009E+01
  weight for this iteration     100.00

 eigenvalues of (default mixing * dielectric matrix)
  average eigenvalue GAMMA=   1.3309
  3.1469  2.0021  0.5606  0.5606  0.3845

 Free energy of the ion-electron system (eV)
  ---------------------------------------------------
  alpha Z        PSCENC =       527.48178200
  Ewald energy   TEWEN  =    -14529.27944803
  -Hartree energ DENC   =     -8425.24680694
  -exchange      EXHF   =         0.00000000
  -V(xc)+E(xc)   XCENC  =      1175.60968871
  PAW double counting   =     50478.34160966   -50175.42386827
  entropy T*S    EENTRO =        -0.04034020
  eigenvalues    EBANDS =     -2276.46624017
  atomic energy  EATOM  =     22691.42155104
  Solvation  Ediel_sol  =         0.00000000
  ---------------------------------------------------
  free energy    TOTEN  =      -533.60207219 eV

  energy without entropy =     -533.56173199  energy(sigma->0) =     -533.58190209


--------------------------------------------------------------------------------------------------------




--------------------------------------- Iteration      1(  11)  ---------------------------------------


    POTLOK:  cpu time      0.0109: real time      0.0111
    SETDIJ:  cpu time      0.0016: real time      0.0017
     EDDAV:  cpu time     14.9356: real time     14.9975
       DOS:  cpu time      0.0031: real time      0.0031
    CHARGE:  cpu time      0.0773: real time      0.0777
    MIXING:  cpu time      0.0007: real time      0.0007
    --------------------------------------------
      LOOP:  cpu time     15.0293: real time     15.0918

 eigenvalue-minimisations  : 15360
 total energy-change (2. order) :-0.5782557E+00  (-0.2421006E+01)
 number of electron     375.0000050 magnetization 
 augmentation part       27.3977663 magnetization 

 Broyden mixing:
  rms(total) = 0.13040E+01    rms(broyden)= 0.13032E+01
  rms(prec ) = 0.18352E+01
  weight for this iteration     100.00

 eigenvalues of (default mixing * dielectric matrix)
  average eigenvalue GAMMA=   1.3621
  4.0582  2.0663  0.9417  0.4363  0.4363  0.2336

 Free energy of the ion-electron system (eV)
  ---------------------------------------------------
  alpha Z        PSCENC =       527.48178200
  Ewald energy   TEWEN  =    -14529.27944803
  -Hartree energ DENC   =     -8438.44761407
  -exchange      EXHF   =         0.00000000
  -V(xc)+E(xc)   XCENC  =      1176.70609980
  PAW double counting   =     54596.39738231   -54293.44928384
  entropy T*S    EENTRO =        -0.02959339
  eigenvalues    EBANDS =     -2264.98120368
  atomic energy  EATOM  =     22691.42155104
  Solvation  Ediel_sol  =         0.00000000
  ---------------------------------------------------
  free energy    TOTEN  =      -534.18032786 eV

  energy without entropy =     -534.15073447  energy(sigma->0) =     -534.16553116


--------------------------------------------------------------------------------------------------------




--------------------------------------- Iteration      1(  12)  ---------------------------------------


    POTLOK:  cpu time      0.0113: real time      0.0115
    SETDIJ:  cpu time      0.0016: real time      0.0016
     EDDAV:  cpu time     16.3924: real time     16.4607
       DOS:  cpu time      0.0037: real time      0.0037
    CHARGE:  cpu time      0.0770: real time      0.0773
    MIXING:  cpu time      0.0007: real time      0.0007
    --------------------------------------------
      LOOP:  cpu time     16.4867: real time     16.5556

 eigenvalue-minimisations  : 17184
 total energy-change (2. order) :-0.5503479E+00  (-0.2304085E+01)
 number of electron     375.0000044 magnetization 
 augmentation part       27.4765621 magnetization 

 Broyden mixing:
  rms(total) = 0.15367E+01    rms(broyden)= 0.15361E+01
  rms(prec ) = 0.22631E+01
  weight for this iteration     100.00

 eigenvalues of (default mixing * dielectric matrix)
  average eigenvalue GAMMA=   1.2503
  4.0959  2.1044  0.9703  0.5199  0.5199  0.2978  0.2438

 Free energy of the ion-electron system (eV)
  ---------------------------------------------------
  alpha Z        PSCENC =       527.48178200
  Ewald energy   TEWEN  =    -14529.27944803
  -Hartree energ DENC   =     -8454.46022001
  -exchange      EXHF   =         0.00000000
  -V(xc)+E(xc)   XCENC  =      1178.03604395
  PAW double counting   =     59302.05000330   -58999.08341370
  entropy T*S    EENTRO =        -0.03733468
  eigenvalues    EBANDS =     -2250.85963958
  atomic energy  EATOM  =     22691.42155104
  Solvation  Ediel_sol  =         0.00000000
  ---------------------------------------------------
  free energy    TOTEN  =      -534.73067572 eV

  energy without entropy =     -534.69334104  energy(sigma->0) =     -534.71200838


--------------------------------------------------------------------------------------------------------




--------------------------------------- Iteration      1(  13)  ---------------------------------------


    POTLOK:  cpu time      0.0112: real time      0.0114
    SETDIJ:  cpu time      0.0017: real time      0.0017
     EDDAV:  cpu time     14.8542: real time     14.9124
       DOS:  cpu time      0.0039: real time      0.0039
    CHARGE:  cpu time      0.0777: real time      0.0780
    MIXING:  cpu time      0.0008: real time      0.0008
    --------------------------------------------
      LOOP:  cpu time     14.9495: real time     15.0083

 eigenvalue-minimisations  : 15360
 total energy-change (2. order) : 0.6522782E+00  (-0.1850252E+01)
 number of electron     375.0000045 magnetization 
 augmentation part       27.4989336 magnetization 

 Broyden mixing:
  rms(total) = 0.14246E+01    rms(broyden)= 0.14235E+01
  rms(prec ) = 0.20785E+01
  weight for this iteration     100.00

 eigenvalues of (default mixing * dielectric matrix)
  average eigenvalue GAMMA=   1.1378
  4.1947  2.0949  0.9462  0.5241  0.5241  0.2916  0.2916  0.2352

 Free energy of the ion-electron system (eV)
  ---------------------------------------------------
  alpha Z        PSCENC =       527.48178200
  Ewald energy   TEWEN  =    -14529.27944803
  -Hartree energ DENC   =     -8455.13063296
  -exchange      EXHF   =         0.00000000
  -V(xc)+E(xc)   XCENC  =      1178.10826655
  PAW double counting   =     59517.91017805   -59214.93291485
  entropy T*S    EENTRO =        -0.03450921
  eigenvalues    EBANDS =     -2249.62267006
  atomic energy  EATOM  =     22691.42155104
  Solvation  Ediel_sol  =         0.00000000
  ---------------------------------------------------
  free energy    TOTEN  =      -534.07839747 eV

  energy without entropy =     -534.04388826  energy(sigma->0) =     -534.06114286


--------------------------------------------------------------------------------------------------------




--------------------------------------- Iteration      1(  14)  ---------------------------------------


    POTLOK:  cpu time      0.0116: real time      0.0118
    SETDIJ:  cpu time      0.0016: real time      0.0016
     EDDAV:  cpu time     14.3539: real time     14.4072
       DOS:  cpu time      0.0033: real time      0.0033
    CHARGE:  cpu time      0.0758: real time      0.0762
    MIXING:  cpu time      0.0007: real time      0.0007
    --------------------------------------------
      LOOP:  cpu time     14.4470: real time     14.5008

 eigenvalue-minimisations  : 14784
 total energy-change (2. order) : 0.8664496E+00  (-0.2018058E+00)
 number of electron     375.0000046 magnetization 
 augmentation part       27.5500108 magnetization 

 Broyden mixing:
  rms(total) = 0.74993E+00    rms(broyden)= 0.74922E+00
  rms(prec ) = 0.10725E+01
  weight for this iteration     100.00

 eigenvalues of (default mixing * dielectric matrix)
  average eigenvalue GAMMA=   1.1615
  4.6812  2.0087  1.2539  0.7086  0.4693  0.4693  0.4019  0.2304  0.2304

 Free energy of the ion-electron system (eV)
  ---------------------------------------------------
  alpha Z        PSCENC =       527.48178200
  Ewald energy   TEWEN  =    -14529.27944803
  -Hartree energ DENC   =     -8458.20783879
  -exchange      EXHF   =         0.00000000
  -V(xc)+E(xc)   XCENC  =      1178.35073938
  PAW double counting   =     59940.15445451   -59637.20507007
  entropy T*S    EENTRO =        -0.04166667
  eigenvalues    EBANDS =     -2245.88645120
  atomic energy  EATOM  =     22691.42155104
  Solvation  Ediel_sol  =         0.00000000
  ---------------------------------------------------
  free energy    TOTEN  =      -533.21194784 eV

  energy without entropy =     -533.17028116  energy(sigma->0) =     -533.19111450


--------------------------------------------------------------------------------------------------------




--------------------------------------- Iteration      1(  15)  ---------------------------------------


    POTLOK:  cpu time      0.0110: real time      0.0112
    SETDIJ:  cpu time      0.0034: real time      0.0034
     EDDAV:  cpu time     14.7542: real time     14.8069
       DOS:  cpu time      0.0040: real time      0.0040
    CHARGE:  cpu time      0.0797: real time      0.0800
    MIXING:  cpu time      0.0008: real time      0.0008
    --------------------------------------------
      LOOP:  cpu time     14.8531: real time     14.9063

 eigenvalue-minimisations  : 15360
 total energy-change (2. order) :-0.1030031E+00  (-0.7192299E+00)
 number of electron     375.0000046 magnetization 
 augmentation part       27.4404714 magnetization 

 Broyden mixing:
  rms(total) = 0.11057E+01    rms(broyden)= 0.11050E+01
  rms(prec ) = 0.16390E+01
  weight for this iteration     100.00

 eigenvalues of (default mixing * dielectric matrix)
  average eigenvalue GAMMA=   1.0811
  4.6324  2.0531  1.2766  0.6489  0.6489  0.4282  0.4282  0.2489  0.2230  0.2230

 Free energy of the ion-electron system (eV)
  ---------------------------------------------------
  alpha Z        PSCENC =       527.48178200
  Ewald energy   TEWEN  =    -14529.27944803
  -Hartree energ DENC   =     -8471.13290915
  -exchange      EXHF   =         0.00000000
  -V(xc)+E(xc)   XCENC  =      1179.26679357
  PAW double counting   =     61156.56624929   -60853.74866495
  entropy T*S    EENTRO =        -0.04073759
  eigenvalues    EBANDS =     -2233.84956713
  atomic energy  EATOM  =     22691.42155104
  Solvation  Ediel_sol  =         0.00000000
  ---------------------------------------------------
  free energy    TOTEN  =      -533.31495095 eV

  energy without entropy =     -533.27421336  energy(sigma->0) =     -533.29458216


--------------------------------------------------------------------------------------------------------




--------------------------------------- Iteration      1(  16)  ---------------------------------------


    POTLOK:  cpu time      0.0113: real time      0.0115
    SETDIJ:  cpu time      0.0017: real time      0.0017
     EDDAV:  cpu time     14.6015: real time     14.6534
       DOS:  cpu time      0.0033: real time      0.0034
    CHARGE:  cpu time      0.0775: real time      0.0778
    MIXING:  cpu time      0.0008: real time      0.0008
    --------------------------------------------
      LOOP:  cpu time     14.6961: real time     14.7485

 eigenvalue-minimisations  : 15360
 total energy-change (2. order) : 0.3811827E+00  (-0.3379816E+00)
 number of electron     375.0000048 magnetization 
 augmentation part       27.4499029 magnetization 

 Broyden mixing:
  rms(total) = 0.47491E+00    rms(broyden)= 0.47387E+00
  rms(prec ) = 0.66825E+00
  weight for this iteration     100.00

 eigenvalues of (default mixing * dielectric matrix)
  average eigenvalue GAMMA=   1.0290
  4.5919  2.1136  1.0202  1.0202  0.5835  0.5835  0.3634  0.3065  0.3065  0.2147
  0.2147

 Free energy of the ion-electron system (eV)
  ---------------------------------------------------
  alpha Z        PSCENC =       527.48178200
  Ewald energy   TEWEN  =    -14529.27944803
  -Hartree energ DENC   =     -8470.27538113
  -exchange      EXHF   =         0.00000000
  -V(xc)+E(xc)   XCENC  =      1179.19968551
  PAW double counting   =     60960.81779455   -60657.97795816
  entropy T*S    EENTRO =        -0.05460915
  eigenvalues    EBANDS =     -2234.26718490
  atomic energy  EATOM  =     22691.42155104
  Solvation  Ediel_sol  =         0.00000000
  ---------------------------------------------------
  free energy    TOTEN  =      -532.93376827 eV

  energy without entropy =     -532.87915912  energy(sigma->0) =     -532.90646370


--------------------------------------------------------------------------------------------------------




--------------------------------------- Iteration      1(  17)  ---------------------------------------


    POTLOK:  cpu time      0.0114: real time      0.0116
    SETDIJ:  cpu time      0.0016: real time      0.0016
     EDDAV:  cpu time     14.8562: real time     14.9092
       DOS:  cpu time      0.0037: real time      0.0037
    CHARGE:  cpu time      0.0828: real time      0.0831
    MIXING:  cpu time      0.0009: real time      0.0009
    --------------------------------------------
      LOOP:  cpu time     14.9565: real time     15.0100

 eigenvalue-minimisations  : 15360
 total energy-change (2. order) :-0.2088883E-01  (-0.1185448E+00)
 number of electron     375.0000048 magnetization 
 augmentation part       27.4623115 magnetization 

 Broyden mixing:
  rms(total) = 0.52396E+00    rms(broyden)= 0.52339E+00
  rms(prec ) = 0.74502E+00
  weight for this iteration     100.00

 eigenvalues of (default mixing * dielectric matrix)
  average eigenvalue GAMMA=   0.9926
  4.6354  2.1129  1.2194  1.0223  0.5835  0.5835  0.3835  0.3835  0.3149  0.2480
  0.2480  0.1760

 Free energy of the ion-electron system (eV)
  ---------------------------------------------------
  alpha Z        PSCENC =       527.48178200
  Ewald energy   TEWEN  =    -14529.27944803
  -Hartree energ DENC   =     -8468.80028778
  -exchange      EXHF   =         0.00000000
  -V(xc)+E(xc)   XCENC  =      1179.10154517
  PAW double counting   =     60837.19055375   -60534.31414519
  entropy T*S    EENTRO =        -0.05507817
  eigenvalues    EBANDS =     -2235.70112988
  atomic energy  EATOM  =     22691.42155104
  Solvation  Ediel_sol  =         0.00000000
  ---------------------------------------------------
  free energy    TOTEN  =      -532.95465710 eV

  energy without entropy =     -532.89957893  energy(sigma->0) =     -532.92711802


--------------------------------------------------------------------------------------------------------




--------------------------------------- Iteration      1(  18)  ---------------------------------------


    POTLOK:  cpu time      0.0112: real time      0.0114
    SETDIJ:  cpu time      0.0016: real time      0.0016
     EDDAV:  cpu time     13.7011: real time     13.7561
       DOS:  cpu time      0.0036: real time      0.0036
    CHARGE:  cpu time      0.0756: real time      0.0759
    MIXING:  cpu time      0.0010: real time      0.0010
    --------------------------------------------
      LOOP:  cpu time     13.7942: real time     13.8497

 eigenvalue-minimisations  : 14112
 total energy-change (2. order) :-0.1908178E-01  (-0.2326668E-02)
 number of electron     375.0000048 magnetization 
 augmentation part       27.4556993 magnetization 

 Broyden mixing:
  rms(total) = 0.59573E+00    rms(broyden)= 0.59568E+00
  rms(prec ) = 0.85591E+00
  weight for this iteration     100.00

 eigenvalues of (default mixing * dielectric matrix)
  average eigenvalue GAMMA=   1.1088
  4.8482  2.4860  1.8747  0.9573  0.9573  0.9359  0.4339  0.4339  0.4305  0.3204
  0.3204  0.2083  0.2083

 Free energy of the ion-electron system (eV)
  ---------------------------------------------------
  alpha Z        PSCENC =       527.48178200
  Ewald energy   TEWEN  =    -14529.27944803
  -Hartree energ DENC   =     -8470.08730218
  -exchange      EXHF   =         0.00000000
  -V(xc)+E(xc)   XCENC  =      1179.19018256
  PAW double counting   =     60875.16375099   -60572.29639735
  entropy T*S    EENTRO =        -0.05068532
  eigenvalues    EBANDS =     -2234.51717260
  atomic energy  EATOM  =     22691.42155104
  Solvation  Ediel_sol  =         0.00000000
  ---------------------------------------------------
  free energy    TOTEN  =      -532.97373888 eV

  energy without entropy =     -532.92305356  energy(sigma->0) =     -532.94839622


--------------------------------------------------------------------------------------------------------




--------------------------------------- Iteration      1(  19)  ---------------------------------------


    POTLOK:  cpu time      0.0112: real time      0.0115
    SETDIJ:  cpu time      0.0017: real time      0.0017
     EDDAV:  cpu time     14.3690: real time     14.4217
       DOS:  cpu time      0.0031: real time      0.0031
    CHARGE:  cpu time      0.0746: real time      0.0749
    MIXING:  cpu time      0.0009: real time      0.0010
    --------------------------------------------
      LOOP:  cpu time     14.4605: real time     14.5138

 eigenvalue-minimisations  : 15360
 total energy-change (2. order) : 0.4658250E-01  (-0.1056790E-01)
 number of electron     375.0000048 magnetization 
 augmentation part       27.4644967 magnetization 

 Broyden mixing:
  rms(total) = 0.41789E+00    rms(broyden)= 0.41772E+00
  rms(prec ) = 0.61217E+00
  weight for this iteration     100.00

[...]
   -.743E+01 0.122E+02 -.563E+01   0.100E+02 -.184E+02 0.864E+01   -.175E+01 0.520E+01 -.199E+01   0.527E-02 -.940E-02 0.542E-02
   -.437E+02 0.120E+03 -.468E+02   0.440E+02 -.117E+03 0.451E+02   0.117E+01 -.469E+01 0.244E+01   0.244E-02 0.140E-02 -.115E-02
   -.323E+01 -.839E+00 -.137E+01   0.355E+01 0.112E+01 0.182E+01   -.949E-01 -.198E+00 -.127E+00   0.514E-03 -.304E-03 -.472E-03
   -.763E+01 -.518E+01 -.852E+00   0.823E+01 0.550E+01 -.179E+00   -.438E+00 -.304E+00 0.551E+00   -.140E-02 -.139E-02 0.995E-03
   0.907E+01 -.104E+02 -.515E+01   -.939E+01 0.159E+02 0.110E+02   -.265E+00 -.416E+01 -.461E+01   -.514E-03 -.102E-01 -.135E-01
   0.139E+02 -.186E+02 0.931E+00   -.140E+02 0.187E+02 -.228E+01   -.119E+00 -.867E-01 0.391E+00   0.145E-02 0.135E-03 0.236E-02
   0.671E+01 0.554E+01 -.264E+01   -.719E+01 -.547E+01 0.296E+01   0.598E-02 -.254E+00 0.143E-01   -.193E-02 0.662E-03 0.197E-02
   0.732E+01 0.618E+01 0.644E+00   -.800E+01 -.595E+01 -.126E+01   0.308E+00 -.245E+00 0.265E+00   -.311E-02 -.488E-03 -.229E-02
   -.307E+01 -.165E+02 0.762E+01   0.377E+01 0.158E+02 -.637E+01   -.443E+00 0.481E+00 -.398E+00   -.279E-02 0.208E-02 -.136E-02
   -.920E+01 -.237E+02 -.561E+01   0.118E+02 0.300E+02 0.246E+01   -.172E+01 -.523E+01 0.202E+01   -.527E-02 -.763E-02 0.530E-02
   0.111E+02 0.918E+01 0.839E+01   -.112E+02 -.954E+01 -.728E+01   -.107E+00 0.196E+00 -.328E+00   -.204E-02 0.603E-05 0.209E-02
   0.198E+02 0.182E+02 -.982E+01   -.198E+02 -.237E+02 0.375E+01   -.364E+00 0.420E+01 0.472E+01   0.107E-03 -.895E-02 -.115E-01
   -.638E+01 0.231E+01 0.706E+01   0.697E+01 -.269E+01 -.599E+01   -.413E+00 0.317E+00 -.571E+00   0.183E-02 -.177E-02 0.102E-02
   -.110E+02 0.471E+01 -.717E+01   0.110E+02 -.496E+01 0.642E+01   0.153E-01 0.195E+00 0.214E+00   -.779E-04 -.635E-03 -.418E-03
   0.376E+01 -.385E+01 0.239E+01   -.439E+01 0.364E+01 -.167E+01   0.309E+00 0.230E+00 -.294E+00   0.346E-02 -.515E-03 -.274E-02
   0.734E+01 -.563E+01 -.125E+01   -.777E+01 0.557E+01 0.862E+00   -.259E-01 0.260E+00 0.931E-02   0.258E-02 0.348E-03 0.262E-02
   -.124E+02 0.893E+02 -.355E+02   0.236E+02 -.123E+03 0.519E+02   -.112E+02 0.328E+02 -.164E+02   -.287E-02 0.263E-01 0.353E-02
   0.405E+02 0.579E+02 0.281E+02   -.489E+02 -.742E+02 -.383E+02   0.817E+01 0.162E+02 0.988E+01   -.299E-02 -.606E-02 0.100E-02
   0.420E+02 0.576E+02 0.356E+02   -.504E+02 -.738E+02 -.464E+02   0.829E+01 0.160E+02 0.108E+02   -.115E-02 -.368E-02 -.316E-03
   0.460E+02 0.489E+02 0.267E+02   -.548E+02 -.636E+02 -.366E+02   0.884E+01 0.139E+02 0.975E+01   0.535E-02 -.186E-01 -.297E-02
   0.433E+02 0.552E+02 0.362E+02   -.519E+02 -.713E+02 -.471E+02   0.847E+01 0.159E+02 0.109E+02   0.109E-02 -.194E-02 0.496E-03
   0.514E+02 0.593E+02 0.268E+02   -.607E+02 -.756E+02 -.369E+02   0.930E+01 0.162E+02 0.990E+01   0.176E-02 0.618E-02 0.214E-02
   0.446E+02 0.580E+02 0.363E+02   -.533E+02 -.742E+02 -.470E+02   0.864E+01 0.160E+02 0.107E+02   -.204E-02 0.199E-02 -.163E-02
   -.229E+02 0.238E+02 0.751E+02   0.406E+02 -.233E+02 -.858E+02   -.172E+02 -.581E+00 0.105E+02   -.147E-02 0.265E-02 -.439E-03
   -.395E+01 0.759E+02 0.472E+02   0.347E+01 -.103E+03 -.746E+02   0.745E+00 0.269E+02 0.271E+02   -.800E-02 0.258E-01 0.312E-02
   -.741E+02 -.103E+02 0.426E+02   0.925E+02 0.111E+02 -.528E+02   -.182E+02 -.846E+00 0.989E+01   -.187E-02 -.100E-02 -.799E-03
   -.795E+02 -.143E+02 0.272E+02   0.985E+02 0.166E+02 -.381E+02   -.191E+02 -.298E+01 0.106E+02   -.998E-02 -.126E-01 0.961E-03
   -.693E+02 0.126E+02 0.391E+02   0.875E+02 -.119E+02 -.493E+02   -.179E+02 -.800E+00 0.100E+02   0.214E-02 -.225E-02 -.190E-02
   -.660E+02 0.781E+01 0.271E+02   0.839E+02 -.694E+01 -.380E+02   -.176E+02 -.870E+00 0.109E+02   0.812E-02 -.702E-02 0.366E-02
   -.981E+02 0.135E+02 0.497E+02   0.117E+03 -.128E+02 -.600E+02   -.182E+02 -.864E+00 0.995E+01   0.134E-02 0.418E-03 0.142E-02
   -.885E+02 0.131E+02 0.225E+02   0.108E+03 -.126E+02 -.333E+02   -.189E+02 -.419E+00 0.109E+02   0.301E-03 0.219E-02 -.233E-02
   0.292E+02 -.454E+02 0.397E+02   -.390E+02 0.596E+02 -.488E+02   0.100E+02 -.135E+02 0.828E+01   -.166E-02 -.657E-02 0.818E-02
   0.376E+02 -.452E+01 0.511E+00   -.472E+02 0.185E+02 -.122E+02   0.901E+01 -.134E+02 0.122E+02   0.866E-02 -.385E-02 -.946E-02
   0.166E+02 -.760E+02 0.362E+02   -.260E+02 0.916E+02 -.461E+02   0.920E+01 -.155E+02 0.951E+01   -.506E-03 0.334E-02 0.583E-05
   0.404E+01 -.902E+02 0.223E+02   -.127E+02 0.106E+03 -.338E+02   0.781E+01 -.159E+02 0.120E+02   -.792E-02 -.468E-02 0.354E-02
   0.407E+02 -.757E+02 0.299E+02   -.512E+02 0.917E+02 -.389E+02   0.110E+02 -.158E+02 0.800E+01   0.523E-02 -.131E-02 -.149E-01
   0.515E+02 -.843E+02 0.343E+02   -.623E+02 0.101E+03 -.463E+02   0.108E+02 -.163E+02 0.122E+02   0.453E-02 0.378E-02 0.649E-02
   0.278E+02 -.633E+02 0.345E+02   -.376E+02 0.788E+02 -.446E+02   0.981E+01 -.152E+02 0.978E+01   0.179E-03 -.199E-02 0.214E-03
   0.257E+02 -.615E+02 0.291E+02   -.358E+02 0.769E+02 -.401E+02   0.998E+01 -.153E+02 0.109E+02   -.450E-02 -.253E-02 -.768E-03
   0.403E+02 -.904E+02 0.203E+02   -.480E+02 0.107E+03 -.898E+01   0.756E+01 -.165E+02 -.115E+02   -.271E-02 0.543E-02 0.179E-02
   -.122E+02 -.104E+03 -.288E+01   0.236E+02 0.137E+03 -.138E+02   -.114E+02 -.326E+02 0.168E+02   -.170E-02 0.250E-01 0.415E-02
   0.504E+02 -.473E+02 -.235E+02   -.589E+02 0.634E+02 0.344E+02   0.853E+01 -.157E+02 -.109E+02   -.131E-02 -.197E-02 0.473E-03
   0.509E+02 -.436E+02 -.382E+02   -.596E+02 0.583E+02 0.481E+02   0.874E+01 -.138E+02 -.960E+01   -.489E-02 -.161E-01 -.228E-02
   0.349E+02 -.497E+02 -.229E+02   -.433E+02 0.659E+02 0.337E+02   0.829E+01 -.159E+02 -.109E+02   0.139E-02 -.412E-02 -.447E-03
   0.357E+02 -.525E+02 -.396E+02   -.442E+02 0.689E+02 0.497E+02   0.822E+01 -.162E+02 -.970E+01   0.301E-02 -.690E-02 0.144E-02
   0.446E+02 -.602E+02 -.265E+02   -.533E+02 0.765E+02 0.373E+02   0.861E+01 -.160E+02 -.108E+02   0.231E-02 0.215E-02 -.199E-02
   0.514E+02 -.610E+02 -.359E+02   -.607E+02 0.773E+02 0.460E+02   0.928E+01 -.162E+02 -.983E+01   0.265E-03 0.599E-02 0.291E-02
   0.270E+02 0.450E+02 -.391E+02   -.363E+02 -.591E+02 0.513E+02   0.879E+01 0.135E+02 -.129E+02   -.105E-01 -.366E-02 -.110E-01
   0.312E+02 0.241E+02 -.357E+02   -.409E+02 -.384E+02 0.446E+02   0.100E+02 0.137E+02 -.809E+01   0.741E-03 -.522E-02 0.789E-02
   0.448E+02 0.771E+02 -.381E+02   -.556E+02 -.933E+02 0.500E+02   0.109E+02 0.162E+02 -.121E+02   -.489E-02 0.441E-02 0.469E-02
   0.655E+02 0.839E+02 -.365E+02   -.761E+02 -.998E+02 0.455E+02   0.110E+02 0.158E+02 -.815E+01   -.464E-02 -.109E-02 -.126E-01
   0.141E+02 0.743E+02 -.295E+02   -.227E+02 -.902E+02 0.409E+02   0.776E+01 0.160E+02 -.118E+02   0.940E-02 -.585E-02 0.386E-02
   -.286E+02 0.993E+02 -.590E+02   0.193E+02 -.114E+03 0.689E+02   0.909E+01 0.148E+02 -.952E+01   0.107E-02 0.241E-02 -.757E-04
   0.290E+02 0.650E+02 -.323E+02   -.390E+02 -.805E+02 0.432E+02   0.987E+01 0.153E+02 -.109E+02   0.523E-02 -.266E-02 -.112E-02
   0.276E+02 0.660E+02 -.334E+02   -.374E+02 -.814E+02 0.435E+02   0.978E+01 0.152E+02 -.977E+01   0.233E-03 -.183E-02 0.587E-03
   -.104E+02 -.768E+02 -.725E+02   0.101E+02 0.103E+03 0.999E+02   0.623E+00 -.267E+02 -.271E+02   0.462E-02 0.254E-01 0.347E-02
   -.210E+02 -.555E+02 -.122E+02   0.390E+02 0.552E+02 0.227E+02   -.178E+02 0.433E+00 -.104E+02   0.776E-03 0.299E-02 -.314E-03
   -.654E+02 -.494E+01 -.372E+02   0.833E+02 0.409E+01 0.480E+02   -.176E+02 0.860E+00 -.108E+02   -.715E-02 -.621E-02 0.316E-02
   -.654E+02 -.494E+01 -.273E+02   0.835E+02 0.417E+01 0.377E+02   -.178E+02 0.836E+00 -.101E+02   -.210E-02 -.223E-02 -.176E-02
   -.800E+02 0.132E+02 -.417E+02   0.990E+02 -.156E+02 0.525E+02   -.191E+02 0.306E+01 -.105E+02   0.961E-02 -.143E-01 0.147E-03
   -.869E+02 0.582E+02 -.151E+02   0.106E+03 -.595E+02 0.251E+02   -.186E+02 0.158E+01 -.969E+01   0.184E-02 -.170E-02 -.714E-03
   -.835E+02 -.136E+02 -.387E+02   0.103E+03 0.131E+02 0.494E+02   -.190E+02 0.457E+00 -.107E+02   0.123E-02 0.264E-02 -.225E-02
   -.983E+02 -.237E+02 -.241E+02   0.117E+03 0.229E+02 0.344E+02   -.181E+02 0.905E+00 -.101E+02   -.713E-03 0.667E-03 0.132E-02
 -----------------------------------------------------------------------------------------------
   0.157E+02 0.178E+02 0.117E+02   0.128E-12 0.394E-12 -.135E-12   -.157E+02 -.178E+02 -.116E+02   -.372E-02 -.465E-01 -.961E-02
 
 
 POSITION                                       TOTAL-FORCE (eV/Angst)
 -----------------------------------------------------------------------------------
      2.61028     -0.00000      0.00000        -1.351620      1.609549     -1.449854
      5.06777      4.25649      0.00000        -0.043979     -0.000686      0.043838
      5.06777      4.25649      5.43130         0.084664      0.090352      0.299883
      5.06777     -4.25649      0.00000        -0.078801      0.026090      0.105205
      5.06777     -4.25649      5.43130         0.099814     -0.076538     -0.395021
      7.52525      0.00000      0.00000        -0.034293      0.022733      0.037808
      7.52525      0.00000      5.43130        -0.031358     -0.015058     -0.030939
      1.15234      1.99591      3.62087         0.857453     -0.995108      1.020353
      1.15234      1.99591      9.05217         1.515115     -1.950370      0.761828
      3.60982      6.25240      3.62087         0.220355      0.078124      0.321312
      3.60982      6.25240      9.05217         0.163702      0.018675     -0.479564
      3.60982     -2.26057      3.62087        -0.583480      1.258957      1.271788
      3.60982     -2.26057      9.05217        -0.208839      0.054996     -0.956948
      6.06731      1.99591      3.62087        -0.477899     -0.190039      0.341771
      6.06731      1.99591      9.05217        -0.369377     -0.014855     -0.355733
      1.15234     -1.99591      1.81043         0.254689     -0.145204      0.848602
      1.15234     -1.99591      7.24173         0.832903      1.007290     -1.126710
      3.60982      2.26057      1.81043        -0.260809     -0.166642      0.782801
      3.60982      2.26057      7.24173        -0.341760     -1.300387     -1.356701
      3.60982     -6.25240      1.81043         0.181293     -0.065642      0.500756
      3.60982     -6.25240      7.24173         0.052902     -0.057219     -0.531741
      6.06731     -1.99591      1.81043        -0.322509      0.018440      0.425015
      6.06731     -1.99591      7.24173        -0.454540      0.200437     -0.376191
      1.67752      0.61366      4.26298         0.010193     -0.590764      0.028828
      4.13500      4.87015      4.26298        -0.236949     -0.123238     -0.303667
      4.13500      4.87015      9.69428        -0.140631     -0.236496     -0.015565
      4.13500     -3.64282      4.26298         0.068940     -0.891557     -0.153096
      4.13500     -3.64282      9.69428        -0.083033     -0.270984      0.033475
      6.59249      0.61366      4.26298         0.036184     -0.147033     -0.211935
      6.59249      0.61366      9.69428        -0.047457     -0.253637     -0.029252
      3.54476      1.14594      0.64211         0.509681     -0.057316     -0.166428
      3.54476      1.14594      6.07341         0.258761      0.117949     -0.323263
      6.00224      5.40243      0.64211         0.175854     -0.086393     -0.299638
      6.00224      5.40243      6.07341        -0.059961     -0.663831     -0.214987
      6.00224     -3.11054      0.64211         0.274806     -0.064415     -0.249380
      6.00224     -3.11054      6.07341         0.343669     -0.002564      0.029493
      8.45972      1.14594      0.64211         0.188460     -0.093552     -0.273859
      8.45972      1.14594      6.07341         0.110556      0.085989      0.013687
      2.15017      2.49688      2.45255         0.222239      0.672000     -0.828571
      2.15017      2.49688      7.88385        -0.619525      0.548085      0.550470
      4.60765      6.75336      2.45255        -0.200624      0.180638     -0.329080
      4.60765      6.75336      7.88385        -0.853438     -0.062230      0.474069
      4.60765     -1.75961      2.45255         0.444477      0.107435     -0.922221
      4.60765     -1.75961      7.88385         0.054826      0.026517      0.247466
      7.06514      2.49688      2.45255        -0.022065      0.246021     -0.324537
      7.06514      2.49688      7.88385        -0.058122      0.215055      0.010463
      1.67752     -0.61366      1.16832        -0.218089      0.327221     -0.133852
      1.67752     -0.61366      6.59962         0.014249      0.606608      0.110708
      4.13500      3.64282      1.16832        -0.049310      0.331393     -0.052227
      4.13500      3.64282      6.59962         0.031933      0.876469      0.202817
      4.13500     -4.87015      1.16832        -0.130051      0.264188     -0.018932
      4.13500     -4.87015      6.59962        -0.241973      0.092608      0.366135
      6.59249     -0.61366      1.16832        -0.053200      0.247739      0.004630
      6.59249     -0.61366      6.59962         0.025915      0.140237      0.234218
      2.15017     -2.49688      2.97876        -0.588674     -0.545872     -0.652771
      2.15017     -2.49688      8.41006         0.242794     -0.643530      0.898546
      4.60765      1.75961      2.97876         0.090856     -0.025367     -0.199572
      4.60765      1.75961      8.41006         0.420098     -0.103013      0.886370
      4.60765     -6.75336      2.97876        -0.850694      0.072754     -0.438058
      4.60765     -6.75336      8.41006        -0.184170     -0.320397      0.432149
      7.06514     -2.49688      2.97876        -0.102540     -0.210550     -0.016187
      7.06514     -2.49688      8.41006        -0.029539     -0.247680      0.324298
      3.54476     -1.14594      4.78919         0.294441     -0.119017      0.339045
      3.54476     -1.14594     10.22049         0.224847      0.123896      0.191740
      6.00224      3.11054      4.78919         0.344026      0.006761     -0.000173
      6.00224      3.11054     10.22049         0.295180      0.063265      0.217290
      6.00224     -5.40243      4.78919        -0.078359      0.695881      0.259603
      6.00224     -5.40243     10.22049         0.148972      0.271769      0.328929
      8.45972     -1.14594      4.78919         0.090259     -0.059367      0.030024
      8.45972     -1.14594     10.22049         0.222564      0.090433      0.241238
 -----------------------------------------------------------------------------------
    total drift:                                0.011623     -0.003164     -0.001115


--------------------------------------------------------------------------------------------------------



  FREE ENERGIE OF THE ION-ELECTRON SYSTEM (eV)
  ---------------------------------------------------
  free  energy   TOTEN  =      -532.90846167 eV

  energy  without entropy=     -532.83402017  energy(sigma->0) =     -532.87124092
 


--------------------------------------------------------------------------------------------------------


    POTLOK:  cpu time      0.0133: real time      0.0134


--------------------------------------------------------------------------------------------------------


 stress matrix after NEB project (eV)
     39.73681      2.56197     -2.40441
      2.56197     40.39670      3.27868
     -2.40441      3.27868     37.28349
  FORCES: max atom, RMS     2.584550    0.821275
  FORCE total and by dimension    6.871279    1.950370
  Stress total and by dimension   68.170048   40.396703
 writing wavefunctions
     LOOP+:  cpu time    582.0977: real time    584.3626
    4ORBIT:  cpu time      0.0000: real time      0.0000



 total charge

# of ion       s       p       d       tot
------------------------------------------
    1        0.673   0.928   0.000   1.601
    2        0.648   1.010   0.000   1.658
    3        0.648   1.010   0.000   1.658
    4        0.649   1.010   0.000   1.659
    5        0.648   1.010   0.000   1.658
    6        0.648   1.010   0.000   1.658
    7        0.647   1.008   0.000   1.655
    8        0.667   1.030   0.000   1.698
    9        0.670   0.925   0.000   1.595
   10        0.647   1.008   0.000   1.656
   11        0.649   1.011   0.000   1.660
   12        0.667   1.030   0.000   1.698
   13        0.648   1.009   0.000   1.657
   14        0.647   1.008   0.000   1.655
   15        0.648   1.010   0.000   1.659
   16        0.648   1.009   0.000   1.657
   17        0.667   1.031   0.000   1.698
   18        0.648   1.009   0.000   1.656
   19        0.667   1.030   0.000   1.698
   20        0.649   1.011   0.000   1.660
   21        0.648   1.008   0.000   1.656
   22        0.649   1.010   0.000   1.659
   23        0.647   1.008   0.000   1.655
   24        1.598   3.335   0.000   4.933
   25        1.548   3.708   0.000   5.256
   26        1.549   3.707   0.000   5.256
   27        1.550   3.703   0.000   5.253
   28        1.550   3.706   0.000   5.256
   29        1.549   3.706   0.000   5.254
   30        1.549   3.707   0.000   5.256
   31        1.553   3.696   0.000   5.249
   32        1.597   3.333   0.000   4.931
   33        1.549   3.707   0.000   5.256
   34        1.551   3.699   0.000   5.250
   35        1.549   3.707   0.000   5.256
   36        1.549   3.707   0.000   5.256
   37        1.549   3.707   0.000   5.256
   38        1.549   3.704   0.000   5.253
   39        1.549   3.707   0.000   5.256
   40        1.555   3.688   0.000   5.242
   41        1.548   3.708   0.000   5.256
   42        1.552   3.701   0.000   5.253
   43        1.551   3.701   0.000   5.252
   44        1.550   3.700   0.000   5.250
   45        1.549   3.708   0.000   5.257
   46        1.549   3.706   0.000   5.255
   47        1.554   3.691   0.000   5.245
   48        1.598   3.336   0.000   4.934
   49        1.549   3.707   0.000   5.256
   50        1.550   3.703   0.000   5.253
   51        1.549   3.707   0.000   5.256
   52        1.548   3.708   0.000   5.256
   53        1.549   3.707   0.000   5.256
   54        1.549   3.706   0.000   5.254
   55        1.550   3.702   0.000   5.252
   56        1.549   3.706   0.000   5.256
   57        1.550   3.700   0.000   5.249
   58        1.551   3.700   0.000   5.251
   59        1.552   3.700   0.000   5.252
   60        1.551   3.698   0.000   5.249
   61        1.549   3.706   0.000   5.255
   62        1.549   3.708   0.000   5.257
   63        1.597   3.335   0.000   4.933
   64        1.554   3.691   0.000   5.245
   65        1.548   3.707   0.000   5.256
   66        1.549   3.708   0.000   5.256
   67        1.551   3.699   0.000   5.250
   68        1.554   3.695   0.000   5.249
   69        1.549   3.704   0.000   5.253
   70        1.549   3.707   0.000   5.256
--------------------------------------------------
tot         88.072 195.711   0.000 283.783
 

 total amount of memory used by VASP MPI-rank0   166467. kBytes
=======================================================================

   base      :      30000. kBytes
   nonl-proj :      98565. kBytes
   fftplans  :       1721. kBytes
   grid      :       9701. kBytes
   one-center:        215. kBytes
   wavefun   :      26265. kBytes
 
  
  
 General timing and accounting informations for this job:
 ========================================================
  
                  Total CPU time used (sec):      599.789
                            User time (sec):      596.158
                          System time (sec):        3.632
                         Elapsed time (sec):      603.763
  
                   Maximum memory used (kb):      435768.
                   Average memory used (kb):          N/A
  
                          Minor page faults:       237137
                          Major page faults:          337
                 Voluntary context switches:         4761
