 vasp.5.3.3 18Dez12 (build Oct 02 2015 10:56:41) complex                        
  
 executed on             LinuxIFC date 2020.05.07  19:04:59
 running on   24 total cores
 distrk:  each k-point on   24 cores,    1 groups
 distr:  one band on NCORES_PER_BAND=   1 cores,   24 groups


--------------------------------------------------------------------------------------------------------


 INCAR:
 POTCAR:    PAW_PBE Si 05Jan2001                  

 ----------------------------------------------------------------------------- 
|                                                                             |
|           W    W    AA    RRRRR   N    N  II  N    N   GGGG   !!!           |
|           W    W   A  A   R    R  NN   N  II  NN   N  G    G  !!!           |
|           W    W  A    A  R    R  N N  N  II  N N  N  G       !!!           |
|           W WW W  AAAAAA  RRRRR   N  N N  II  N  N N  G  GGG   !            |
|           WW  WW  A    A  R   R   N   NN  II  N   NN  G    G                |
|           W    W  A    A  R    R  N    N  II  N    N   GGGG   !!!           |
|                                                                             |
|      For optimal performance we recommend that you set                      |
|        NPAR = 4 - approx SQRT( number of cores)                             |
|      (number of cores/NPAR must be integer)                                 |
|      This setting will greatly improve the performance of VASP for DFT.     |
|      The default NPAR=number of cores might be grossly inefficient          |
|      on modern multi-core architectures or massively parallel machines.     |
|      Do your own testing.                                                   |
|      Unfortunately you need to use the default for hybrid, GW and RPA       |
|      calculations.                                                          |
|                                                                             |
 ----------------------------------------------------------------------------- 

 POTCAR:    PAW_PBE Si 05Jan2001                  
   VRHFIN =Si: s2p2                                                             
   LEXCH  = PE                                                                  
   EATOM  =   103.0669 eV,    7.5752 Ry                                         
                                                                                
   TITEL  = PAW_PBE Si 05Jan2001                                                
   LULTRA =        F    use ultrasoft PP ?                                      
   IUNSCR =        1    unscreen: 0-lin 1-nonlin 2-no                           
   RPACOR =    1.500    partial core radius                                     
   POMASS =   28.085; ZVAL   =    4.000    mass and valenz                      
   RCORE  =    1.900    outmost cutoff radius                                   
   RWIGS  =    2.480; RWIGS  =    1.312    wigner-seitz radius (au A)           
   ENMAX  =  245.345; ENMIN  =  184.009 eV                                      
   ICORE  =        2    local potential                                         
   LCOR   =        T    correct aug charges                                     
   LPAW   =        T    paw PP                                                  
   EAUG   =  322.069                                                            
   DEXC   =    0.000                                                            
   RMAX   =    1.950    core radius for proj-oper                               
   RAUG   =    1.300    factor for augmentation sphere                          
   RDEP   =    1.993    radius for radial grids                                 
   RDEPT  =    1.837    core radius for aug-charge                              
                                                                                
   Atomic configuration                                                         
    6 entries                                                                   
     n  l   j            E        occ.                                          
     1  0  0.50     -1785.8828   2.0000                                         
     2  0  0.50      -139.4969   2.0000                                         
     2  1  1.50       -95.5546   6.0000                                         
     3  0  0.50       -10.8127   2.0000                                         
     3  1  0.50        -4.0811   2.0000                                         
     3  2  1.50        -4.0817   0.0000                                         
   Description                                                                  
     l       E           TYP  RCUT    TYP  RCUT                                 
     0    -10.8127223     23  1.900                                             
     0     -7.6451159     23  1.900                                             
     1     -4.0811372     23  1.900                                             
     1      2.4879257     23  1.900                                             
     2     -4.0817478      7  1.900                                             
  local pseudopotential read in
  partial core-charges read in
  partial kinetic energy density read in
  atomic valenz-charges read in
  non local Contribution for L=           0  read in
    real space projection operators read in
  non local Contribution for L=           0  read in
    real space projection operators read in
  non local Contribution for L=           1  read in
    real space projection operators read in
  non local Contribution for L=           1  read in
    real space projection operators read in
    PAW grid and wavefunctions read in
 
   number of l-projection  operators is LMAX  =           4
   number of lm-projection operators is LMMAX =           8
 
  PAW_PBE Si 05Jan2001                  :
 energy of atom  1       EATOM= -103.0669
 kinetic energy error for atom=    0.0056 (will be added to EATOM!!)
 
 
 POSCAR: Si2                                     
  positions in direct lattice
  No initial velocities read in
 exchange correlation table for  LEXCH =        8
   RHO(1)=    0.500       N(1)  =     2000
   RHO(2)=  100.500       N(2)  =     4000
 


--------------------------------------------------------------------------------------------------------


 ion  position               nearest neighbor table
   1  0.875  0.875  0.875-   2 2.35   2 2.35   2 2.35   2 2.35
   2  0.125  0.125  0.125-   1 2.35   1 2.35   1 2.35   1 2.35
 
  LATTYP: Found a face centered cubic cell.
 ALAT       =     5.4304994693
  
  Lattice vectors:
  
 A1 = (   3.3254890000,   0.0000000000,   1.9199720000)
 A2 = (   1.1084960000,   3.1353010000,   1.9199720000)
 A3 = (   0.0000000000,   0.0000000000,   3.8399430000)


Analysis of symmetry for initial positions (statically):
=====================================================================
 Subroutine PRICEL returns:
 Original cell was already a primitive cell.
 

 Routine SETGRP: Setting up the symmetry group for a 
 face centered cubic supercell.


 Subroutine GETGRP returns: Found 48 space group operations
 (whereof 12 operations were pure point group operations)
 out of a pool of 48 trial point group operations.


The static configuration has the point symmetry D_3d.
 The point group associated with its full space group is O_h .


Analysis of symmetry for dynamics (positions and initial velocities):
=====================================================================
 Subroutine PRICEL returns:
 Original cell was already a primitive cell.
 

 Routine SETGRP: Setting up the symmetry group for a 
 face centered cubic supercell.


 Subroutine GETGRP returns: Found 48 space group operations
 (whereof 12 operations were pure point group operations)
 out of a pool of 48 trial point group operations.


The dynamic configuration has the point symmetry D_3d.
 The point group associated with its full space group is O_h .


 irot  :   1
 --------------------------------------------------------------------
 isymop:   1   0   0
           0   1   0
           0   0   1

 gtrans:     0.0000000     0.0000000     0.0000000

 ptrans:     0.0000000     0.0000000     0.0000000
 rotmap:
 (   1->   1)  (   2->   2) 


 irot  :   2
 --------------------------------------------------------------------
 isymop:  -1   0   0
           0  -1   0
           0   0  -1

 gtrans:     0.0000000     0.0000000     0.0000000

 ptrans:     0.0000000     0.0000000     0.0000000
 rotmap:
 (   1->   2)  (   2->   1) 


 irot  :   3
 --------------------------------------------------------------------
 isymop:   0   0   1
           1   0   0
           0   1   0

 gtrans:     0.0000000     0.0000000     0.0000000

 ptrans:     0.0000000     0.0000000     0.0000000
 rotmap:
 (   1->   1)  (   2->   2) 


 irot  :   4
 --------------------------------------------------------------------
 isymop:   0   0  -1
          -1   0   0
           0  -1   0

 gtrans:     0.0000000     0.0000000     0.0000000

 ptrans:     0.0000000     0.0000000     0.0000000
 rotmap:
 (   1->   2)  (   2->   1) 


 irot  :   5
 --------------------------------------------------------------------
 isymop:   0   1   0
           0   0   1
           1   0   0

 gtrans:     0.0000000     0.0000000     0.0000000

 ptrans:     0.0000000     0.0000000     0.0000000
 rotmap:
 (   1->   1)  (   2->   2) 


 irot  :   6
 --------------------------------------------------------------------
 isymop:   0  -1   0
           0   0  -1
          -1   0   0

 gtrans:     0.0000000     0.0000000     0.0000000

 ptrans:     0.0000000     0.0000000     0.0000000
 rotmap:
 (   1->   2)  (   2->   1) 


 irot  :   7
 --------------------------------------------------------------------
 isymop:  -1   0   0
           0   0  -1
           0  -1   0

 gtrans:     0.0000000     0.0000000     0.0000000

 ptrans:     0.0000000     0.0000000     0.0000000
 rotmap:
 (   1->   2)  (   2->   1) 


 irot  :   8
 --------------------------------------------------------------------
 isymop:   1   0   0
           0   0   1
           0   1   0

 gtrans:     0.0000000     0.0000000     0.0000000

 ptrans:     0.0000000     0.0000000     0.0000000
 rotmap:
 (   1->   1)  (   2->   2) 


 irot  :   9
 --------------------------------------------------------------------
 isymop:   0  -1   0
          -1   0   0
           0   0  -1

 gtrans:     0.0000000     0.0000000     0.0000000

 ptrans:     0.0000000     0.0000000     0.0000000
 rotmap:
 (   1->   2)  (   2->   1) 


 irot  :  10
 --------------------------------------------------------------------
 isymop:   0   1   0
           1   0   0
           0   0   1

 gtrans:     0.0000000     0.0000000     0.0000000

 ptrans:     0.0000000     0.0000000     0.0000000
 rotmap:
 (   1->   1)  (   2->   2) 


 irot  :  11
 --------------------------------------------------------------------
 isymop:   0   0  -1
           0  -1   0
          -1   0   0

 gtrans:     0.0000000     0.0000000     0.0000000

 ptrans:     0.0000000     0.0000000     0.0000000
 rotmap:
 (   1->   2)  (   2->   1) 


 irot  :  12
 --------------------------------------------------------------------
 isymop:   0   0   1
           0   1   0
           1   0   0

 gtrans:     0.0000000     0.0000000     0.0000000

 ptrans:     0.0000000     0.0000000     0.0000000
 rotmap:
 (   1->   1)  (   2->   2) 


 irot  :  13
 --------------------------------------------------------------------
 isymop:   1   1   1
           0   0  -1
          -1   0   0

 gtrans:     0.5000000     0.0000000     0.0000000

 ptrans:     0.0000000     0.0000000     0.0000000
 rotmap:
 (   1->   2)  (   2->   1) 


 irot  :  14
 --------------------------------------------------------------------
 isymop:  -1  -1  -1
           0   0   1
           1   0   0

 gtrans:     0.5000000     0.0000000     0.0000000

 ptrans:     0.0000000     0.0000000     0.0000000
 rotmap:
 (   1->   1)  (   2->   2) 


 irot  :  15
 --------------------------------------------------------------------
 isymop:   1   1   1
           0  -1   0
           0   0  -1

 gtrans:     0.5000000     0.0000000     0.0000000

 ptrans:     0.0000000     0.0000000     0.0000000
 rotmap:
 (   1->   2)  (   2->   1) 


 irot  :  16
 --------------------------------------------------------------------
 isymop:  -1  -1  -1
           0   1   0
           0   0   1

 gtrans:     0.5000000     0.0000000     0.0000000

 ptrans:     0.0000000     0.0000000     0.0000000
 rotmap:
 (   1->   1)  (   2->   2) 


 irot  :  17
 --------------------------------------------------------------------
 isymop:   1   1   1
          -1   0   0
           0  -1   0

 gtrans:     0.5000000     0.0000000     0.0000000

 ptrans:     0.0000000     0.0000000     0.0000000
 rotmap:
 (   1->   2)  (   2->   1) 


 irot  :  18
 --------------------------------------------------------------------
 isymop:  -1  -1  -1
           1   0   0
           0   1   0

 gtrans:     0.5000000     0.0000000     0.0000000

 ptrans:     0.0000000     0.0000000     0.0000000
 rotmap:
 (   1->   1)  (   2->   2) 


 irot  :  19
 --------------------------------------------------------------------
 isymop:   0   1   0
           1   0   0
          -1  -1  -1

 gtrans:     0.0000000     0.0000000     0.5000000

 ptrans:     0.0000000     0.0000000     0.0000000
 rotmap:
 (   1->   1)  (   2->   2) 


 irot  :  20
 --------------------------------------------------------------------
 isymop:   0  -1   0
          -1   0   0
           1   1   1

 gtrans:     0.0000000     0.0000000     0.5000000

 ptrans:     0.0000000     0.0000000     0.0000000
 rotmap:
 (   1->   2)  (   2->   1) 


 irot  :  21
 --------------------------------------------------------------------
 isymop:   1   0   0
           0   0   1
          -1  -1  -1

 gtrans:     0.0000000     0.0000000     0.5000000

 ptrans:     0.0000000     0.0000000     0.0000000
 rotmap:
 (   1->   1)  (   2->   2) 


 irot  :  22
 --------------------------------------------------------------------
 isymop:  -1   0   0
           0   0  -1
           1   1   1

 gtrans:     0.0000000     0.0000000     0.5000000

 ptrans:     0.0000000     0.0000000     0.0000000
 rotmap:
 (   1->   2)  (   2->   1) 


 irot  :  23
 --------------------------------------------------------------------
 isymop:   0   0   1
           0   1   0
          -1  -1  -1

 gtrans:     0.0000000     0.0000000     0.5000000

 ptrans:     0.0000000     0.0000000     0.0000000
 rotmap:
 (   1->   1)  (   2->   2) 


 irot  :  24
 --------------------------------------------------------------------
 isymop:   0   0  -1
           0  -1   0
           1   1   1

 gtrans:     0.0000000     0.0000000     0.5000000

 ptrans:     0.0000000     0.0000000     0.0000000
 rotmap:
 (   1->   2)  (   2->   1) 


 irot  :  25
 --------------------------------------------------------------------
 isymop:   0   0  -1
           1   1   1
           0  -1   0

 gtrans:     0.0000000     0.5000000     0.0000000

 ptrans:     0.0000000     0.0000000     0.0000000
 rotmap:
 (   1->   2)  (   2->   1) 


 irot  :  26
 --------------------------------------------------------------------
 isymop:   0   0   1
          -1  -1  -1
           0   1   0

 gtrans:     0.0000000     0.5000000     0.0000000

 ptrans:     0.0000000     0.0000000     0.0000000
 rotmap:
 (   1->   1)  (   2->   2) 


 irot  :  27
 --------------------------------------------------------------------
 isymop:   0  -1   0
           1   1   1
          -1   0   0

 gtrans:     0.0000000     0.5000000     0.0000000

 ptrans:     0.0000000     0.0000000     0.0000000
 rotmap:
 (   1->   2)  (   2->   1) 


 irot  :  28
 --------------------------------------------------------------------
 isymop:   0   1   0
          -1  -1  -1
           1   0   0

 gtrans:     0.0000000     0.5000000     0.0000000

 ptrans:     0.0000000     0.0000000     0.0000000
 rotmap:
 (   1->   1)  (   2->   2) 


 irot  :  29
 --------------------------------------------------------------------
 isymop:  -1   0   0
           1   1   1
           0   0  -1

 gtrans:     0.0000000     0.5000000     0.0000000

 ptrans:     0.0000000     0.0000000     0.0000000
 rotmap:
 (   1->   2)  (   2->   1) 


 irot  :  30
 --------------------------------------------------------------------
 isymop:   1   0   0
          -1  -1  -1
           0   0   1

 gtrans:     0.0000000     0.5000000     0.0000000

 ptrans:     0.0000000     0.0000000     0.0000000
 rotmap:
 (   1->   1)  (   2->   2) 


 irot  :  31
 --------------------------------------------------------------------
 isymop:  -1  -1  -1
           0   1   0
           1   0   0

 gtrans:     0.5000000     0.0000000     0.0000000

 ptrans:     0.0000000     0.0000000     0.0000000
 rotmap:
 (   1->   1)  (   2->   2) 


 irot  :  32
 --------------------------------------------------------------------
 isymop:   1   1   1
           0  -1   0
          -1   0   0

 gtrans:     0.5000000     0.0000000     0.0000000

 ptrans:     0.0000000     0.0000000     0.0000000
 rotmap:
 (   1->   2)  (   2->   1) 


 irot  :  33
 --------------------------------------------------------------------
 isymop:  -1  -1  -1
           1   0   0
           0   0   1

 gtrans:     0.5000000     0.0000000     0.0000000

 ptrans:     0.0000000     0.0000000     0.0000000
 rotmap:
 (   1->   1)  (   2->   2) 


 irot  :  34
 --------------------------------------------------------------------
 isymop:   1   1   1
          -1   0   0
           0   0  -1

 gtrans:     0.5000000     0.0000000     0.0000000

 ptrans:     0.0000000     0.0000000     0.0000000
 rotmap:
 (   1->   2)  (   2->   1) 


 irot  :  35
 --------------------------------------------------------------------
 isymop:  -1  -1  -1
           0   0   1
           0   1   0

 gtrans:     0.5000000     0.0000000     0.0000000

 ptrans:     0.0000000     0.0000000     0.0000000
 rotmap:
 (   1->   1)  (   2->   2) 


 irot  :  36
 --------------------------------------------------------------------
 isymop:   1   1   1
           0   0  -1
           0  -1   0

 gtrans:     0.5000000     0.0000000     0.0000000

 ptrans:     0.0000000     0.0000000     0.0000000
 rotmap:
 (   1->   2)  (   2->   1) 


 irot  :  37
 --------------------------------------------------------------------
 isymop:   0  -1   0
           0   0  -1
           1   1   1

 gtrans:     0.0000000     0.0000000     0.5000000

 ptrans:     0.0000000     0.0000000     0.0000000
 rotmap:
 (   1->   2)  (   2->   1) 


 irot  :  38
 --------------------------------------------------------------------
 isymop:   0   1   0
           0   0   1
          -1  -1  -1

 gtrans:     0.0000000     0.0000000     0.5000000

 ptrans:     0.0000000     0.0000000     0.0000000
 rotmap:
 (   1->   1)  (   2->   2) 


 irot  :  39
 --------------------------------------------------------------------
 isymop:  -1   0   0
           0  -1   0
           1   1   1

 gtrans:     0.0000000     0.0000000     0.5000000

 ptrans:     0.0000000     0.0000000     0.0000000
 rotmap:
 (   1->   2)  (   2->   1) 


 irot  :  40
 --------------------------------------------------------------------
 isymop:   1   0   0
           0   1   0
          -1  -1  -1

 gtrans:     0.0000000     0.0000000     0.5000000

 ptrans:     0.0000000     0.0000000     0.0000000
 rotmap:
 (   1->   1)  (   2->   2) 


 irot  :  41
 --------------------------------------------------------------------
 isymop:   0   0  -1
          -1   0   0
           1   1   1

 gtrans:     0.0000000     0.0000000     0.5000000

 ptrans:     0.0000000     0.0000000     0.0000000
 rotmap:
 (   1->   2)  (   2->   1) 


 irot  :  42
 --------------------------------------------------------------------
 isymop:   0   0   1
           1   0   0
          -1  -1  -1

 gtrans:     0.0000000     0.0000000     0.5000000

 ptrans:     0.0000000     0.0000000     0.0000000
 rotmap:
 (   1->   1)  (   2->   2) 


 irot  :  43
 --------------------------------------------------------------------
 isymop:   1   0   0
          -1  -1  -1
           0   1   0

 gtrans:     0.0000000     0.5000000     0.0000000

 ptrans:     0.0000000     0.0000000     0.0000000
 rotmap:
 (   1->   1)  (   2->   2) 


 irot  :  44
 --------------------------------------------------------------------
 isymop:  -1   0   0
           1   1   1
           0  -1   0

 gtrans:     0.0000000     0.5000000     0.0000000

 ptrans:     0.0000000     0.0000000     0.0000000
 rotmap:
 (   1->   2)  (   2->   1) 


 irot  :  45
 --------------------------------------------------------------------
 isymop:   0   0   1
          -1  -1  -1
           1   0   0

 gtrans:     0.0000000     0.5000000     0.0000000

 ptrans:     0.0000000     0.0000000     0.0000000
 rotmap:
 (   1->   1)  (   2->   2) 


 irot  :  46
 --------------------------------------------------------------------
 isymop:   0   0  -1
           1   1   1
          -1   0   0

 gtrans:     0.0000000     0.5000000     0.0000000

 ptrans:     0.0000000     0.0000000     0.0000000
 rotmap:
 (   1->   2)  (   2->   1) 


 irot  :  47
 --------------------------------------------------------------------
 isymop:   0   1   0
          -1  -1  -1
           0   0   1

 gtrans:     0.0000000     0.5000000     0.0000000

 ptrans:     0.0000000     0.0000000     0.0000000
 rotmap:
 (   1->   1)  (   2->   2) 


 irot  :  48
 --------------------------------------------------------------------
 isymop:   0  -1   0
           1   1   1
           0   0  -1

 gtrans:     0.0000000     0.5000000     0.0000000

 ptrans:     0.0000000     0.0000000     0.0000000
 rotmap:
 (   1->   2)  (   2->   1) 
 
 
 KPOINTS: pymatgen 4.7.6+ generated KPOINTS with g

Automatic generation of k-mesh.
Space group operators:
 irot       det(A)        alpha          n_x          n_y          n_z        tau_x        tau_y        tau_z
    1     1.000000     0.000000     1.000000     0.000000     0.000000     0.000000     0.000000     0.000000
    2    -1.000000     0.000000     1.000000     0.000000     0.000000     0.000000     0.000000     0.000000
    3     1.000000   120.000000    -0.471404    -0.333333    -0.816497     0.000000     0.000000     0.000000
    4    -1.000000   120.000000    -0.471404    -0.333333    -0.816497     0.000000     0.000000     0.000000
    5     1.000000   120.000000     0.471405     0.333333     0.816497     0.000000     0.000000     0.000000
    6    -1.000000   120.000000     0.471405     0.333333     0.816497     0.000000     0.000000     0.000000
    7     1.000000   180.000000     0.288675     0.816497    -0.500000     0.000000     0.000000     0.000000
    8    -1.000000   180.000000     0.288675     0.816497    -0.500000     0.000000     0.000000     0.000000
    9     1.000000   180.000000     0.577350    -0.816497     0.000000     0.000000     0.000000     0.000000
   10    -1.000000   180.000000     0.577350    -0.816497     0.000000     0.000000     0.000000     0.000000
   11     1.000000   180.000000     0.866025     0.000000    -0.500000     0.000000     0.000000     0.000000
   12    -1.000000   180.000000     0.866025     0.000000    -0.500000     0.000000     0.000000     0.000000
   13     1.000000    90.000000    -0.816497    -0.577350    -0.000000     0.500000     0.000000     0.000000
   14    -1.000000    90.000000    -0.816497    -0.577350    -0.000000     0.500000     0.000000     0.000000
   15     1.000000   180.000000     0.866025     0.000000     0.500000     0.500000     0.000000     0.000000
   16    -1.000000   180.000000     0.866025     0.000000     0.500000     0.500000     0.000000     0.000000
   17     1.000000    90.000000     0.408248    -0.577350     0.707107     0.500000     0.000000     0.000000
   18    -1.000000    90.000000     0.408248    -0.577350     0.707107     0.500000     0.000000     0.000000
   19     1.000000   180.000000     0.816497     0.577350     0.000000     0.000000     0.000000     0.500000
   20    -1.000000   180.000000     0.816497     0.577350     0.000000     0.000000     0.000000     0.500000
   21     1.000000   120.000000     0.942809    -0.333333     0.000000     0.000000     0.000000     0.500000
   22    -1.000000   120.000000     0.942809    -0.333333     0.000000     0.000000     0.000000     0.500000
   23     1.000000   120.000000    -0.000000    -1.000000    -0.000000     0.000000     0.000000     0.500000
   24    -1.000000   120.000000    -0.000000    -1.000000    -0.000000     0.000000     0.000000     0.500000
   25     1.000000    90.000000     0.816496     0.577350     0.000000     0.000000     0.500000     0.000000
   26    -1.000000    90.000000     0.816496     0.577350     0.000000     0.000000     0.500000     0.000000
   27     1.000000    90.000000     0.408249    -0.577350    -0.707107     0.000000     0.500000     0.000000
   28    -1.000000    90.000000     0.408249    -0.577350    -0.707107     0.000000     0.500000     0.000000
   29     1.000000   180.000000     0.288675     0.816497     0.500000     0.000000     0.500000     0.000000
   30    -1.000000   180.000000     0.288675     0.816497     0.500000     0.000000     0.500000     0.000000
   31     1.000000   120.000000    -0.000000     1.000000    -0.000000     0.500000     0.000000     0.000000
   32    -1.000000   120.000000    -0.000000     1.000000    -0.000000     0.500000     0.000000     0.000000
   33     1.000000   120.000000     0.471405     0.333333    -0.816497     0.500000     0.000000     0.000000
   34    -1.000000   120.000000     0.471405     0.333333    -0.816497     0.500000     0.000000     0.000000
   35     1.000000   180.000000    -0.408248     0.577350     0.707107     0.500000     0.000000     0.000000
   36    -1.000000   180.000000    -0.408248     0.577350     0.707107     0.500000     0.000000     0.000000
   37     1.000000    90.000000    -0.408248     0.577350    -0.707107     0.000000     0.000000     0.500000
   38    -1.000000    90.000000    -0.408248     0.577350    -0.707107     0.000000     0.000000     0.500000
   39     1.000000   180.000000    -0.000000    -0.000000     1.000000     0.000000     0.000000     0.500000
   40    -1.000000   180.000000    -0.000000    -0.000000     1.000000     0.000000     0.000000     0.500000
   41     1.000000    90.000000    -0.408248     0.577350     0.707107     0.000000     0.000000     0.500000
   42    -1.000000    90.000000    -0.408248     0.577350     0.707107     0.000000     0.000000     0.500000
   43     1.000000   120.000000    -0.942809     0.333333     0.000000     0.000000     0.500000     0.000000
   44    -1.000000   120.000000    -0.942809     0.333333     0.000000     0.000000     0.500000     0.000000
   45     1.000000   180.000000    -0.408248     0.577350    -0.707107     0.000000     0.500000     0.000000
   46    -1.000000   180.000000    -0.408248     0.577350    -0.707107     0.000000     0.500000     0.000000
   47     1.000000   120.000000    -0.471405    -0.333333     0.816497     0.000000     0.500000     0.000000
   48    -1.000000   120.000000    -0.471405    -0.333333     0.816497     0.000000     0.500000     0.000000
 
 Subroutine IBZKPT returns following result:
 ===========================================
 
 Found     29 irreducible k-points:
 
 Following reciprocal coordinates:
            Coordinates               Weight
  0.000000  0.000000  0.000000      1.000000
  0.125000  0.000000  0.000000      8.000000
  0.250000  0.000000  0.000000      8.000000
  0.375000  0.000000  0.000000      8.000000
  0.500000  0.000000  0.000000      4.000000
  0.125000  0.125000  0.000000      6.000000
  0.250000  0.125000  0.000000     24.000000
  0.375000  0.125000  0.000000     24.000000
  0.500000  0.125000  0.000000     24.000000
 -0.375000  0.125000  0.000000     24.000000
 -0.250000  0.125000  0.000000     24.000000
 -0.125000  0.125000  0.000000     12.000000
  0.250000  0.250000  0.000000      6.000000
  0.375000  0.250000  0.000000     24.000000
  0.500000  0.250000  0.000000     24.000000
 -0.375000  0.250000  0.000000     24.000000
 -0.250000  0.250000  0.000000     12.000000
  0.375000  0.375000  0.000000      6.000000
  0.500000  0.375000  0.000000     24.000000
 -0.375000  0.375000  0.000000     12.000000
  0.500000  0.500000  0.000000      3.000000
  0.375000  0.250000  0.125000     24.000000
  0.500000  0.250000  0.125000     48.000000
 -0.375000  0.250000  0.125000     24.000000
  0.500000  0.375000  0.125000     24.000000
 -0.375000  0.375000  0.125000     48.000000
 -0.250000  0.375000  0.125000     24.000000
 -0.375000  0.500000  0.125000     12.000000
 -0.250000  0.500000  0.250000      6.000000
 
 Following cartesian coordinates:
            Coordinates               Weight
  0.000000  0.000000  0.000000      1.000000
  0.037588 -0.013290  0.000000      8.000000
  0.075177 -0.026579  0.000000      8.000000
  0.112765 -0.039869  0.000000      8.000000
  0.150354 -0.053158  0.000000      4.000000
  0.037588  0.026579  0.000000      6.000000
  0.075177  0.013290  0.000000     24.000000
  0.112765  0.000000  0.000000     24.000000
  0.150354 -0.013290  0.000000     24.000000
 -0.112765  0.079737  0.000000     24.000000
 -0.075177  0.066448  0.000000     24.000000
 -0.037588  0.053158  0.000000     12.000000
  0.075177  0.053158  0.000000      6.000000
  0.112765  0.039869  0.000000     24.000000
  0.150354  0.026579  0.000000     24.000000
 -0.112765  0.119606  0.000000     24.000000
 -0.075177  0.106316  0.000000     12.000000
  0.112765  0.079737  0.000000      6.000000
  0.150354  0.066448  0.000000     24.000000
 -0.112765  0.159474  0.000000     12.000000
  0.150354  0.106316  0.000000      3.000000
  0.093971  0.026579  0.032553     24.000000
  0.131560  0.013290  0.032553     48.000000
 -0.131560  0.106316  0.032553     24.000000
  0.131560  0.053158  0.032553     24.000000
 -0.131560  0.146185  0.032553     48.000000
 -0.093971  0.132895  0.032553     24.000000
 -0.131560  0.186053  0.032553     12.000000
 -0.112765  0.159474  0.065105      6.000000
 


--------------------------------------------------------------------------------------------------------




 Dimension of arrays:
   k-points           NKPTS =     29   k-points in BZ     NKDIM =     29   number of bands    NBANDS=     24
   number of dos      NEDOS =    301   number of ions     NIONS =      2
   non local maximal  LDIM  =      4   non local SUM 2l+1 LMDIM =      8
   total plane-waves  NPLWV =   4096
   max r-space proj   IRMAX =      1   max aug-charges    IRDMAX=   3620
   dimension x,y,z NGX =    16 NGY =   16 NGZ =   16
   dimension x,y,z NGXF=    32 NGYF=   32 NGZF=   32
   support grid    NGXF=    32 NGYF=   32 NGZF=   32
   ions per type =               2
 NGX,Y,Z   is equivalent  to a cutoff of   6.93,  6.93,  6.93 a.u.
 NGXF,Y,Z  is equivalent  to a cutoff of  13.85, 13.85, 13.85 a.u.


 I would recommend the setting:
   dimension x,y,z NGX =    15 NGY =   15 NGZ =   15
 SYSTEM =  unknown system                          
 POSCAR =  Si2                                     

 Startparameter for this run:
   NWRITE =      2    write-flag & timer
   PREC   = normal    normal or accurate (medium, high low for compatibility)
   ISTART =      1    job   : 0-new  1-cont  2-samecut
   ICHARG =      0    charge: 1-file 2-atom 10-const
   ISPIN  =      1    spin polarized calculation?
   LNONCOLLINEAR =      F non collinear calculations
   LSORBIT =      F    spin-orbit coupling
   INIWAV =      1    electr: 0-lowe 1-rand  2-diag
   LASPH  =      F    aspherical Exc in radial PAW
   METAGGA=      F    non-selfconsistent MetaGGA calc.

 Electronic Relaxation 1
   ENCUT  =  245.3 eV  18.03 Ry    4.25 a.u.   4.90  4.90  4.90*2*pi/ulx,y,z
   ENINI  =  245.3     initial cutoff
   ENAUG  =  322.1 eV  augmentation charge cutoff
   NELM   =     60;   NELMIN=  2; NELMDL=  0     # of ELM steps 
   EDIFF  = 0.1E-03   stopping-criterion for ELM
   LREAL  =      F    real-space projection
   NLSPLINE    = F    spline interpolate recip. space projectors
   LCOMPAT=      F    compatible to vasp.4.4
   GGA_COMPAT  = T    GGA compatible to vasp.4.4-vasp.4.6
   LMAXPAW     = -100 max onsite density
   LMAXMIX     =    2 max onsite mixed and CHGCAR
   VOSKOWN=      0    Vosko Wilk Nusair interpolation
   ROPT   =    0.00000
 Ionic relaxation
   EDIFFG = 0.1E-02   stopping-criterion for IOM
   NSW    =      0    number of steps for IOM
   NBLOCK =      1;   KBLOCK =      1    inner block; outer block 
   IBRION =     -1    ionic relax: 0-MD 1-quasi-New 2-CG
   NFREE  =      0    steps in history (QN), initial steepest desc. (CG)
   ISIF   =      2    stress and relaxation
   IWAVPR =     10    prediction:  0-non 1-charg 2-wave 3-comb
   ISYM   =      2    0-nonsym 1-usesym 2-fastsym
   LCORR  =      T    Harris-Foulkes like correction to forces

   POTIM  = 0.5000    time-step for ionic-motion
   TEIN   =    0.0    initial temperature
   TEBEG  =    0.0;   TEEND  =   0.0 temperature during run
   SMASS  =  -3.00    Nose mass-parameter (am)
   estimated Nose-frequenzy (Omega)   =  0.10E-29 period in steps =****** mass=  -0.337E-27a.u.
   SCALEE = 1.0000    scale energy and forces
   NPACO  =    256;   APACO  = 16.0  distance and # of slots for P.C.
   PSTRESS=    0.0 pullay stress

  Mass of Ions in am
   POMASS =  28.09
  Ionic Valenz
   ZVAL   =   4.00
  Atomic Wigner-Seitz radii
   RWIGS  =  -1.00
  virtual crystal weights 
   VCA    =   1.00
   NELECT =       8.0000    total number of electrons
   NUPDOWN=      -1.0000    fix difference up-down

 DOS related values:
   EMIN   =  10.00;   EMAX   =-10.00  energy-range for DOS
   EFERMI =   0.00
   ISMEAR =     1;   SIGMA  =   0.20  broadening in eV -4-tet -1-fermi 0-gaus

 Electronic relaxation 2 (details)
   IALGO  =     38    algorithm
   LDIAG  =      T    sub-space diagonalisation (order eigenvalues)
   LSUBROT=      T    optimize rotation matrix (better conditioning)
   TURBO    =      0    0=normal 1=particle mesh
   IRESTART =      0    0=no restart 2=restart with 2 vectors
   NREBOOT  =      0    no. of reboots
   NMIN     =      0    reboot dimension
   EREF     =   0.00    reference energy to select bands
   IMIX   =      4    mixing-type and parameters
     AMIX     =   0.40;   BMIX     =  1.00
     AMIX_MAG =   1.60;   BMIX_MAG =  1.00
     AMIN     =   0.10
     WC   =   100.;   INIMIX=   1;  MIXPRE=   1;  MAXMIX= -45

 Intra band minimization:
   WEIMIN = 0.0000     energy-eigenvalue tresh-hold
   EBREAK =  0.10E-05  absolut break condition
   DEPER  =   0.30     relativ break condition  

   TIME   =   0.40     timestep for ELM

  volume/ion in A,a.u.               =      20.02       135.09
  Fermi-wavevector in a.u.,A,eV,Ry     =   0.957088  1.808633 12.463161  0.916017
  Thomas-Fermi vector in A             =   2.086074
 
 Write flags
   LWAVE  =      T    write WAVECAR
   LCHARG =      T    write CHGCAR
   LVTOT  =      F    write LOCPOT, total local potential
   LVHAR  =      F    write LOCPOT, Hartree potential only
   LELF   =      F    write electronic localiz. function (ELF)
   LORBIT =      0    0 simple, 1 ext, 2 COOP (PROOUT)


 Dipole corrections
   LMONO  =      F    monopole corrections only (constant potential shift)
   LDIPOL =      F    correct potential (dipole corrections)
   IDIPOL =      0    1-x, 2-y, 3-z, 4-all directions 
   EPSILON=  1.0000000 bulk dielectric constant

 Exchange correlation treatment:
   GGA     =    --    GGA type
   LEXCH   =     8    internal setting for exchange type
   VOSKOWN=      0    Vosko Wilk Nusair interpolation
   LHFCALC =     F    Hartree Fock is set to
   LHFONE  =     F    Hartree Fock one center treatment
   AEXX    =    0.0000 exact exchange contribution

 Linear response parameters
   LEPSILON=     F    determine dielectric tensor
   LRPA    =     F    only Hartree local field effects (RPA)
   LNABLA  =     F    use nabla operator in PAW spheres
   LVEL    =     F    velocity operator in full k-point grid
   LINTERFAST=   F  fast interpolation
   KINTER  =     0    interpolate to denser k-point grid
   CSHIFT  =0.1000    complex shift for real part using Kramers Kronig
   OMEGAMAX=  -1.0    maximum frequency
   DEG_THRESHOLD= 0.2000000E-02 threshold for treating states as degnerate
   RTIME   =    0.100 relaxation time in fs

 Orbital magnetization related:
   ORBITALMAG=     F  switch on orbital magnetization
   LCHIMAG   =     F  perturbation theory with respect to B field
   DQ        =  0.001000  dq finite difference perturbation B field



--------------------------------------------------------------------------------------------------------


 Static calculation
 charge density and potential will be updated during run
 non-spin polarized calculation
 Variant of blocked Davidson
 Davidson routine will perform the subspace rotation
 perform sub-space diagonalisation
    after iterative eigenvector-optimisation
 modified Broyden-mixing scheme, WC =      100.0
 initial mixing is a Kerker type mixing with AMIX =  0.4000 and BMIX =      1.0000
 Hartree-type preconditioning will be used
 using additional bands           20
 reciprocal scheme for non local part
 use partial core corrections
 calculate Harris-corrections to forces 
   (improved forces if not selfconsistent)
 use gradient corrections 
 use of overlap-Matrix (Vanderbilt PP)
 Methfessel and Paxton  Order N= 1 SIGMA  =   0.20


--------------------------------------------------------------------------------------------------------


  energy-cutoff  :      245.34
  volume of cell :       40.04
      direct lattice vectors                 reciprocal lattice vectors
     3.325489000  0.000000000  1.919972000     0.300707655 -0.106316182  0.000000000
     1.108496000  3.135301000  1.919972000     0.000000000  0.318948643  0.000000000
     0.000000000  0.000000000  3.839943000    -0.150353867 -0.106316258  0.260420532

  length of vectors
     3.839943954  3.839943779  3.839943000     0.318948624  0.318948643  0.318948719


 
 old parameters found on file WAVECAR:
  energy-cutoff  :      245.34
  volume of cell :       40.04
      direct lattice vectors                 reciprocal lattice vectors
     3.325489000  0.000000000  1.919972000     0.300707655 -0.106316182  0.000000000
     1.108496000  3.135301000  1.919972000     0.000000000  0.318948643  0.000000000
     0.000000000  0.000000000  3.839943000    -0.150353867 -0.106316258  0.260420532

  length of vectors

 
 k-points in units of 2pi/SCALE and weight: pymatgen 4.7.6+ generated KPOINTS with g
   0.00000000  0.00000000  0.00000000       0.002
   0.03758846 -0.01328952  0.00000000       0.016
   0.07517691 -0.02657905  0.00000000       0.016
   0.11276537 -0.03986857  0.00000000       0.016
   0.15035383 -0.05315809  0.00000000       0.008
   0.03758846  0.02657906  0.00000000       0.012
   0.07517691  0.01328953  0.00000000       0.047
   0.11276537  0.00000001  0.00000000       0.047
   0.15035383 -0.01328951  0.00000000       0.047
  -0.11276537  0.07973715  0.00000000       0.047
  -0.07517691  0.06644763  0.00000000       0.047
  -0.03758846  0.05315810  0.00000000       0.023
   0.07517691  0.05315812  0.00000000       0.012
   0.11276537  0.03986859  0.00000000       0.047
   0.15035383  0.02657907  0.00000000       0.047
  -0.11276537  0.11960573  0.00000000       0.047
  -0.07517691  0.10631621  0.00000000       0.023
   0.11276537  0.07973717  0.00000000       0.012
   0.15035383  0.06644765  0.00000000       0.047
  -0.11276537  0.15947431  0.00000000       0.023
   0.15035383  0.10631623  0.00000000       0.006
   0.09397114  0.02657906  0.03255257       0.047
   0.13155959  0.01328954  0.03255257       0.094
  -0.13155960  0.10631620  0.03255257       0.047
   0.13155959  0.05315812  0.03255257       0.047
  -0.13155960  0.14618478  0.03255257       0.094
  -0.09397115  0.13289525  0.03255257       0.047
  -0.13155960  0.18605336  0.03255257       0.023
  -0.11276538  0.15947430  0.06510513       0.012
 
 k-points in reciprocal lattice and weights: pymatgen 4.7.6+ generated KPOINTS with g
   0.00000000  0.00000000  0.00000000       0.002
   0.12500000  0.00000000  0.00000000       0.016
   0.25000000  0.00000000  0.00000000       0.016
   0.37500000  0.00000000  0.00000000       0.016
   0.50000000  0.00000000  0.00000000       0.008
   0.12500000  0.12500000  0.00000000       0.012
   0.25000000  0.12500000  0.00000000       0.047
   0.37500000  0.12500000  0.00000000       0.047
   0.50000000  0.12500000  0.00000000       0.047
  -0.37500000  0.12500000  0.00000000       0.047
  -0.25000000  0.12500000  0.00000000       0.047
  -0.12500000  0.12500000  0.00000000       0.023
   0.25000000  0.25000000  0.00000000       0.012
   0.37500000  0.25000000  0.00000000       0.047
   0.50000000  0.25000000  0.00000000       0.047
  -0.37500000  0.25000000  0.00000000       0.047
  -0.25000000  0.25000000  0.00000000       0.023
   0.37500000  0.37500000  0.00000000       0.012
   0.50000000  0.37500000  0.00000000       0.047
  -0.37500000  0.37500000  0.00000000       0.023
   0.50000000  0.50000000  0.00000000       0.006
   0.37500000  0.25000000  0.12500000       0.047
   0.50000000  0.25000000  0.12500000       0.094
  -0.37500000  0.25000000  0.12500000       0.047
   0.50000000  0.37500000  0.12500000       0.047
  -0.37500000  0.37500000  0.12500000       0.094
  -0.25000000  0.37500000  0.12500000       0.047
  -0.37500000  0.50000000  0.12500000       0.023
  -0.25000000  0.50000000  0.25000000       0.012
 
 position of ions in fractional coordinates (direct lattice) 
   0.87500000  0.87500000  0.87500000
   0.12500000  0.12500000  0.12500000
 
 position of ions in cartesian coordinates  (Angst):
   3.87973687  2.74338838  6.71990112
   0.55424812  0.39191263  0.95998587
 


--------------------------------------------------------------------------------------------------------


 k-point  1 :   0.0000 0.0000 0.0000  plane waves:     339
 k-point  2 :   0.1250 0.0000 0.0000  plane waves:     335
 k-point  3 :   0.2500 0.0000 0.0000  plane waves:     350
 k-point  4 :   0.3750 0.0000 0.0000  plane waves:     353
 k-point  5 :   0.5000 0.0000 0.0000  plane waves:     344
 k-point  6 :   0.1250 0.1250 0.0000  plane waves:     339
 k-point  7 :   0.2500 0.1250 0.0000  plane waves:     344
 k-point  8 :   0.3750 0.1250 0.0000  plane waves:     343
 k-point  9 :   0.5000 0.1250 0.0000  plane waves:     350
 k-point 10 :  -0.3750 0.1250 0.0000  plane waves:     355
 k-point 11 :  -0.2500 0.1250 0.0000  plane waves:     348
 k-point 12 :  -0.1250 0.1250 0.0000  plane waves:     337
 k-point 13 :   0.2500 0.2500 0.0000  plane waves:     343
 k-point 14 :   0.3750 0.2500 0.0000  plane waves:     342
 k-point 15 :   0.5000 0.2500 0.0000  plane waves:     348
 k-point 16 :  -0.3750 0.2500 0.0000  plane waves:     358
 k-point 17 :  -0.2500 0.2500 0.0000  plane waves:     343
 k-point 18 :   0.3750 0.3750 0.0000  plane waves:     351
 k-point 19 :   0.5000 0.3750 0.0000  plane waves:     352
 k-point 20 :  -0.3750 0.3750 0.0000  plane waves:     347
 k-point 21 :   0.5000 0.5000 0.0000  plane waves:     342
 k-point 22 :   0.3750 0.2500 0.1250  plane waves:     343
 k-point 23 :   0.5000 0.2500 0.1250  plane waves:     350
 k-point 24 :  -0.3750 0.2500 0.1250  plane waves:     358
 k-point 25 :   0.5000 0.3750 0.1250  plane waves:     346
 k-point 26 :  -0.3750 0.3750 0.1250  plane waves:     353
 k-point 27 :  -0.2500 0.3750 0.1250  plane waves:     352
 k-point 28 :  -0.3750 0.5000 0.1250  plane waves:     358
 k-point 29 :  -0.2500 0.5000 0.2500  plane waves:     360

 maximum and minimum number of plane-waves per node :       360      335

 maximum number of plane-waves:       360
 maximum index in each direction: 
   IXMAX=    5   IYMAX=    4   IZMAX=    4
   IXMIN=   -5   IYMIN=   -5   IZMIN=   -5

 WARNING: aliasing errors must be expected set NGX to  22 to avoid them
 WARNING: aliasing errors must be expected set NGY to  20 to avoid them
 WARNING: aliasing errors must be expected set NGZ to  20 to avoid them
 aliasing errors are usually negligible using standard VASP settings
 and one can safely disregard these warnings

 serial   3D FFT for wavefunctions
 parallel 3D FFT for charge:
    minimum data exchange during FFTs selected (reduces bandwidth)


 total amount of memory used by VASP on root node    31221. kBytes
========================================================================

   base      :      30000. kBytes
   nonl-proj :        679. kBytes
   fftplans  :         88. kBytes
   grid      :        270. kBytes
   one-center:          6. kBytes
   wavefun   :        178. kBytes
 
 Broyden mixing: mesh for mixing (old mesh)
   NGX =  9   NGY =  9   NGZ =  9
  (NGX  = 32   NGY  = 32   NGZ  = 32)
  gives a total of    729 points

 charge density for first step will be calculated from the start-wavefunctions


--------------------------------------------------------------------------------------------------------


 Maximum index for augmentation-charges          414 (set IRDMAX)


--------------------------------------------------------------------------------------------------------


 initial charge from wavefunction
 First call to EWALD:  gamma=   0.518
 Maximum number of real-space cells 3x 3x 3
 Maximum number of reciprocal cells 3x 3x 3

 FEWALD executed in parallel
    FEWALD:  cpu time    0.00: real time    0.00


----------------------------------------- Iteration    1(   1)  ---------------------------------------


    POTLOK:  cpu time    0.01: real time    0.02
    SETDIJ:  cpu time    0.00: real time    0.01
     EDDAV:  cpu time    0.06: real time    0.27
       DOS:  cpu time    0.00: real time    0.00
    CHARGE:  cpu time    0.00: real time    0.00
    MIXING:  cpu time    0.00: real time    0.00
    --------------------------------------------
      LOOP:  cpu time    0.09: real time    0.30

 eigenvalue-minimisations  :   720
 total energy-change (2. order) :-0.1081799E+02  (-0.3379107E-06)
 number of electron       7.9999994 magnetization 
 augmentation part       -0.4572492 magnetization 

 Broyden mixing:
  rms(total) = 0.98173E-04    rms(broyden)= 0.98172E-04
  rms(prec ) = 0.14756E-03
  weight for this iteration     100.00

 Free energy of the ion-electron system (eV)
  ---------------------------------------------------
  alpha Z        PSCENC =         3.36321756
  Ewald energy   TEWEN  =      -228.54246794
  -1/2 Hartree   DENC   =       -14.92335760
  -exchange  EXHF       =         0.00000000
  -V(xc)+E(xc)   XCENC  =       -17.95314139
  PAW double counting   =      1032.30488291     -997.34967074
  entropy T*S    EENTRO =         0.00026750
  eigenvalues    EBANDS =         6.15971012
  atomic energy  EATOM  =       206.12257231
  ---------------------------------------------------
  free energy    TOTEN  =       -10.81798728 eV

  energy without entropy =      -10.81825477  energy(sigma->0) =      -10.81807644


--------------------------------------------------------------------------------------------------------




----------------------------------------- Iteration    1(   2)  ---------------------------------------


    POTLOK:  cpu time    0.00: real time    0.00
    SETDIJ:  cpu time    0.00: real time    0.00
     EDDAV:  cpu time    0.05: real time    0.05
       DOS:  cpu time    0.00: real time    0.00
    --------------------------------------------
      LOOP:  cpu time    0.05: real time    0.05

 eigenvalue-minimisations  :   696
 total energy-change (2. order) :-0.1307137E-07  (-0.2934534E-08)
 number of electron       7.9999994 magnetization 
 augmentation part       -0.4572492 magnetization 

 Free energy of the ion-electron system (eV)
  ---------------------------------------------------
  alpha Z        PSCENC =         3.36321756
  Ewald energy   TEWEN  =      -228.54246794
  -1/2 Hartree   DENC   =       -14.92341809
  -exchange  EXHF       =         0.00000000
  -V(xc)+E(xc)   XCENC  =       -17.95312337
  PAW double counting   =      1032.38338265     -997.42815692
  entropy T*S    EENTRO =         0.00026748
  eigenvalues    EBANDS =         6.15973904
  atomic energy  EATOM  =       206.12257231
  ---------------------------------------------------
  free energy    TOTEN  =       -10.81798729 eV

  energy without entropy =      -10.81825477  energy(sigma->0) =      -10.81807645


--------------------------------------------------------------------------------------------------------




 average (electrostatic) potential at core
  the test charge radii are     0.9892
  (the norm of the test charge is              1.0000)
       1 -83.2483       2 -83.2483
 
 
 
 E-fermi :   5.9799     XC(G=0):  -9.4095     alpha+bet :-11.9812


 k-point   1 :       0.0000    0.0000    0.0000
  band No.  band energies     occupation 
      1      -6.1302      2.00000
      2       5.8400      1.91951
      3       5.8400      1.91946
      4       5.8400      1.91945
      5       8.4073     -0.00000
      6       8.4073     -0.00000
      7       8.4073     -0.00000
      8       9.2038     -0.00000
      9      13.6261      0.00000
     10      13.6261      0.00000
     11      13.7902      0.00000
     12      17.1099      0.00000
     13      17.1099      0.00000
     14      17.1099      0.00000
     15      21.2366      0.00000
     16      29.1576      0.00000
     17      29.1576      0.00000
     18      29.1576      0.00000
     19      30.3293      0.00000
     20      30.3293      0.00000
     21      31.7303      0.00000
     22      31.7304      0.00000
     23      31.7304      0.00000
     24      35.0824      0.00000

 k-point   2 :       0.1250    0.0000    0.0000
  band No.  band energies     occupation 
      1      -5.9259      2.00000
      2       4.2398      2.00000
      3       5.5509      2.00973
      4       5.5509      2.00973
      5       8.3457     -0.00000
      6       8.8336     -0.00000
      7       8.8336     -0.00000
      8      10.5525     -0.00000
      9      13.1353      0.00000
     10      13.1353      0.00000
     11      14.5782      0.00000
     12      16.5487      0.00000
     13      18.2926      0.00000
     14      18.2926      0.00000
     15      22.4829      0.00000
     16      27.0775      0.00000
     17      27.0776      0.00000
     18      27.3770      0.00000
     19      29.9637      0.00000
     20      29.9640      0.00000
     21      32.2837      0.00000
     22      32.2837      0.00000
     23      33.2480      0.00000
     24      35.2679      0.00000

 k-point   3 :       0.2500    0.0000    0.0000
  band No.  band energies     occupation 
      1      -5.3303      2.00000
      2       1.9078      2.00000
      3       5.0770      2.00000
      4       5.0770      2.00000
      5       7.8745     -0.00000
      6       9.3541     -0.00000
      7       9.3541     -0.00000
      8      12.7635      0.00000
      9      13.0747      0.00000
     10      13.0748      0.00000
     11      14.8376      0.00000
     12      17.6977      0.00000
     13      20.5531      0.00000
     14      20.5532      0.00000
     15      23.7714      0.00000
     16      23.7715      0.00000
     17      23.9396      0.00000
     18      25.9363      0.00000
     19      30.1284      0.00000
     20      30.1287      0.00000
     21      32.6252      0.00000
     22      32.6252      0.00000
     23      33.9615      0.00000
     24      35.5006      0.00000

 k-point   4 :       0.3750    0.0000    0.0000
  band No.  band energies     occupation 
      1      -4.4366      2.00000
      2      -0.1146      2.00000
      3       4.7488      2.00000
      4       4.7488      2.00000
      5       7.5109     -0.00000
      6       9.3027     -0.00000
      7       9.3028     -0.00000
      8      13.7214      0.00000
      9      14.4677      0.00000
     10      14.4677      0.00000
     11      15.5373      0.00000
     12      19.6743      0.00000
     13      19.6744      0.00000
     14      19.9342      0.00000
     15      22.6050      0.00000
     16      24.4462      0.00000
     17      24.4462      0.00000
     18      28.8537      0.00000
     19      29.8669      0.00000
     20      29.9406      0.00000
     21      29.9408      0.00000
     22      32.7997      0.00000
     23      32.7998      0.00000
     24      34.2697      0.00000

 k-point   5 :       0.5000    0.0000    0.0000
  band No.  band energies     occupation 
      1      -3.7979      2.00000
      2      -1.1374      2.00000
      3       4.6372      2.00000
      4       4.6372      2.00000
      5       7.3820     -0.00000
      6       9.1934     -0.00000
      7       9.1934     -0.00000
      8      13.5668      0.00000
      9      16.4954      0.00000
     10      16.4955      0.00000
     11      17.2073      0.00000
     12      17.2136      0.00000
     13      17.2136      0.00000
     14      18.8618      0.00000
     15      25.3532      0.00000
     16      25.8583      0.00000
     17      27.5908      0.00000
     18      27.5909      0.00000
     19      27.8142      0.00000
     20      27.8144      0.00000
     21      31.6575      0.00000
     22      32.4049      0.00000
     23      32.4051      0.00000
     24      33.4656      0.00000

 k-point   6 :       0.1250    0.1250    0.0000
  band No.  band energies     occupation 
      1      -5.8571      2.00000
      2       4.5051      2.00000
      3       5.0319      2.00000
      4       5.0319      2.00000
      5       7.8552     -0.00000
      6       9.5517     -0.00000
      7       9.5517     -0.00000
      8      10.2389     -0.00000
      9      12.3831      0.00000
     10      13.9299      0.00000
     11      14.8787      0.00000
     12      17.5905      0.00000
     13      17.5906      0.00000
     14      18.0834      0.00000
     15      23.0792      0.00000
     16      26.5842      0.00000
     17      26.5842      0.00000
     18      27.8557      0.00000
     19      28.6591      0.00000
     20      29.5314      0.00000
     21      32.5958      0.00000
     22      32.8756      0.00000
     23      32.8756      0.00000
     24      37.1465      0.00000

 k-point   7 :       0.2500    0.1250    0.0000
  band No.  band energies     occupation 
      1      -5.3884      2.00000
      2       2.6114      2.00000
      3       4.5180      2.00000
      4       4.5949      2.00000
      5       7.9927     -0.00000
      6       9.5533     -0.00000
      7      10.3204     -0.00000
      8      10.6088     -0.00000
      9      13.3672      0.00000
     10      14.0837      0.00000
     11      15.8700      0.00000
     12      17.4522      0.00000
     13      19.0283      0.00000
     14      20.3098      0.00000
     15      23.5212      0.00000
     16      24.0200      0.00000
     17      25.1733      0.00000
     18      27.5270      0.00000
     19      27.5852      0.00000
     20      29.0479      0.00000
     21      32.3363      0.00000
     22      33.2559      0.00000
     23      34.3413      0.00000
     24      35.8884      0.00000

 k-point   8 :       0.3750    0.1250    0.0000
  band No.  band energies     occupation 
      1      -4.5733      2.00000
      2       0.5491      2.00000
      3       4.0022      2.00000
      4       4.2493      2.00000
      5       8.0951     -0.00000
      6       9.4920     -0.00000
      7      10.3215     -0.00000
      8      11.3274     -0.00000
      9      15.2129      0.00000
     10      15.2207      0.00000
     11      15.8111      0.00000
     12      19.3160      0.00000
     13      19.3317      0.00000
     14      21.1372      0.00000
     15      22.5599      0.00000
     16      23.5852      0.00000
     17      24.5332      0.00000
     18      27.9101      0.00000
     19      28.5665      0.00000
     20      29.5396      0.00000
     21      30.7220      0.00000
     22      31.6099      0.00000
     23      33.5450      0.00000
     24      35.0169      0.00000

 k-point   9 :       0.5000    0.1250    0.0000
  band No.  band energies     occupation 
      1      -3.7117      2.00000
      2      -0.9158      2.00000
      3       3.5559      2.00000
      4       4.2731      2.00000
      5       8.0418     -0.00000
      6       9.3661     -0.00000
      7       9.9575     -0.00000
      8      13.2286      0.00000
      9      14.8553      0.00000
     10      16.3960      0.00000
     11      17.4061      0.00000
     12      17.5457      0.00000
     13      18.4039      0.00000
     14      20.9390      0.00000
     15      24.2539      0.00000
     16      25.5850      0.00000
     17      26.2345      0.00000
     18      27.0580      0.00000
     19      27.9507      0.00000
     20      28.2931      0.00000
     21      30.6365      0.00000
     22      31.9473      0.00000
     23      32.2765      0.00000
     24      33.5971      0.00000

 k-point  10 :      -0.3750    0.1250    0.0000
  band No.  band energies     occupation 
      1      -3.9563      2.00000
      2      -0.5451      2.00000
      3       3.3730      2.00000
      4       4.5697      2.00000
      5       8.2072     -0.00000
      6       9.4744     -0.00000
      7       9.7199     -0.00000
      8      13.7664      0.00000
      9      13.9770      0.00000
     10      15.0776      0.00000
     11      17.0552      0.00000
     12      18.3385      0.00000
     13      20.1924      0.00000
     14      20.5794      0.00000
     15      22.7968      0.00000
     16      24.5535      0.00000
     17      26.4958      0.00000
     18      28.1269      0.00000
     19      28.3609      0.00000
     20      28.5899      0.00000
     21      30.6207      0.00000
     22      31.0392      0.00000
     23      33.3254      0.00000
     24      33.5354      0.00000

 k-point  11 :      -0.2500    0.1250    0.0000
  band No.  band energies     occupation 
      1      -4.8797      2.00000
      2       1.2090      2.00000
      3       3.5246      2.00000
      4       5.0624      2.00000
      5       8.5656     -0.00000
      6       9.5241     -0.00000
      7       9.7092     -0.00000
      8      12.1509      0.00000
      9      12.3484      0.00000
     10      15.6952      0.00000
     11      15.9631      0.00000
     12      18.3004      0.00000
     13      19.9177      0.00000
     14      21.3000      0.00000
     15      22.3504      0.00000
     16      23.9967      0.00000
     17      24.7426      0.00000
     18      27.6401      0.00000
     19      27.9685      0.00000
     20      28.9378      0.00000
     21      32.1112      0.00000
     22      32.5730      0.00000
     23      33.3824      0.00000
     24      35.3897      0.00000

 k-point  12 :      -0.1250    0.1250    0.0000
  band No.  band energies     occupation 
      1      -5.5897      2.00000
      2       3.1532      2.00000
      3       4.2086      2.00000
      4       5.5471      2.00909
      5       8.8872     -0.00000
      6       8.9700     -0.00000
      7       9.2090     -0.00000
      8      11.3982     -0.00000
      9      12.2320      0.00000
     10      13.9165      0.00000
     11      15.5977      0.00000
     12      17.0548      0.00000
     13      18.2401      0.00000
     14      20.3906      0.00000
     15      23.6443      0.00000
     16      24.0250      0.00000
     17      26.9132      0.00000
     18      27.1785      0.00000
     19      27.7124      0.00000
     20      29.1148      0.00000
     21      32.5779      0.00000
     22      32.7847      0.00000
     23      34.8900      0.00000
     24      36.5188      0.00000

 k-point  13 :       0.2500    0.2500    0.0000
  band No.  band energies     occupation 
      1      -5.0479      2.00000
      2       2.3187      2.00000
      3       3.9454      2.00000
      4       3.9454      2.00000
      5       6.9735     -0.00000
      6       8.9860     -0.00000
      7      11.6136      0.00000
      8      11.6136      0.00000
      9      13.9220      0.00000
     10      14.8346      0.00000
     11      17.2730      0.00000
     12      18.9075      0.00000
     13      18.9075      0.00000
     14      19.6094      0.00000
     15      23.3237      0.00000
     16      23.3237      0.00000
     17      24.3100      0.00000
     18      26.3031      0.00000
     19      26.9090      0.00000
     20      30.9354      0.00000
     21      32.4075      0.00000
     22      33.3201      0.00000
     23      33.3201      0.00000
     24      35.4291      0.00000

 k-point  14 :       0.3750    0.2500    0.0000
  band No.  band energies     occupation 
      1      -4.3376      2.00000
      2       0.8937      2.00000
      3       3.1639      2.00000
      4       3.6266      2.00000
      5       7.1966     -0.00000
      6       8.7467     -0.00000
      7      11.8555      0.00000
      8      12.1294      0.00000
      9      15.8865      0.00000
     10      16.0457      0.00000
     11      17.5290      0.00000
     12      19.1510      0.00000
     13      19.6304      0.00000
     14      20.7597      0.00000
     15      21.7668      0.00000
     16      22.9903      0.00000
     17      24.3510      0.00000
     18      25.8352      0.00000
     19      27.9163      0.00000
     20      30.1227      0.00000
     21      31.1853      0.00000
     22      32.3076      0.00000
     23      32.4765      0.00000
     24      33.3564      0.00000

 k-point  15 :       0.5000    0.2500    0.0000
  band No.  band energies     occupation 
      1      -3.4114      2.00000
      2      -0.5495      2.00000
      3       2.2998      2.00000
      4       3.6294      2.00000
      5       7.3686     -0.00000
      6      10.3022     -0.00000
      7      11.5993      0.00000
      8      11.7782      0.00000
      9      16.0799      0.00000
     10      16.4440      0.00000
     11      18.0706      0.00000
     12      18.5805      0.00000
     13      18.8936      0.00000
     14      22.7522      0.00000
     15      23.6777      0.00000
     16      24.5748      0.00000
     17      25.2651      0.00000
     18      25.5469      0.00000
     19      25.8753      0.00000
     20      28.8186      0.00000
     21      29.7770      0.00000
     22      31.1352      0.00000
     23      31.5378      0.00000
     24      33.7454      0.00000

 k-point  16 :      -0.3750    0.2500    0.0000
  band No.  band energies     occupation 
      1      -3.2071      2.00000
      2      -0.8084      2.00000
      3       1.8406      2.00000
      4       3.9475      2.00000
      5       7.6927     -0.00000
      6      11.3242     -0.00000
      7      11.3331     -0.00000
      8      12.8139      0.00000
      9      13.8635      0.00000
     10      13.8693      0.00000
     11      18.4407      0.00000
     12      20.7657      0.00000
     13      20.9977      0.00000
     14      21.9262      0.00000
     15      22.3763      0.00000
     16      24.3462      0.00000
     17      25.3761      0.00000
     18      25.9319      0.00000
     19      27.7910      0.00000
     20      28.0109      0.00000
     21      30.6639      0.00000
     22      31.3000      0.00000
     23      31.6813      0.00000
     24      32.2712      0.00000

 k-point  17 :      -0.2500    0.2500    0.0000
  band No.  band energies     occupation 
      1      -4.0858      2.00000
      2       0.3539      2.00000
      3       2.0811      2.00000
      4       4.5074      2.00000
      5       8.2996     -0.00000
      6      10.6372     -0.00000
      7      10.9969     -0.00000
      8      11.9938      0.00000
      9      12.3310      0.00000
     10      15.5033      0.00000
     11      18.5016      0.00000
     12      19.1026      0.00000
     13      19.3229      0.00000
     14      22.5631      0.00000
     15      23.0578      0.00000
     16      23.3889      0.00000
     17      24.6371      0.00000
     18      27.2603      0.00000
     19      27.6019      0.00000
     20      29.9264      0.00000
     21      30.6780      0.00000
     22      31.2636      0.00000
     23      32.7692      0.00000
     24      32.9986      0.00000

 k-point  18 :       0.3750    0.3750    0.0000
  band No.  band energies     occupation 
      1      -3.7348      2.00000
      2       0.0888      2.00000
      3       3.2269      2.00000
      4       3.2270      2.00000
      5       6.4605     -0.00354
      6       7.3898     -0.00000
      7      13.9013      0.00000
      8      13.9013      0.00000
      9      16.3347      0.00000
     10      16.5788      0.00000
     11      18.9416      0.00000
     12      18.9416      0.00000
     13      19.4958      0.00000
     14      21.1221      0.00000
     15      21.8638      0.00000
     16      22.6903      0.00000
     17      22.6903      0.00000
     18      24.7686      0.00000
     19      29.4024      0.00000
     20      29.7035      0.00000
     21      30.0025      0.00000
     22      30.0025      0.00000
     23      31.3522      0.00000
     24      33.3558      0.00000

 k-point  19 :       0.5000    0.3750    0.0000
  band No.  band energies     occupation 
      1      -2.8373      2.00000
      2      -0.9973      2.00000
      3       2.3977      2.00000
      4       3.1508      2.00000
      5       6.7419     -0.00000
      6       7.8155     -0.00000
      7      14.1310      0.00000
      8      14.2161      0.00000
      9      16.6404      0.00000
     10      16.7136      0.00000
     11      18.2373      0.00000
     12      18.7435      0.00000
     13      20.8245      0.00000
     14      20.8829      0.00000
     15      21.8228      0.00000
     16      24.5684      0.00000
     17      24.7526      0.00000
     18      25.3314      0.00000
     19      26.6862      0.00000
     20      28.1991      0.00000
     21      28.6945      0.00000
     22      29.4570      0.00000
     23      30.1155      0.00000
     24      31.9158      0.00000

 k-point  20 :      -0.3750    0.3750    0.0000
  band No.  band energies     occupation 
      1      -2.3981      2.00000
      2      -1.3939      2.00000
      3       1.5316      2.00000
      4       3.4086      2.00000
      5       7.0518     -0.00000
      6       9.9829     -0.00000
      7      13.3226      0.00000
      8      13.8863      0.00000
      9      14.0816      0.00000
     10      14.4072      0.00000
     11      20.5938      0.00000
     12      20.8614      0.00000
     13      21.3935      0.00000
     14      21.6089      0.00000
     15      21.7589      0.00000
     16      23.0101      0.00000
     17      25.6190      0.00000
     18      25.9017      0.00000
     19      27.4023      0.00000
     20      27.5299      0.00000
     21      28.7763      0.00000
     22      29.0457      0.00000
     23      31.1219      0.00000
     24      31.8392      0.00000

 k-point  21 :       0.5000    0.5000    0.0000
  band No.  band energies     occupation 
      1      -1.9844      2.00000
      2      -1.9844      2.00000
      3       2.9814      2.00000
      4       2.9814      2.00000
      5       6.5582     -0.00034
      6       6.5582     -0.00034
      7      15.9620      0.00000
      8      15.9621      0.00000
      9      16.9204      0.00000
     10      16.9204      0.00000
     11      18.4575      0.00000
     12      18.4575      0.00000
     13      18.9038      0.00000
     14      18.9038      0.00000
     15      24.8060      0.00000
     16      24.8061      0.00000
     17      25.6298      0.00000
     18      25.6298      0.00000
     19      26.0875      0.00000
     20      26.0876      0.00000
     21      27.3941      0.00000
     22      27.3941      0.00000
     23      31.6504      0.00000
     24      31.6506      0.00000

 k-point  22 :       0.3750    0.2500    0.1250
  band No.  band energies     occupation 
      1      -4.8005      2.00000
      2       1.5456      2.00000
      3       3.1219      2.00000
      4       4.4083      2.00000
      5       8.2934     -0.00000
      6       9.7505     -0.00000
      7      10.0522     -0.00000
      8      11.3568     -0.00000
      9      13.6652      0.00000
     10      16.1402      0.00000
     11      16.9387      0.00000
     12      17.9922      0.00000
     13      19.7968      0.00000
     14      20.9407      0.00000
     15      21.8092      0.00000
     16      24.1187      0.00000
     17      25.2824      0.00000
     18      26.5199      0.00000
     19      27.7094      0.00000
     20      29.3363      0.00000
     21      31.3017      0.00000
     22      32.0658      0.00000
     23      33.8585      0.00000
     24      34.8893      0.00000

 k-point  23 :       0.5000    0.2500    0.1250
  band No.  band energies     occupation 
      1      -3.9119      2.00000
      2      -0.0079      2.00000
      3       2.5131      2.00000
      4       3.9056      2.00000
      5       8.7259     -0.00000
      6       9.4043     -0.00000
      7      10.8721     -0.00000
      8      11.7965      0.00000
      9      14.8998      0.00000
     10      15.6002      0.00000
     11      17.8718      0.00000
     12      18.8311      0.00000
     13      20.1274      0.00000
     14      21.0447      0.00000
     15      23.1702      0.00000
     16      24.1808      0.00000
     17      24.9827      0.00000
     18      26.9175      0.00000
     19      27.8350      0.00000
     20      28.7460      0.00000
     21      30.2559      0.00000
     22      31.6525      0.00000
     23      31.9320      0.00000
     24      33.1847      0.00000

 k-point  24 :      -0.3750    0.2500    0.1250
  band No.  band energies     occupation 
      1      -3.2594      2.00000
      2      -0.9541      2.00000
      3       2.3841      2.00000
      4       3.6755      2.00000
      5       8.9144     -0.00000
      6       8.9826     -0.00000
      7      11.7689      0.00000
      8      12.9864      0.00000
      9      13.2479      0.00000
     10      16.4707      0.00000
     11      17.5682      0.00000
     12      18.2730      0.00000
     13      21.4198      0.00000
     14      21.4981      0.00000
     15      24.0268      0.00000
     16      24.3949      0.00000
     17      25.4128      0.00000
     18      26.7907      0.00000
     19      26.9200      0.00000
     20      27.9989      0.00000
     21      30.9299      0.00000
     22      31.2649      0.00000
     23      31.3502      0.00000
     24      32.2718      0.00000

 k-point  25 :       0.5000    0.3750    0.1250
  band No.  band energies     occupation 
      1      -3.5362      2.00000
      2      -0.1305      2.00000
      3       2.4715      2.00000
      4       3.0750      2.00000
      5       7.7942     -0.00000
      6       8.4974     -0.00000
      7      11.6105      0.00000
      8      13.8583      0.00000
      9      16.0643      0.00000
     10      16.0999      0.00000
     11      18.7665      0.00000
     12      19.2608      0.00000
     13      20.0877      0.00000
     14      20.5246      0.00000
     15      22.5605      0.00000
     16      23.0182      0.00000
     17      25.4684      0.00000
     18      25.9317      0.00000
     19      27.7849      0.00000
     20      27.8522      0.00000
     21      29.3518      0.00000
     22      30.3148      0.00000
     23      32.2438      0.00000
     24      33.4843      0.00000

 k-point  26 :      -0.3750    0.3750    0.1250
  band No.  band energies     occupation 
      1      -2.6612      2.00000
      2      -1.0993      2.00000
      3       1.7731      2.00000
      4       2.8741      2.00000
      5       8.2369     -0.00000
      6      10.1350     -0.00000
      7      11.1294     -0.00000
      8      13.2988      0.00000
      9      14.2773      0.00000
     10      16.9816      0.00000
     11      18.1117      0.00000
     12      20.1843      0.00000
     13      21.2847      0.00000
     14      21.9184      0.00000
     15      23.4429      0.00000
     16      24.2463      0.00000
     17      24.6899      0.00000
     18      25.3796      0.00000
     19      27.0014      0.00000
     20      27.7097      0.00000
     21      28.7347      0.00000
     22      30.0663      0.00000
     23      30.9492      0.00000
     24      33.4669      0.00000

 k-point  27 :      -0.2500    0.3750    0.1250
  band No.  band energies     occupation 
      1      -3.0120      2.00000
      2      -0.7358      2.00000
      3       1.6061      2.00000
      4       3.2504      2.00000
      5       8.7178     -0.00000
      6      10.3970     -0.00000
      7      11.0683     -0.00000
      8      12.8914      0.00000
      9      13.7352      0.00000
     10      15.1265      0.00000
     11      20.0092      0.00000
     12      20.1677      0.00000
     13      20.4779      0.00000
     14      22.2267      0.00000
     15      22.4550      0.00000
     16      24.3422      0.00000
     17      25.0880      0.00000
     18      25.9411      0.00000
     19      27.1106      0.00000
     20      28.0213      0.00000
     21      29.2648      0.00000
     22      30.4365      0.00000
     23      31.8336      0.00000
     24      33.2809      0.00000

 k-point  28 :      -0.3750    0.5000    0.1250
  band No.  band energies     occupation 
      1      -1.9066      2.00000
      2      -1.9065      2.00000
      3       2.4167      2.00000
      4       2.4167      2.00000
      5       7.8183     -0.00000
      6       7.8184     -0.00000
      7      13.7054      0.00000
      8      13.7054      0.00000
      9      16.4663      0.00000
     10      16.4663      0.00000
     11      18.7671      0.00000
     12      18.7671      0.00000
     13      21.4905      0.00000
     14      21.4906      0.00000
     15      23.2931      0.00000
     16      23.2931      0.00000
     17      24.9551      0.00000
     18      24.9551      0.00000
     19      27.6470      0.00000
     20      27.6471      0.00000
     21      29.0100      0.00000
     22      29.0100      0.00000
     23      30.0222      0.00000
     24      30.0222      0.00000

 k-point  29 :      -0.2500    0.5000    0.2500
  band No.  band energies     occupation 
      1      -1.8205      2.00000
      2      -1.8205      2.00000
      3       1.9807      2.00000
      4       1.9807      2.00000
      5      10.1243     -0.00000
      6      10.1243     -0.00000
      7      10.8502     -0.00000
      8      10.8502     -0.00000
      9      16.4633      0.00000
     10      16.4633      0.00000
     11      18.9163      0.00000
     12      18.9164      0.00000
     13      22.3393      0.00000
     14      22.3394      0.00000
     15      24.4486      0.00000
     16      24.4486      0.00000
     17      24.8831      0.00000
     18      24.8832      0.00000
     19      25.8071      0.00000
     20      25.8071      0.00000
     21      29.6252      0.00000
     22      29.6253      0.00000
     23      33.3888      0.00000
     24      33.3888      0.00000


--------------------------------------------------------------------------------------------------------


 soft charge-density along one line, spin component           1
         0         1         2         3         4         5         6         7         8         9
 total charge-density along one line
 
 pseudopotential strength for first ion, spin component:           1
 18.415  25.693  -0.000  -0.000  -0.000  -0.000  -0.000  -0.000
 25.693  35.850  -0.000  -0.000  -0.000  -0.000  -0.000  -0.000
 -0.000  -0.000   4.179  -0.000  -0.000   7.787  -0.000  -0.000
 -0.000  -0.000  -0.000   4.179  -0.000  -0.000   7.787  -0.000
 -0.000  -0.000  -0.000  -0.000   4.179  -0.000  -0.000   7.787
 -0.000  -0.000   7.787  -0.000  -0.000  14.522  -0.000  -0.000
 -0.000  -0.000  -0.000   7.787  -0.000  -0.000  14.522  -0.000
 -0.000  -0.000  -0.000  -0.000   7.787  -0.000  -0.000  14.522
 total augmentation occupancy for first ion, spin component:           1
  6.114  -2.377  -0.000   0.000  -0.000   0.000  -0.000  -0.000
 -2.377   1.031   0.000  -0.000  -0.000   0.000  -0.000   0.000
 -0.000   0.000   3.403   0.000  -0.000  -0.834  -0.000   0.000
 -0.000  -0.000   0.000   3.403   0.000  -0.000  -0.834  -0.000
 -0.000   0.000  -0.000   0.000   3.403   0.000  -0.000  -0.834
 -0.000  -0.000  -0.834  -0.000   0.000   0.212   0.000  -0.000
 -0.000   0.000  -0.000  -0.834  -0.000   0.000   0.212   0.000
 -0.000   0.000   0.000  -0.000  -0.834  -0.000   0.000   0.212


------------------------ aborting loop because EDIFF is reached ----------------------------------------


    CHARGE:  cpu time    0.00: real time    0.00
    FORLOC:  cpu time    0.00: real time    0.00
    FORNL :  cpu time    0.00: real time    0.00
    STRESS:  cpu time    0.03: real time    0.03
    FORCOR:  cpu time    0.00: real time    0.00
    FORHAR:  cpu time    0.00: real time    0.00
    MIXING:  cpu time    0.00: real time    0.00

  FORCE on cell =-STRESS in cart. coord.  units (eV):
  Direction    XX          YY          ZZ          XY          YZ          ZX
  --------------------------------------------------------------------------------------
  Alpha Z     3.36322     3.36322     3.36322
  Ewald     -76.18087   -76.18087   -76.18084     0.00002    -0.00001    -0.00001
  Hartree     4.97454     4.97454     4.97454     0.00000    -0.00000    -0.00000
  E(xc)     -25.38971   -25.38971   -25.38970     0.00000     0.00001     0.00001
  Local     -29.35470   -29.35472   -29.35464     0.00002     0.00004     0.00006
  n-local    74.27163    77.69063    81.97858    -0.90802    -0.71377    -0.01932
  augment   -11.61142   -11.61141   -11.61148    -0.00002    -0.00004    -0.00005
  Kinetic    53.52317    55.46629    60.99769     0.92836     1.10515    -0.56101
  Fock        0.00000     0.00000     0.00000     0.00000     0.00000     0.00000
  -------------------------------------------------------------------------------------
  Total       0.44374     0.44374     0.44374    -0.00000     0.00000     0.00000
  in kB      17.75741    17.75741    17.75740    -0.00000     0.00000     0.00000
  external pressure =       17.76 kB  Pullay stress =        0.00 kB


 VOLUME and BASIS-vectors are now :
 -----------------------------------------------------------------------------
  energy-cutoff  :      245.34
  volume of cell :       40.04
      direct lattice vectors                 reciprocal lattice vectors
     3.325489000  0.000000000  1.919972000     0.300707655 -0.106316182  0.000000000
     1.108496000  3.135301000  1.919972000     0.000000000  0.318948643  0.000000000
     0.000000000  0.000000000  3.839943000    -0.150353867 -0.106316258  0.260420532

  length of vectors
     3.839943954  3.839943779  3.839943000     0.318948624  0.318948643  0.318948719


 FORCES acting on ions
    electron-ion (+dipol)            ewald-force                    non-local-force                 convergence-correction
 -----------------------------------------------------------------------------------------------
   0.140E-04 0.631E-05 -.435E-05   -.205E-04 -.829E-05 0.145E-04   0.451E-16 0.694E-17 0.180E-15   -.365E-11 0.379E-11 0.462E-10
   -.140E-04 -.631E-05 0.435E-05   0.205E-04 0.829E-05 -.145E-04   -.312E-16 -.763E-16 -.902E-16   0.365E-11 -.379E-11 -.462E-10
 -----------------------------------------------------------------------------------------------
   0.576E-13 -.215E-13 -.119E-12   0.746E-15 0.229E-16 0.427E-16   0.139E-16 -.694E-16 0.902E-16   0.412E-15 -.172E-15 0.921E-17
 
 
 POSITION                                       TOTAL-FORCE (eV/Angst)
 -----------------------------------------------------------------------------------
      3.87974      2.74339      6.71990        -0.000000     -0.000000     -0.000000
      0.55425      0.39191      0.95999         0.000000      0.000000      0.000000
 -----------------------------------------------------------------------------------
    total drift:                                0.000000     -0.000000     -0.000000


--------------------------------------------------------------------------------------------------------



  FREE ENERGIE OF THE ION-ELECTRON SYSTEM (eV)
  ---------------------------------------------------
  free  energy   TOTEN  =       -10.81798729 eV

  energy  without entropy=      -10.81825477  energy(sigma->0) =      -10.81807645
 


--------------------------------------------------------------------------------------------------------


    POTLOK:  cpu time    0.00: real time    0.00


--------------------------------------------------------------------------------------------------------


 writing wavefunctions
     LOOP+:  cpu time    0.31: real time    0.65
    4ORBIT:  cpu time    0.00: real time    0.00

 total amount of memory used by VASP on root node    31221. kBytes
========================================================================

   base      :      30000. kBytes
   nonl-proj :        679. kBytes
   fftplans  :         88. kBytes
   grid      :        270. kBytes
   one-center:          6. kBytes
   wavefun   :        178. kBytes
 
  
  
 General timing and accounting informations for this job:
 ========================================================
  
                  Total CPU time used (sec):        0.904
                            User time (sec):        0.622
                          System time (sec):        0.283
                         Elapsed time (sec):        2.180
  
                   Maximum memory used (kb):       80224.
                   Average memory used (kb):           0.
  
                          Minor page faults:         7472
                          Major page faults:           14
                 Voluntary context switches:        17111
