<?xml version="1.0" encoding="ISO-8859-1"?>
<modeling>
 <generator>
  <i name="program" type="string">vasp </i>
  <i name="version" type="string">5.3.3  </i>
  <i name="subversion" type="string">18Dez12 (build Oct 02 2015 10:56:41) complex                          parallel </i>
  <i name="platform" type="string">LinuxIFC </i>
  <i name="date" type="string">2020 05 07 </i>
  <i name="time" type="string">19:04:59 </i>
 </generator>
 <incar>
  <i type="string" name="PREC">normal</i>
 </incar>
 <kpoints>
  <generation param="Gamma">
   <v type="int" name="divisions">       8        8        8 </v>
   <v name="usershift">      0.00000000       0.00000000       0.00000000 </v>
   <v name="genvec1">      0.12500000       0.00000000       0.00000000 </v>
   <v name="genvec2">      0.00000000       0.12500000       0.00000000 </v>
   <v name="genvec3">      0.00000000       0.00000000       0.12500000 </v>
   <v name="shift">      0.00000000       0.00000000       0.00000000 </v>
  </generation>
  <varray name="kpointlist" >
   <v>       0.00000000       0.00000000       0.00000000 </v>
   <v>       0.12500000       0.00000000       0.00000000 </v>
   <v>       0.25000000       0.00000000       0.00000000 </v>
   <v>       0.37500000       0.00000000       0.00000000 </v>
   <v>       0.50000000       0.00000000       0.00000000 </v>
   <v>       0.12500000       0.12500000       0.00000000 </v>
   <v>       0.25000000       0.12500000       0.00000000 </v>
   <v>       0.37500000       0.12500000       0.00000000 </v>
   <v>       0.50000000       0.12500000       0.00000000 </v>
   <v>      -0.37500000       0.12500000       0.00000000 </v>
   <v>      -0.25000000       0.12500000       0.00000000 </v>
   <v>      -0.12500000       0.12500000       0.00000000 </v>
   <v>       0.25000000       0.25000000       0.00000000 </v>
   <v>       0.37500000       0.25000000       0.00000000 </v>
   <v>       0.50000000       0.25000000       0.00000000 </v>
   <v>      -0.37500000       0.25000000       0.00000000 </v>
   <v>      -0.25000000       0.25000000       0.00000000 </v>
   <v>       0.37500000       0.37500000       0.00000000 </v>
   <v>       0.50000000       0.37500000       0.00000000 </v>
   <v>      -0.37500000       0.37500000       0.00000000 </v>
   <v>       0.50000000       0.50000000       0.00000000 </v>
   <v>       0.37500000       0.25000000       0.12500000 </v>
   <v>       0.50000000       0.25000000       0.12500000 </v>
   <v>      -0.37500000       0.25000000       0.12500000 </v>
   <v>       0.50000000       0.37500000       0.12500000 </v>
   <v>      -0.37500000       0.37500000       0.12500000 </v>
   <v>      -0.25000000       0.37500000       0.12500000 </v>
   <v>      -0.37500000       0.50000000       0.12500000 </v>
   <v>      -0.25000000       0.50000000       0.25000000 </v>
  </varray>
  <varray name="weights" >
   <v>       0.00195312 </v>
   <v>       0.01562500 </v>
   <v>       0.01562500 </v>
   <v>       0.01562500 </v>
   <v>       0.00781250 </v>
   <v>       0.01171875 </v>
   <v>       0.04687500 </v>
   <v>       0.04687500 </v>
   <v>       0.04687500 </v>
   <v>       0.04687500 </v>
   <v>       0.04687500 </v>
   <v>       0.02343750 </v>
   <v>       0.01171875 </v>
   <v>       0.04687500 </v>
   <v>       0.04687500 </v>
   <v>       0.04687500 </v>
   <v>       0.02343750 </v>
   <v>       0.01171875 </v>
   <v>       0.04687500 </v>
   <v>       0.02343750 </v>
   <v>       0.00585938 </v>
   <v>       0.04687500 </v>
   <v>       0.09375000 </v>
   <v>       0.04687500 </v>
   <v>       0.04687500 </v>
   <v>       0.09375000 </v>
   <v>       0.04687500 </v>
   <v>       0.02343750 </v>
   <v>       0.01171875 </v>
  </varray>
 </kpoints>
 <parameters>
  <separator name="general" >
   <i type="string" name="SYSTEM">unknown system</i>
   <i type="logical" name="LCOMPAT"> F  </i>
  </separator>
  <separator name="electronic" >
   <i type="string" name="PREC">normal</i>
   <i name="ENMAX">    245.34500000</i>
   <i name="ENAUG">    322.06900000</i>
   <i name="EDIFF">      0.00010000</i>
   <i type="int" name="IALGO">    38</i>
   <i type="int" name="IWAVPR">    10</i>
   <i type="int" name="NBANDS">    24</i>
   <i name="NELECT">      8.00000000</i>
   <i type="int" name="TURBO">     0</i>
   <i type="int" name="IRESTART">     0</i>
   <i type="int" name="NREBOOT">     0</i>
   <i type="int" name="NMIN">     0</i>
   <i name="EREF">      0.00000000</i>
   <separator name="electronic smearing" >
    <i type="int" name="ISMEAR">     1</i>
    <i name="SIGMA">      0.20000000</i>
    <i name="KSPACING">      0.50000000</i>
    <i type="logical" name="KGAMMA"> T  </i>
   </separator>
   <separator name="electronic projectors" >
    <i type="logical" name="LREAL"> F  </i>
    <v name="ROPT">      0.00000000</v>
    <i type="int" name="LMAXPAW">  -100</i>
    <i type="int" name="LMAXMIX">     2</i>
    <i type="logical" name="NLSPLINE"> F  </i>
   </separator>
   <separator name="electronic startup" >
    <i type="int" name="ISTART">     1</i>
    <i type="int" name="ICHARG">     0</i>
    <i type="int" name="INIWAV">     1</i>
   </separator>
   <separator name="electronic spin" >
    <i type="int" name="ISPIN">     1</i>
    <i type="logical" name="LNONCOLLINEAR"> F  </i>
    <v name="MAGMOM">      1.00000000      1.00000000</v>
    <i name="NUPDOWN">     -1.00000000</i>
    <i type="logical" name="LSORBIT"> F  </i>
    <v name="SAXIS">      0.00000000      0.00000000      1.00000000</v>
    <i type="logical" name="LSPIRAL"> F  </i>
    <v name="QSPIRAL">      0.00000000      0.00000000      0.00000000</v>
    <i type="logical" name="LZEROZ"> F  </i>
   </separator>
   <separator name="electronic exchange-correlation" >
    <i type="logical" name="LASPH"> F  </i>
    <i type="logical" name="LMETAGGA"> F  </i>
   </separator>
   <separator name="electronic convergence" >
    <i type="int" name="NELM">    60</i>
    <i type="int" name="NELMDL">     0</i>
    <i type="int" name="NELMIN">     2</i>
    <i name="ENINI">    245.34500000</i>
    <separator name="electronic convergence detail" >
     <i type="logical" name="LDIAG"> T  </i>
     <i type="logical" name="LSUBROT"> T  </i>
     <i name="WEIMIN">      0.00000000</i>
     <i name="EBREAK">      0.00000104</i>
     <i name="DEPER">      0.30000000</i>
     <i type="int" name="NRMM">     4</i>
     <i name="TIME">      0.40000000</i>
    </separator>
   </separator>
   <separator name="electronic mixer" >
    <i name="AMIX">      0.40000000</i>
    <i name="BMIX">      1.00000000</i>
    <i name="AMIN">      0.10000000</i>
    <i name="AMIX_MAG">      1.60000000</i>
    <i name="BMIX_MAG">      1.00000000</i>
    <separator name="electronic mixer details" >
     <i type="int" name="IMIX">     4</i>
     <i type="int" name="MAXMIX">   -45</i>
     <i name="WC">    100.00000000</i>
     <i type="int" name="INIMIX">     1</i>
     <i type="int" name="MIXPRE">     1</i>
     <i type="int" name="MREMOVE">     5</i>
    </separator>
   </separator>
   <separator name="electronic dipolcorrection" >
    <i type="logical" name="LDIPOL"> F  </i>
    <i type="logical" name="LMONO"> F  </i>
    <i type="int" name="IDIPOL">     0</i>
    <i name="EPSILON">      1.00000000</i>
    <v name="DIPOL">   -100.00000000   -100.00000000   -100.00000000</v>
    <i name="EFIELD">      0.00000000</i>
   </separator>
  </separator>
  <separator name="grids" >
   <i type="int" name="NGX">    16</i>
   <i type="int" name="NGY">    16</i>
   <i type="int" name="NGZ">    16</i>
   <i type="int" name="NGXF">    32</i>
   <i type="int" name="NGYF">    32</i>
   <i type="int" name="NGZF">    32</i>
   <i type="logical" name="ADDGRID"> F  </i>
  </separator>
  <separator name="ionic" >
   <i type="int" name="NSW">     0</i>
   <i type="int" name="IBRION">    -1</i>
   <i type="int" name="ISIF">     2</i>
   <i name="PSTRESS">      0.00000000</i>
   <i name="EDIFFG">      0.00100000</i>
   <i type="int" name="NFREE">     0</i>
   <i name="POTIM">      0.50000000</i>
   <i name="SMASS">     -3.00000000</i>
   <i name="SCALEE">      1.00000000</i>
  </separator>
  <separator name="ionic md" >
   <i name="TEBEG">      0.00010000</i>
   <i name="TEEND">      0.00010000</i>
   <i type="int" name="NBLOCK">     1</i>
   <i type="int" name="KBLOCK">     1</i>
   <i type="int" name="NPACO">   256</i>
   <i name="APACO">     16.00000000</i>
  </separator>
  <separator name="symmetry" >
   <i type="int" name="ISYM">     2</i>
   <i name="SYMPREC">      0.00001000</i>
  </separator>
  <separator name="dos" >
   <i type="logical" name="LORBIT"> F  </i>
   <v name="RWIGS">     -1.00000000</v>
   <i type="int" name="NEDOS">   301</i>
   <i name="EMIN">     10.00000000</i>
   <i name="EMAX">    -10.00000000</i>
   <i name="EFERMI">      0.00000000</i>
  </separator>
  <separator name="writing" >
   <i type="int" name="NWRITE">     2</i>
   <i type="logical" name="LWAVE"> T  </i>
   <i type="logical" name="LCHARG"> T  </i>
   <i type="logical" name="LPARD"> F  </i>
   <i type="logical" name="LVTOT"> F  </i>
   <i type="logical" name="LVHAR"> F  </i>
   <i type="logical" name="LELF"> F  </i>
   <i type="logical" name="LOPTICS"> F  </i>
   <v name="STM">      0.00000000      0.00000000      0.00000000      0.00000000      0.00000000      0.00000000      0.00000000</v>
  </separator>
  <separator name="performance" >
   <i type="int" name="NPAR">    24</i>
   <i type="int" name="NSIM">     4</i>
   <i type="int" name="NBLK">    -1</i>
   <i type="logical" name="LPLANE"> T  </i>
   <i type="logical" name="LSCALAPACK"> F  </i>
   <i type="logical" name="LSCAAWARE"> F  </i>
   <i type="logical" name="LSCALU"> F  </i>
   <i type="logical" name="LASYNC"> F  </i>
   <i type="logical" name="LORBITALREAL"> F  </i>
  </separator>
  <separator name="miscellaneous" >
   <i type="int" name="IDIOT">     3</i>
   <i type="logical" name="LMUSIC"> F  </i>
   <v name="POMASS">     28.08500000</v>
   <v name="DARWINR">      0.00000000</v>
   <v name="DARWINV">      1.00000000</v>
   <i type="logical" name="LCORR"> T  </i>
  </separator>
  <i type="logical" name="GGA_COMPAT"> T  </i>
  <i type="logical" name="LBERRY"> F  </i>
  <i type="int" name="ICORELEVEL">     0</i>
  <i type="logical" name="LDAU"> F  </i>
  <i type="int" name="I_CONSTRAINED_M">     0</i>
  <separator name="electronic exchange-correlation" >
   <i type="string" name="GGA">--</i>
   <i type="int" name="VOSKOWN">     0</i>
   <i type="logical" name="LHFCALC"> F  </i>
   <i type="string" name="PRECFOCK"></i>
   <i type="logical" name="LSYMGRAD"> F  </i>
   <i type="logical" name="LHFONE"> F  </i>
   <i type="logical" name="LRHFCALC"> F  </i>
   <i type="logical" name="LTHOMAS"> F  </i>
   <i type="logical" name="LMODELHF"> F  </i>
   <i name="ENCUT4O">     -1.00000000</i>
   <i type="int" name="EXXOEP">     0</i>
   <i type="int" name="FOURORBIT">     0</i>
   <i name="AEXX">      0.00000000</i>
   <i name="HFALPHA">      0.00000000</i>
   <i name="MCALPHA">      0.00000000</i>
   <i name="ALDAX">      1.00000000</i>
   <i name="AGGAX">      1.00000000</i>
   <i name="ALDAC">      1.00000000</i>
   <i name="AGGAC">      1.00000000</i>
   <i type="int" name="NKREDX">     1</i>
   <i type="int" name="NKREDY">     1</i>
   <i type="int" name="NKREDZ">     1</i>
   <i type="logical" name="SHIFTRED"> F  </i>
   <i type="logical" name="ODDONLY"> F  </i>
   <i type="logical" name="EVENONLY"> F  </i>
   <i type="int" name="LMAXFOCK">     0</i>
   <i type="int" name="NMAXFOCKAE">     0</i>
   <i type="logical" name="LFOCKAEDFT"> F  </i>
   <i name="HFSCREEN">      0.00000000</i>
   <i name="HFSCREENC">      0.00000000</i>
   <i type="int" name="NBANDSGWLOW">     0</i>
  </separator>
  <separator name="vdW DFT" >
   <i type="logical" name="LUSE_VDW"> F  </i>
   <i name="Zab_VDW">     -0.84910000</i>
   <i name="PARAM1">      0.12340000</i>
   <i name="PARAM2">      1.00000000</i>
   <i name="PARAM3">      0.00000000</i>
  </separator>
  <separator name="model GW" >
   <i type="int" name="MODEL_GW">     0</i>
   <i name="MODEL_EPS0">     12.01104486</i>
   <i name="MODEL_ALPHA">      1.00000000</i>
  </separator>
  <separator name="linear response parameters" >
   <i type="logical" name="LEPSILON"> F  </i>
   <i type="logical" name="LRPA"> F  </i>
   <i type="logical" name="LNABLA"> F  </i>
   <i type="logical" name="LVEL"> F  </i>
   <i type="int" name="KINTER">     0</i>
   <i name="CSHIFT">      0.10000000</i>
   <i name="OMEGAMAX">     -1.00000000</i>
   <i name="DEG_THRESHOLD">      0.00200000</i>
  </separator>
  <separator name="orbital magnetization" >
   <i type="logical" name="NUCIND"> F  </i>
   <v name="MAGPOS">      0.00000000      0.00000000      0.00000000</v>
   <i type="logical" name="LNICSALL"> T  </i>
   <i type="logical" name="ORBITALMAG"> F  </i>
   <i type="logical" name="LMAGBLOCH"> F  </i>
   <i type="logical" name="LCHIMAG"> F  </i>
   <i type="logical" name="LGAUGE"> T  </i>
   <i type="int" name="MAGATOM">     0</i>
   <v name="MAGDIPOL">      0.00000000      0.00000000      0.00000000</v>
   <v name="AVECCONST">      0.00000000      0.00000000      0.00000000</v>
  </separator>
  <separator name="response functions" >
   <i type="logical" name="LADDER"> F  </i>
   <i type="logical" name="LFXC"> F  </i>
   <i type="logical" name="LHARTREE"> T  </i>
   <i type="int" name="IBSE">     0</i>
   <i type="logical" name="LTCTE"> F  </i>
   <i type="logical" name="LTETE"> F  </i>
   <i type="logical" name="LTRIPLET"> F  </i>
   <i type="logical" name="LFXCEPS"> F  </i>
   <i type="logical" name="L2ORDER"> F  </i>
   <i type="logical" name="LUSEW"> F  </i>
   <i name="ENCUTGW">     -2.00000000</i>
   <i name="ENCUTGWSOFT">     -2.00000000</i>
   <i name="ENCUTLF">     -1.00000000</i>
   <i type="int" name="LMAXMP2">    -1</i>
   <i name="SCISSOR">      0.00000000</i>
   <i type="int" name="NOMEGA">     0</i>
   <i type="int" name="NOMEGAR">     0</i>
   <i type="int" name="NBANDSGW">    -1</i>
   <i type="int" name="NBANDSO">    -1</i>
   <i type="int" name="NBANDSV">    -1</i>
   <i type="int" name="NELM">     1</i>
   <i type="int" name="DIM">     3</i>
   <i type="int" name="ANTIRES">     0</i>
   <i name="OMEGAMAX">    -30.00000000</i>
   <i name="OMEGATL">   -200.00000000</i>
   <i type="int" name="OMEGAGRID">     0</i>
   <i name="CSHIFT">     -0.10000000</i>
   <i type="logical" name="SELFENERGY"> F  </i>
   <i type="logical" name="LSPECTRAL"> F  </i>
   <i type="logical" name="ODDONLYGW"> F  </i>
   <i type="logical" name="EVENONLYGW"> F  </i>
   <i type="int" name="NKREDLFX">     1</i>
   <i type="int" name="NKREDLFY">     1</i>
   <i type="int" name="NKREDLFZ">     1</i>
   <i type="int" name="MAXMEM">  1800</i>
   <i type="int" name="TELESCOPE">     0</i>
  </separator>
 </parameters>
 <atominfo>
  <atoms>       2 </atoms>
  <types>       1 </types>
  <array name="atoms" >
   <dimension dim="1">ion</dimension>
   <field type="string">element</field>
   <field type="int">atomtype</field>
   <set>
    <rc><c>Si</c><c>   1</c></rc>
    <rc><c>Si</c><c>   1</c></rc>
   </set>
  </array>
  <array name="atomtypes" >
   <dimension dim="1">type</dimension>
   <field type="int">atomspertype</field>
   <field type="string">element</field>
   <field>mass</field>
   <field>valence</field>
   <field type="string">pseudopotential</field>
   <set>
    <rc><c>   2</c><c>Si</c><c>     28.08500000</c><c>      4.00000000</c><c>  PAW_PBE Si 05Jan2001                  </c></rc>
   </set>
  </array>
 </atominfo>
 <structure name="initialpos" >
  <crystal>
   <varray name="basis" >
    <v>       3.32548900       0.00000000       1.91997200 </v>
    <v>       1.10849600       3.13530100       1.91997200 </v>
    <v>       0.00000000       0.00000000       3.83994300 </v>
   </varray>
   <i name="volume">     40.03681621 </i>
   <varray name="rec_basis" >
    <v>       0.30070766      -0.10631618       0.00000000 </v>
    <v>       0.00000000       0.31894864       0.00000000 </v>
    <v>      -0.15035387      -0.10631626       0.26042053 </v>
   </varray>
  </crystal>
  <varray name="positions" >
   <v>       0.87500000       0.87500000       0.87500000 </v>
   <v>       0.12500000       0.12500000       0.12500000 </v>
  </varray>
 </structure>
 <calculation>
  <scstep>
   <time name="dav">    0.06    0.27</time>
   <time name="total">    0.09    0.30</time>
   <energy>
    <i name="alphaZ">      3.36321756 </i>
    <i name="ewald">   -228.54246794 </i>
    <i name="hartreedc">    -14.92335760 </i>
    <i name="XCdc">    -17.95314139 </i>
    <i name="pawpsdc">   1032.30488291 </i>
    <i name="pawaedc">   -997.34967074 </i>
    <i name="eentropy">      0.00026750 </i>
    <i name="bandstr">      6.15971012 </i>
    <i name="atom">    206.12257231 </i>
    <i name="e_fr_energy">    -10.81798728 </i>
    <i name="e_wo_entrp">    -10.81825477 </i>
    <i name="e_0_energy">    -10.81807644 </i>
   </energy>
  </scstep>
  <scstep>
   <time name="dav">    0.05    0.05</time>
   <time name="total">    0.05    0.05</time>
   <energy>
    <i name="alphaZ">      3.36321756 </i>
    <i name="ewald">   -228.54246794 </i>
    <i name="hartreedc">    -14.92341809 </i>
    <i name="XCdc">    -17.95312337 </i>
    <i name="pawpsdc">   1032.38338265 </i>
    <i name="pawaedc">   -997.42815692 </i>
    <i name="eentropy">      0.00026748 </i>
    <i name="bandstr">      6.15973904 </i>
    <i name="atom">    206.12257231 </i>
    <i name="e_fr_energy">    -10.81798729 </i>
    <i name="e_wo_entrp">    -10.81825477 </i>
    <i name="e_0_energy">    -10.81807645 </i>
   </energy>
  </scstep>
  <structure>
   <crystal>
    <varray name="basis" >
     <v>       3.32548900       0.00000000       1.91997200 </v>
     <v>       1.10849600       3.13530100       1.91997200 </v>
     <v>       0.00000000       0.00000000       3.83994300 </v>
    </varray>
    <i name="volume">     40.03681621 </i>
    <varray name="rec_basis" >
     <v>       0.30070766      -0.10631618       0.00000000 </v>
     <v>       0.00000000       0.31894864       0.00000000 </v>
     <v>      -0.15035387      -0.10631626       0.26042053 </v>
    </varray>
   </crystal>
   <varray name="positions" >
    <v>       0.87500000       0.87500000       0.87500000 </v>
    <v>       0.12500000       0.12500000       0.12500000 </v>
   </varray>
  </structure>
  <varray name="forces" >
   <v>      -0.00000000      -0.00000000      -0.00000000 </v>
   <v>       0.00000000       0.00000000       0.00000000 </v>
  </varray>
  <varray name="stress" >
   <v>      17.75740857      -0.00000189       0.00000267 </v>
   <v>      -0.00000189      17.75740747       0.00000189 </v>
   <v>       0.00000267       0.00000189      17.75739989 </v>
  </varray>
  <energy>
   <i name="e_fr_energy">    -10.81798729 </i>
   <i name="e_wo_entrp">    -10.81807645 </i>
   <i name="e_0_energy">      0.00026748 </i>
  </energy>
  <time name="totalsc">    0.31    0.65</time>
  <eigenvalues>
   <array>
    <dimension dim="1">band</dimension>
    <dimension dim="2">kpoint</dimension>
    <dimension dim="3">spin</dimension>
    <field>eigene</field>
    <field>occ</field>
    <set>
     <set comment="spin 1">
      <set comment="kpoint 1">
       <r>   -6.1302    1.0000 </r>
       <r>    5.8400    0.9598 </r>
       <r>    5.8400    0.9597 </r>
       <r>    5.8400    0.9597 </r>
       <r>    8.4073   -0.0000 </r>
       <r>    8.4073   -0.0000 </r>
       <r>    8.4073   -0.0000 </r>
       <r>    9.2038   -0.0000 </r>
       <r>   13.6261    0.0000 </r>
       <r>   13.6261    0.0000 </r>
       <r>   13.7902    0.0000 </r>
       <r>   17.1099    0.0000 </r>
       <r>   17.1099    0.0000 </r>
       <r>   17.1099    0.0000 </r>
       <r>   21.2366    0.0000 </r>
       <r>   29.1576    0.0000 </r>
       <r>   29.1576    0.0000 </r>
       <r>   29.1576    0.0000 </r>
       <r>   30.3293    0.0000 </r>
       <r>   30.3293    0.0000 </r>
       <r>   31.7303    0.0000 </r>
       <r>   31.7304    0.0000 </r>
       <r>   31.7304    0.0000 </r>
       <r>   35.0824    0.0000 </r>
      </set>
      <set comment="kpoint 2">
       <r>   -5.9259    1.0000 </r>
       <r>    4.2398    1.0000 </r>
       <r>    5.5509    1.0049 </r>
       <r>    5.5509    1.0049 </r>
       <r>    8.3457   -0.0000 </r>
       <r>    8.8336   -0.0000 </r>
       <r>    8.8336   -0.0000 </r>
       <r>   10.5525   -0.0000 </r>
       <r>   13.1353    0.0000 </r>
       <r>   13.1353    0.0000 </r>
       <r>   14.5782    0.0000 </r>
       <r>   16.5487    0.0000 </r>
       <r>   18.2926    0.0000 </r>
       <r>   18.2926    0.0000 </r>
       <r>   22.4829    0.0000 </r>
       <r>   27.0775    0.0000 </r>
       <r>   27.0776    0.0000 </r>
       <r>   27.3770    0.0000 </r>
       <r>   29.9637    0.0000 </r>
       <r>   29.9640    0.0000 </r>
       <r>   32.2837    0.0000 </r>
       <r>   32.2837    0.0000 </r>
       <r>   33.2480    0.0000 </r>
       <r>   35.2679    0.0000 </r>
      </set>
      <set comment="kpoint 3">
       <r>   -5.3303    1.0000 </r>
       <r>    1.9078    1.0000 </r>
       <r>    5.0770    1.0000 </r>
       <r>    5.0770    1.0000 </r>
       <r>    7.8745   -0.0000 </r>
       <r>    9.3541   -0.0000 </r>
       <r>    9.3541   -0.0000 </r>
       <r>   12.7635    0.0000 </r>
       <r>   13.0747    0.0000 </r>
       <r>   13.0748    0.0000 </r>
       <r>   14.8376    0.0000 </r>
       <r>   17.6977    0.0000 </r>
       <r>   20.5531    0.0000 </r>
       <r>   20.5532    0.0000 </r>
       <r>   23.7714    0.0000 </r>
       <r>   23.7715    0.0000 </r>
       <r>   23.9396    0.0000 </r>
       <r>   25.9363    0.0000 </r>
       <r>   30.1284    0.0000 </r>
       <r>   30.1287    0.0000 </r>
       <r>   32.6252    0.0000 </r>
       <r>   32.6252    0.0000 </r>
       <r>   33.9615    0.0000 </r>
       <r>   35.5006    0.0000 </r>
      </set>
      <set comment="kpoint 4">
       <r>   -4.4366    1.0000 </r>
       <r>   -0.1146    1.0000 </r>
       <r>    4.7488    1.0000 </r>
       <r>    4.7488    1.0000 </r>
       <r>    7.5109   -0.0000 </r>
       <r>    9.3027   -0.0000 </r>
       <r>    9.3028   -0.0000 </r>
       <r>   13.7214    0.0000 </r>
       <r>   14.4677    0.0000 </r>
       <r>   14.4677    0.0000 </r>
       <r>   15.5373    0.0000 </r>
       <r>   19.6743    0.0000 </r>
       <r>   19.6744    0.0000 </r>
       <r>   19.9342    0.0000 </r>
       <r>   22.6050    0.0000 </r>
       <r>   24.4462    0.0000 </r>
       <r>   24.4462    0.0000 </r>
       <r>   28.8537    0.0000 </r>
       <r>   29.8669    0.0000 </r>
       <r>   29.9406    0.0000 </r>
       <r>   29.9408    0.0000 </r>
       <r>   32.7997    0.0000 </r>
       <r>   32.7998    0.0000 </r>
       <r>   34.2697    0.0000 </r>
      </set>
      <set comment="kpoint 5">
       <r>   -3.7979    1.0000 </r>
       <r>   -1.1374    1.0000 </r>
       <r>    4.6372    1.0000 </r>
       <r>    4.6372    1.0000 </r>
       <r>    7.3820   -0.0000 </r>
       <r>    9.1934   -0.0000 </r>
       <r>    9.1934   -0.0000 </r>
       <r>   13.5668    0.0000 </r>
       <r>   16.4954    0.0000 </r>
       <r>   16.4955    0.0000 </r>
       <r>   17.2073    0.0000 </r>
       <r>   17.2136    0.0000 </r>
       <r>   17.2136    0.0000 </r>
       <r>   18.8618    0.0000 </r>
       <r>   25.3532    0.0000 </r>
       <r>   25.8583    0.0000 </r>
       <r>   27.5908    0.0000 </r>
       <r>   27.5909    0.0000 </r>
       <r>   27.8142    0.0000 </r>
       <r>   27.8144    0.0000 </r>
       <r>   31.6575    0.0000 </r>
       <r>   32.4049    0.0000 </r>
       <r>   32.4051    0.0000 </r>
       <r>   33.4656    0.0000 </r>
      </set>
      <set comment="kpoint 6">
       <r>   -5.8571    1.0000 </r>
       <r>    4.5051    1.0000 </r>
       <r>    5.0319    1.0000 </r>
       <r>    5.0319    1.0000 </r>
       <r>    7.8552   -0.0000 </r>
       <r>    9.5517   -0.0000 </r>
       <r>    9.5517   -0.0000 </r>
       <r>   10.2389   -0.0000 </r>
       <r>   12.3831    0.0000 </r>
       <r>   13.9299    0.0000 </r>
       <r>   14.8787    0.0000 </r>
       <r>   17.5905    0.0000 </r>
       <r>   17.5906    0.0000 </r>
       <r>   18.0834    0.0000 </r>
       <r>   23.0792    0.0000 </r>
       <r>   26.5842    0.0000 </r>
       <r>   26.5842    0.0000 </r>
       <r>   27.8557    0.0000 </r>
       <r>   28.6591    0.0000 </r>
       <r>   29.5314    0.0000 </r>
       <r>   32.5958    0.0000 </r>
       <r>   32.8756    0.0000 </r>
       <r>   32.8756    0.0000 </r>
       <r>   37.1465    0.0000 </r>
      </set>
      <set comment="kpoint 7">
       <r>   -5.3884    1.0000 </r>
       <r>    2.6114    1.0000 </r>
       <r>    4.5180    1.0000 </r>
       <r>    4.5949    1.0000 </r>
       <r>    7.9927   -0.0000 </r>
       <r>    9.5533   -0.0000 </r>
       <r>   10.3204   -0.0000 </r>
       <r>   10.6088   -0.0000 </r>
       <r>   13.3672    0.0000 </r>
       <r>   14.0837    0.0000 </r>
       <r>   15.8700    0.0000 </r>
       <r>   17.4522    0.0000 </r>
       <r>   19.0283    0.0000 </r>
       <r>   20.3098    0.0000 </r>
       <r>   23.5212    0.0000 </r>
       <r>   24.0200    0.0000 </r>
       <r>   25.1733    0.0000 </r>
       <r>   27.5270    0.0000 </r>
       <r>   27.5852    0.0000 </r>
       <r>   29.0479    0.0000 </r>
       <r>   32.3363    0.0000 </r>
       <r>   33.2559    0.0000 </r>
       <r>   34.3413    0.0000 </r>
       <r>   35.8884    0.0000 </r>
      </set>
      <set comment="kpoint 8">
       <r>   -4.5733    1.0000 </r>
       <r>    0.5491    1.0000 </r>
       <r>    4.0022    1.0000 </r>
       <r>    4.2493    1.0000 </r>
       <r>    8.0951   -0.0000 </r>
       <r>    9.4920   -0.0000 </r>
       <r>   10.3215   -0.0000 </r>
       <r>   11.3274   -0.0000 </r>
       <r>   15.2129    0.0000 </r>
       <r>   15.2207    0.0000 </r>
       <r>   15.8111    0.0000 </r>
       <r>   19.3160    0.0000 </r>
       <r>   19.3317    0.0000 </r>
       <r>   21.1372    0.0000 </r>
       <r>   22.5599    0.0000 </r>
       <r>   23.5852    0.0000 </r>
       <r>   24.5332    0.0000 </r>
       <r>   27.9101    0.0000 </r>
       <r>   28.5665    0.0000 </r>
       <r>   29.5396    0.0000 </r>
       <r>   30.7220    0.0000 </r>
       <r>   31.6099    0.0000 </r>
       <r>   33.5450    0.0000 </r>
       <r>   35.0169    0.0000 </r>
      </set>
      <set comment="kpoint 9">
       <r>   -3.7117    1.0000 </r>
       <r>   -0.9158    1.0000 </r>
       <r>    3.5559    1.0000 </r>
       <r>    4.2731    1.0000 </r>
       <r>    8.0418   -0.0000 </r>
       <r>    9.3661   -0.0000 </r>
       <r>    9.9575   -0.0000 </r>
       <r>   13.2286    0.0000 </r>
       <r>   14.8553    0.0000 </r>
       <r>   16.3960    0.0000 </r>
       <r>   17.4061    0.0000 </r>
       <r>   17.5457    0.0000 </r>
       <r>   18.4039    0.0000 </r>
       <r>   20.9390    0.0000 </r>
       <r>   24.2539    0.0000 </r>
       <r>   25.5850    0.0000 </r>
       <r>   26.2345    0.0000 </r>
       <r>   27.0580    0.0000 </r>
       <r>   27.9507    0.0000 </r>
       <r>   28.2931    0.0000 </r>
       <r>   30.6365    0.0000 </r>
       <r>   31.9473    0.0000 </r>
       <r>   32.2765    0.0000 </r>
       <r>   33.5971    0.0000 </r>
      </set>
      <set comment="kpoint 10">
       <r>   -3.9563    1.0000 </r>
       <r>   -0.5451    1.0000 </r>
       <r>    3.3730    1.0000 </r>
       <r>    4.5697    1.0000 </r>
       <r>    8.2072   -0.0000 </r>
       <r>    9.4744   -0.0000 </r>
       <r>    9.7199   -0.0000 </r>
       <r>   13.7664    0.0000 </r>
       <r>   13.9770    0.0000 </r>
       <r>   15.0776    0.0000 </r>
       <r>   17.0552    0.0000 </r>
       <r>   18.3385    0.0000 </r>
       <r>   20.1924    0.0000 </r>
       <r>   20.5794    0.0000 </r>
       <r>   22.7968    0.0000 </r>
       <r>   24.5535    0.0000 </r>
       <r>   26.4958    0.0000 </r>
       <r>   28.1269    0.0000 </r>
       <r>   28.3609    0.0000 </r>
       <r>   28.5899    0.0000 </r>
       <r>   30.6207    0.0000 </r>
       <r>   31.0392    0.0000 </r>
       <r>   33.3254    0.0000 </r>
       <r>   33.5354    0.0000 </r>
      </set>
      <set comment="kpoint 11">
       <r>   -4.8797    1.0000 </r>
       <r>    1.2090    1.0000 </r>
       <r>    3.5246    1.0000 </r>
       <r>    5.0624    1.0000 </r>
       <r>    8.5656   -0.0000 </r>
       <r>    9.5241   -0.0000 </r>
       <r>    9.7092   -0.0000 </r>
       <r>   12.1509    0.0000 </r>
       <r>   12.3484    0.0000 </r>
       <r>   15.6952    0.0000 </r>
       <r>   15.9631    0.0000 </r>
       <r>   18.3004    0.0000 </r>
       <r>   19.9177    0.0000 </r>
       <r>   21.3000    0.0000 </r>
       <r>   22.3504    0.0000 </r>
       <r>   23.9967    0.0000 </r>
       <r>   24.7426    0.0000 </r>
       <r>   27.6401    0.0000 </r>
       <r>   27.9685    0.0000 </r>
       <r>   28.9378    0.0000 </r>
       <r>   32.1112    0.0000 </r>
       <r>   32.5730    0.0000 </r>
       <r>   33.3824    0.0000 </r>
       <r>   35.3897    0.0000 </r>
      </set>
      <set comment="kpoint 12">
       <r>   -5.5897    1.0000 </r>
       <r>    3.1532    1.0000 </r>
       <r>    4.2086    1.0000 </r>
       <r>    5.5471    1.0045 </r>
       <r>    8.8872   -0.0000 </r>
       <r>    8.9700   -0.0000 </r>
       <r>    9.2090   -0.0000 </r>
       <r>   11.3982   -0.0000 </r>
       <r>   12.2320    0.0000 </r>
       <r>   13.9165    0.0000 </r>
       <r>   15.5977    0.0000 </r>
       <r>   17.0548    0.0000 </r>
       <r>   18.2401    0.0000 </r>
       <r>   20.3906    0.0000 </r>
       <r>   23.6443    0.0000 </r>
       <r>   24.0250    0.0000 </r>
       <r>   26.9132    0.0000 </r>
       <r>   27.1785    0.0000 </r>
       <r>   27.7124    0.0000 </r>
       <r>   29.1148    0.0000 </r>
       <r>   32.5779    0.0000 </r>
       <r>   32.7847    0.0000 </r>
       <r>   34.8900    0.0000 </r>
       <r>   36.5188    0.0000 </r>
      </set>
      <set comment="kpoint 13">
       <r>   -5.0479    1.0000 </r>
       <r>    2.3187    1.0000 </r>
       <r>    3.9454    1.0000 </r>
       <r>    3.9454    1.0000 </r>
       <r>    6.9735   -0.0000 </r>
       <r>    8.9860   -0.0000 </r>
       <r>   11.6136    0.0000 </r>
       <r>   11.6136    0.0000 </r>
       <r>   13.9220    0.0000 </r>
       <r>   14.8346    0.0000 </r>
       <r>   17.2730    0.0000 </r>
       <r>   18.9075    0.0000 </r>
       <r>   18.9075    0.0000 </r>
       <r>   19.6094    0.0000 </r>
       <r>   23.3237    0.0000 </r>
       <r>   23.3237    0.0000 </r>
       <r>   24.3100    0.0000 </r>
       <r>   26.3031    0.0000 </r>
       <r>   26.9090    0.0000 </r>
       <r>   30.9354    0.0000 </r>
       <r>   32.4075    0.0000 </r>
       <r>   33.3201    0.0000 </r>
       <r>   33.3201    0.0000 </r>
       <r>   35.4291    0.0000 </r>
      </set>
      <set comment="kpoint 14">
       <r>   -4.3376    1.0000 </r>
       <r>    0.8937    1.0000 </r>
       <r>    3.1639    1.0000 </r>
       <r>    3.6266    1.0000 </r>
       <r>    7.1966   -0.0000 </r>
       <r>    8.7467   -0.0000 </r>
       <r>   11.8555    0.0000 </r>
       <r>   12.1294    0.0000 </r>
       <r>   15.8865    0.0000 </r>
       <r>   16.0457    0.0000 </r>
       <r>   17.5290    0.0000 </r>
       <r>   19.1510    0.0000 </r>
       <r>   19.6304    0.0000 </r>
       <r>   20.7597    0.0000 </r>
       <r>   21.7668    0.0000 </r>
       <r>   22.9903    0.0000 </r>
       <r>   24.3510    0.0000 </r>
       <r>   25.8352    0.0000 </r>
       <r>   27.9163    0.0000 </r>
       <r>   30.1227    0.0000 </r>
       <r>   31.1853    0.0000 </r>
       <r>   32.3076    0.0000 </r>
       <r>   32.4765    0.0000 </r>
       <r>   33.3564    0.0000 </r>
      </set>
      <set comment="kpoint 15">
       <r>   -3.4114    1.0000 </r>
       <r>   -0.5495    1.0000 </r>
       <r>    2.2998    1.0000 </r>
       <r>    3.6294    1.0000 </r>
       <r>    7.3686   -0.0000 </r>
       <r>   10.3022   -0.0000 </r>
       <r>   11.5993    0.0000 </r>
       <r>   11.7782    0.0000 </r>
       <r>   16.0799    0.0000 </r>
       <r>   16.4440    0.0000 </r>
       <r>   18.0706    0.0000 </r>
       <r>   18.5805    0.0000 </r>
       <r>   18.8936    0.0000 </r>
       <r>   22.7522    0.0000 </r>
       <r>   23.6777    0.0000 </r>
       <r>   24.5748    0.0000 </r>
       <r>   25.2651    0.0000 </r>
       <r>   25.5469    0.0000 </r>
       <r>   25.8753    0.0000 </r>
       <r>   28.8186    0.0000 </r>
       <r>   29.7770    0.0000 </r>
       <r>   31.1352    0.0000 </r>
       <r>   31.5378    0.0000 </r>
       <r>   33.7454    0.0000 </r>
      </set>
      <set comment="kpoint 16">
       <r>   -3.2071    1.0000 </r>
       <r>   -0.8084    1.0000 </r>
       <r>    1.8406    1.0000 </r>
       <r>    3.9475    1.0000 </r>
       <r>    7.6927   -0.0000 </r>
       <r>   11.3242   -0.0000 </r>
       <r>   11.3331   -0.0000 </r>
       <r>   12.8139    0.0000 </r>
       <r>   13.8635    0.0000 </r>
       <r>   13.8693    0.0000 </r>
       <r>   18.4407    0.0000 </r>
       <r>   20.7657    0.0000 </r>
       <r>   20.9977    0.0000 </r>
       <r>   21.9262    0.0000 </r>
       <r>   22.3763    0.0000 </r>
       <r>   24.3462    0.0000 </r>
       <r>   25.3761    0.0000 </r>
       <r>   25.9319    0.0000 </r>
       <r>   27.7910    0.0000 </r>
       <r>   28.0109    0.0000 </r>
       <r>   30.6639    0.0000 </r>
       <r>   31.3000    0.0000 </r>
       <r>   31.6813    0.0000 </r>
       <r>   32.2712    0.0000 </r>
      </set>
      <set comment="kpoint 17">
       <r>   -4.0858    1.0000 </r>
       <r>    0.3539    1.0000 </r>
       <r>    2.0811    1.0000 </r>
       <r>    4.5074    1.0000 </r>
       <r>    8.2996   -0.0000 </r>
       <r>   10.6372   -0.0000 </r>
       <r>   10.9969   -0.0000 </r>
       <r>   11.9938    0.0000 </r>
       <r>   12.3310    0.0000 </r>
       <r>   15.5033    0.0000 </r>
       <r>   18.5016    0.0000 </r>
       <r>   19.1026    0.0000 </r>
       <r>   19.3229    0.0000 </r>
       <r>   22.5631    0.0000 </r>
       <r>   23.0578    0.0000 </r>
       <r>   23.3889    0.0000 </r>
       <r>   24.6371    0.0000 </r>
       <r>   27.2603    0.0000 </r>
       <r>   27.6019    0.0000 </r>
       <r>   29.9264    0.0000 </r>
       <r>   30.6780    0.0000 </r>
       <r>   31.2636    0.0000 </r>
       <r>   32.7692    0.0000 </r>
       <r>   32.9986    0.0000 </r>
      </set>
      <set comment="kpoint 18">
       <r>   -3.7348    1.0000 </r>
       <r>    0.0888    1.0000 </r>
       <r>    3.2269    1.0000 </r>
       <r>    3.2270    1.0000 </r>
       <r>    6.4605   -0.0018 </r>
       <r>    7.3898   -0.0000 </r>
       <r>   13.9013    0.0000 </r>
       <r>   13.9013    0.0000 </r>
       <r>   16.3347    0.0000 </r>
       <r>   16.5788    0.0000 </r>
       <r>   18.9416    0.0000 </r>
       <r>   18.9416    0.0000 </r>
       <r>   19.4958    0.0000 </r>
       <r>   21.1221    0.0000 </r>
       <r>   21.8638    0.0000 </r>
       <r>   22.6903    0.0000 </r>
       <r>   22.6903    0.0000 </r>
       <r>   24.7686    0.0000 </r>
       <r>   29.4024    0.0000 </r>
       <r>   29.7035    0.0000 </r>
       <r>   30.0025    0.0000 </r>
       <r>   30.0025    0.0000 </r>
       <r>   31.3522    0.0000 </r>
       <r>   33.3558    0.0000 </r>
      </set>
      <set comment="kpoint 19">
       <r>   -2.8373    1.0000 </r>
       <r>   -0.9973    1.0000 </r>
       <r>    2.3977    1.0000 </r>
       <r>    3.1508    1.0000 </r>
       <r>    6.7419   -0.0000 </r>
       <r>    7.8155   -0.0000 </r>
       <r>   14.1310    0.0000 </r>
       <r>   14.2161    0.0000 </r>
       <r>   16.6404    0.0000 </r>
       <r>   16.7136    0.0000 </r>
       <r>   18.2373    0.0000 </r>
       <r>   18.7435    0.0000 </r>
       <r>   20.8245    0.0000 </r>
       <r>   20.8829    0.0000 </r>
       <r>   21.8228    0.0000 </r>
       <r>   24.5684    0.0000 </r>
       <r>   24.7526    0.0000 </r>
       <r>   25.3314    0.0000 </r>
       <r>   26.6862    0.0000 </r>
       <r>   28.1991    0.0000 </r>
       <r>   28.6945    0.0000 </r>
       <r>   29.4570    0.0000 </r>
       <r>   30.1155    0.0000 </r>
       <r>   31.9158    0.0000 </r>
      </set>
      <set comment="kpoint 20">
       <r>   -2.3981    1.0000 </r>
       <r>   -1.3939    1.0000 </r>
       <r>    1.5316    1.0000 </r>
       <r>    3.4086    1.0000 </r>
       <r>    7.0518   -0.0000 </r>
       <r>    9.9829   -0.0000 </r>
       <r>   13.3226    0.0000 </r>
       <r>   13.8863    0.0000 </r>
       <r>   14.0816    0.0000 </r>
       <r>   14.4072    0.0000 </r>
       <r>   20.5938    0.0000 </r>
       <r>   20.8614    0.0000 </r>
       <r>   21.3935    0.0000 </r>
       <r>   21.6089    0.0000 </r>
       <r>   21.7589    0.0000 </r>
       <r>   23.0101    0.0000 </r>
       <r>   25.6190    0.0000 </r>
       <r>   25.9017    0.0000 </r>
       <r>   27.4023    0.0000 </r>
       <r>   27.5299    0.0000 </r>
       <r>   28.7763    0.0000 </r>
       <r>   29.0457    0.0000 </r>
       <r>   31.1219    0.0000 </r>
       <r>   31.8392    0.0000 </r>
      </set>
      <set comment="kpoint 21">
       <r>   -1.9844    1.0000 </r>
       <r>   -1.9844    1.0000 </r>
       <r>    2.9814    1.0000 </r>
       <r>    2.9814    1.0000 </r>
       <r>    6.5582   -0.0002 </r>
       <r>    6.5582   -0.0002 </r>
       <r>   15.9620    0.0000 </r>
       <r>   15.9621    0.0000 </r>
       <r>   16.9204    0.0000 </r>
       <r>   16.9204    0.0000 </r>
       <r>   18.4575    0.0000 </r>
       <r>   18.4575    0.0000 </r>
       <r>   18.9038    0.0000 </r>
       <r>   18.9038    0.0000 </r>
       <r>   24.8060    0.0000 </r>
       <r>   24.8061    0.0000 </r>
       <r>   25.6298    0.0000 </r>
       <r>   25.6298    0.0000 </r>
       <r>   26.0875    0.0000 </r>
       <r>   26.0876    0.0000 </r>
       <r>   27.3941    0.0000 </r>
       <r>   27.3941    0.0000 </r>
       <r>   31.6504    0.0000 </r>
       <r>   31.6506    0.0000 </r>
      </set>
      <set comment="kpoint 22">
       <r>   -4.8005    1.0000 </r>
       <r>    1.5456    1.0000 </r>
       <r>    3.1219    1.0000 </r>
       <r>    4.4083    1.0000 </r>
       <r>    8.2934   -0.0000 </r>
       <r>    9.7505   -0.0000 </r>
       <r>   10.0522   -0.0000 </r>
       <r>   11.3568   -0.0000 </r>
       <r>   13.6652    0.0000 </r>
       <r>   16.1402    0.0000 </r>
       <r>   16.9387    0.0000 </r>
       <r>   17.9922    0.0000 </r>
       <r>   19.7968    0.0000 </r>
       <r>   20.9407    0.0000 </r>
       <r>   21.8092    0.0000 </r>
       <r>   24.1187    0.0000 </r>
       <r>   25.2824    0.0000 </r>
       <r>   26.5199    0.0000 </r>
       <r>   27.7094    0.0000 </r>
       <r>   29.3363    0.0000 </r>
       <r>   31.3017    0.0000 </r>
       <r>   32.0658    0.0000 </r>
       <r>   33.8585    0.0000 </r>
       <r>   34.8893    0.0000 </r>
      </set>
      <set comment="kpoint 23">
       <r>   -3.9119    1.0000 </r>
       <r>   -0.0079    1.0000 </r>
       <r>    2.5131    1.0000 </r>
       <r>    3.9056    1.0000 </r>
       <r>    8.7259   -0.0000 </r>
       <r>    9.4043   -0.0000 </r>
       <r>   10.8721   -0.0000 </r>
       <r>   11.7965    0.0000 </r>
       <r>   14.8998    0.0000 </r>
       <r>   15.6002    0.0000 </r>
       <r>   17.8718    0.0000 </r>
       <r>   18.8311    0.0000 </r>
       <r>   20.1274    0.0000 </r>
       <r>   21.0447    0.0000 </r>
       <r>   23.1702    0.0000 </r>
       <r>   24.1808    0.0000 </r>
       <r>   24.9827    0.0000 </r>
       <r>   26.9175    0.0000 </r>
       <r>   27.8350    0.0000 </r>
       <r>   28.7460    0.0000 </r>
       <r>   30.2559    0.0000 </r>
       <r>   31.6525    0.0000 </r>
       <r>   31.9320    0.0000 </r>
       <r>   33.1847    0.0000 </r>
      </set>
      <set comment="kpoint 24">
       <r>   -3.2594    1.0000 </r>
       <r>   -0.9541    1.0000 </r>
       <r>    2.3841    1.0000 </r>
       <r>    3.6755    1.0000 </r>
       <r>    8.9144   -0.0000 </r>
       <r>    8.9826   -0.0000 </r>
       <r>   11.7689    0.0000 </r>
       <r>   12.9864    0.0000 </r>
       <r>   13.2479    0.0000 </r>
       <r>   16.4707    0.0000 </r>
       <r>   17.5682    0.0000 </r>
       <r>   18.2730    0.0000 </r>
       <r>   21.4198    0.0000 </r>
       <r>   21.4981    0.0000 </r>
       <r>   24.0268    0.0000 </r>
       <r>   24.3949    0.0000 </r>
       <r>   25.4128    0.0000 </r>
       <r>   26.7907    0.0000 </r>
       <r>   26.9200    0.0000 </r>
       <r>   27.9989    0.0000 </r>
       <r>   30.9299    0.0000 </r>
       <r>   31.2649    0.0000 </r>
       <r>   31.3502    0.0000 </r>
       <r>   32.2718    0.0000 </r>
      </set>
      <set comment="kpoint 25">
       <r>   -3.5362    1.0000 </r>
       <r>   -0.1305    1.0000 </r>
       <r>    2.4715    1.0000 </r>
       <r>    3.0750    1.0000 </r>
       <r>    7.7942   -0.0000 </r>
       <r>    8.4974   -0.0000 </r>
       <r>   11.6105    0.0000 </r>
       <r>   13.8583    0.0000 </r>
       <r>   16.0643    0.0000 </r>
       <r>   16.0999    0.0000 </r>
       <r>   18.7665    0.0000 </r>
       <r>   19.2608    0.0000 </r>
       <r>   20.0877    0.0000 </r>
       <r>   20.5246    0.0000 </r>
       <r>   22.5605    0.0000 </r>
       <r>   23.0182    0.0000 </r>
       <r>   25.4684    0.0000 </r>
       <r>   25.9317    0.0000 </r>
       <r>   27.7849    0.0000 </r>
       <r>   27.8522    0.0000 </r>
       <r>   29.3518    0.0000 </r>
       <r>   30.3148    0.0000 </r>
       <r>   32.2438    0.0000 </r>
       <r>   33.4843    0.0000 </r>
      </set>
      <set comment="kpoint 26">
       <r>   -2.6612    1.0000 </r>
       <r>   -1.0993    1.0000 </r>
       <r>    1.7731    1.0000 </r>
       <r>    2.8741    1.0000 </r>
       <r>    8.2369   -0.0000 </r>
       <r>   10.1350   -0.0000 </r>
       <r>   11.1294   -0.0000 </r>
       <r>   13.2988    0.0000 </r>
       <r>   14.2773    0.0000 </r>
       <r>   16.9816    0.0000 </r>
       <r>   18.1117    0.0000 </r>
       <r>   20.1843    0.0000 </r>
       <r>   21.2847    0.0000 </r>
       <r>   21.9184    0.0000 </r>
       <r>   23.4429    0.0000 </r>
       <r>   24.2463    0.0000 </r>
       <r>   24.6899    0.0000 </r>
       <r>   25.3796    0.0000 </r>
       <r>   27.0014    0.0000 </r>
       <r>   27.7097    0.0000 </r>
       <r>   28.7347    0.0000 </r>
       <r>   30.0663    0.0000 </r>
       <r>   30.9492    0.0000 </r>
       <r>   33.4669    0.0000 </r>
      </set>
      <set comment="kpoint 27">
       <r>   -3.0120    1.0000 </r>
       <r>   -0.7358    1.0000 </r>
       <r>    1.6061    1.0000 </r>
       <r>    3.2504    1.0000 </r>
       <r>    8.7178   -0.0000 </r>
       <r>   10.3970   -0.0000 </r>
       <r>   11.0683   -0.0000 </r>
       <r>   12.8914    0.0000 </r>
       <r>   13.7352    0.0000 </r>
       <r>   15.1265    0.0000 </r>
       <r>   20.0092    0.0000 </r>
       <r>   20.1677    0.0000 </r>
       <r>   20.4779    0.0000 </r>
       <r>   22.2267    0.0000 </r>
       <r>   22.4550    0.0000 </r>
       <r>   24.3422    0.0000 </r>
       <r>   25.0880    0.0000 </r>
       <r>   25.9411    0.0000 </r>
       <r>   27.1106    0.0000 </r>
       <r>   28.0213    0.0000 </r>
       <r>   29.2648    0.0000 </r>
       <r>   30.4365    0.0000 </r>
       <r>   31.8336    0.0000 </r>
       <r>   33.2809    0.0000 </r>
      </set>
      <set comment="kpoint 28">
       <r>   -1.9066    1.0000 </r>
       <r>   -1.9065    1.0000 </r>
       <r>    2.4167    1.0000 </r>
       <r>    2.4167    1.0000 </r>
       <r>    7.8183   -0.0000 </r>
       <r>    7.8184   -0.0000 </r>
       <r>   13.7054    0.0000 </r>
       <r>   13.7054    0.0000 </r>
       <r>   16.4663    0.0000 </r>
       <r>   16.4663    0.0000 </r>
       <r>   18.7671    0.0000 </r>
       <r>   18.7671    0.0000 </r>
       <r>   21.4905    0.0000 </r>
       <r>   21.4906    0.0000 </r>
       <r>   23.2931    0.0000 </r>
       <r>   23.2931    0.0000 </r>
       <r>   24.9551    0.0000 </r>
       <r>   24.9551    0.0000 </r>
       <r>   27.6470    0.0000 </r>
       <r>   27.6471    0.0000 </r>
       <r>   29.0100    0.0000 </r>
       <r>   29.0100    0.0000 </r>
       <r>   30.0222    0.0000 </r>
       <r>   30.0222    0.0000 </r>
      </set>
      <set comment="kpoint 29">
       <r>   -1.8205    1.0000 </r>
       <r>   -1.8205    1.0000 </r>
       <r>    1.9807    1.0000 </r>
       <r>    1.9807    1.0000 </r>
       <r>   10.1243   -0.0000 </r>
       <r>   10.1243   -0.0000 </r>
       <r>   10.8502   -0.0000 </r>
       <r>   10.8502   -0.0000 </r>
       <r>   16.4633    0.0000 </r>
       <r>   16.4633    0.0000 </r>
       <r>   18.9163    0.0000 </r>
       <r>   18.9164    0.0000 </r>
       <r>   22.3393    0.0000 </r>
       <r>   22.3394    0.0000 </r>
       <r>   24.4486    0.0000 </r>
       <r>   24.4486    0.0000 </r>
       <r>   24.8831    0.0000 </r>
       <r>   24.8832    0.0000 </r>
       <r>   25.8071    0.0000 </r>
       <r>   25.8071    0.0000 </r>
       <r>   29.6252    0.0000 </r>
       <r>   29.6253    0.0000 </r>
       <r>   33.3888    0.0000 </r>
       <r>   33.3888    0.0000 </r>
      </set>
     </set>
    </set>
   </array>
  </eigenvalues>
  <separator name="orbital magnetization" >
   <v name="MAGDIPOLOUT">      0.00000000      0.00000000      0.00000000</v>
  </separator>
  <dos>
   <i name="efermi">      5.97989032 </i>
   <total>
    <array>
     <dimension dim="1">gridpoints</dimension>
     <dimension dim="2">spin</dimension>
     <field>energy</field>
     <field>total</field>
     <field>integrated</field>
     <set>
      <set comment="spin 1">
       <r>    -8.2940     0.0000     0.0000 </r>
       <r>    -8.1353     0.0000     0.0000 </r>
       <r>    -7.9766     0.0000     0.0000 </r>
       <r>    -7.8180    -0.0000    -0.0000 </r>
       <r>    -7.6593    -0.0000    -0.0000 </r>
       <r>    -7.5006    -0.0000    -0.0000 </r>
       <r>    -7.3419    -0.0000    -0.0000 </r>
       <r>    -7.1832    -0.0000    -0.0000 </r>
       <r>    -7.0246    -0.0000    -0.0000 </r>
       <r>    -6.8659    -0.0000    -0.0000 </r>
       <r>    -6.7072    -0.0000    -0.0000 </r>
       <r>    -6.5485    -0.0002    -0.0000 </r>
       <r>    -6.3898    -0.0013    -0.0002 </r>
       <r>    -6.2312    -0.0024    -0.0006 </r>
       <r>    -6.0725     0.0225     0.0030 </r>
       <r>    -5.9138     0.1483     0.0265 </r>
       <r>    -5.7551     0.1769     0.0546 </r>
       <r>    -5.5964     0.1501     0.0784 </r>
       <r>    -5.4377     0.3619     0.1358 </r>
       <r>    -5.2791     0.4735     0.2110 </r>
       <r>    -5.1204     0.1463     0.2342 </r>
       <r>    -4.9617     0.2121     0.2678 </r>
       <r>    -4.8030     0.6546     0.3717 </r>
       <r>    -4.6443     0.5606     0.4607 </r>
       <r>    -4.4857     0.4629     0.5341 </r>
       <r>    -4.3270     0.5018     0.6138 </r>
       <r>    -4.1683     0.2948     0.6605 </r>
       <r>    -4.0096     0.5493     0.7477 </r>
       <r>    -3.8509     1.2066     0.9392 </r>
       <r>    -3.6923     0.8882     1.0801 </r>
       <r>    -3.5336     0.6016     1.1756 </r>
       <r>    -3.3749     0.6876     1.2847 </r>
       <r>    -3.2162     0.8290     1.4162 </r>
       <r>    -3.0575     0.6701     1.5226 </r>
       <r>    -2.8989     0.4990     1.6017 </r>
       <r>    -2.7402     0.6787     1.7094 </r>
       <r>    -2.5815     0.8131     1.8384 </r>
       <r>    -2.4228     0.3672     1.8967 </r>
       <r>    -2.2641     0.1143     1.9148 </r>
       <r>    -2.1054     0.0165     1.9175 </r>
       <r>    -1.9468     0.3176     1.9679 </r>
       <r>    -1.7881     0.5632     2.0572 </r>
       <r>    -1.6294     0.1722     2.0846 </r>
       <r>    -1.4707     0.0322     2.0897 </r>
       <r>    -1.3120     0.1277     2.1099 </r>
       <r>    -1.1534     0.4633     2.1835 </r>
       <r>    -0.9947     1.3744     2.4016 </r>
       <r>    -0.8360     1.4785     2.6362 </r>
       <r>    -0.6773     0.9775     2.7913 </r>
       <r>    -0.5186     0.8292     2.9229 </r>
       <r>    -0.3600     0.3949     2.9855 </r>
       <r>    -0.2013     0.1717     3.0128 </r>
       <r>    -0.0426     0.9205     3.1589 </r>
       <r>     0.1161     0.9156     3.3042 </r>
       <r>     0.2748     0.2095     3.3374 </r>
       <r>     0.4335     0.2149     3.3715 </r>
       <r>     0.5921     0.3922     3.4337 </r>
       <r>     0.7508     0.2331     3.4707 </r>
       <r>     0.9095     0.2899     3.5167 </r>
       <r>     1.0682     0.2888     3.5625 </r>
       <r>     1.2269     0.2982     3.6099 </r>
       <r>     1.3855     0.2554     3.6504 </r>
       <r>     1.5442     0.5665     3.7403 </r>
       <r>     1.7029     1.1051     3.9156 </r>
       <r>     1.8616     1.2670     4.1167 </r>
       <r>     2.0203     0.7798     4.2404 </r>
       <r>     2.1789     0.2769     4.2844 </r>
       <r>     2.3376     0.9952     4.4423 </r>
       <r>     2.4963     2.2415     4.7980 </r>
       <r>     2.6550     1.4922     5.0348 </r>
       <r>     2.8137     0.5069     5.1152 </r>
       <r>     2.9723     0.8256     5.2462 </r>
       <r>     3.1310     1.6120     5.5020 </r>
       <r>     3.2897     1.8681     5.7985 </r>
       <r>     3.4484     1.1613     5.9827 </r>
       <r>     3.6071     1.5011     6.2209 </r>
       <r>     3.7658     1.3550     6.4359 </r>
       <r>     3.9244     1.2735     6.6380 </r>
       <r>     4.0831     1.3297     6.8490 </r>
       <r>     4.2418     0.9349     6.9974 </r>
       <r>     4.4005     1.1899     7.1862 </r>
       <r>     4.5592     1.5268     7.4285 </r>
       <r>     4.7178     1.2384     7.6250 </r>
       <r>     4.8765     0.3371     7.6785 </r>
       <r>     5.0352     0.5095     7.7593 </r>
       <r>     5.1939     0.6752     7.8664 </r>
       <r>     5.3526     0.0996     7.8822 </r>
       <r>     5.5112     0.2176     7.9168 </r>
       <r>     5.6699     0.3964     7.9797 </r>
       <r>     5.8286     0.1095     7.9971 </r>
       <r>     5.9873     0.0189     8.0001 </r>
       <r>     6.1460    -0.0031     7.9996 </r>
       <r>     6.3047    -0.0026     7.9992 </r>
       <r>     6.4633     0.0831     8.0124 </r>
       <r>     6.6220     0.2237     8.0479 </r>
       <r>     6.7807     0.3759     8.1075 </r>
       <r>     6.9394     0.2820     8.1522 </r>
       <r>     7.0981     0.3278     8.2042 </r>
       <r>     7.2567     0.5569     8.2926 </r>
       <r>     7.4154     0.6534     8.3963 </r>
       <r>     7.5741     0.4081     8.4611 </r>
       <r>     7.7328     0.7908     8.5865 </r>
       <r>     7.8915     1.5507     8.8326 </r>
       <r>     8.0501     1.3730     9.0505 </r>
       <r>     8.2088     1.6772     9.3166 </r>
       <r>     8.3675     1.6976     9.5860 </r>
       <r>     8.5262     0.9302     9.7336 </r>
       <r>     8.6849     1.3071     9.9410 </r>
       <r>     8.8435     1.9617    10.2523 </r>
       <r>     9.0022     1.5163    10.4929 </r>
       <r>     9.1609     0.6493    10.5959 </r>
       <r>     9.3196     1.0619    10.7644 </r>
       <r>     9.4783     2.4380    11.1513 </r>
       <r>     9.6370     2.2117    11.5023 </r>
       <r>     9.7956     1.2982    11.7083 </r>
       <r>     9.9543     0.8649    11.8455 </r>
       <r>    10.1130     1.3745    12.0636 </r>
       <r>    10.2717     1.7422    12.3401 </r>
       <r>    10.4304     1.5180    12.5810 </r>
       <r>    10.5890     0.8171    12.7106 </r>
       <r>    10.7477     0.6428    12.8126 </r>
       <r>    10.9064     0.9542    12.9640 </r>
       <r>    11.0651     1.2275    13.1588 </r>
       <r>    11.2238     1.3866    13.3789 </r>
       <r>    11.3824     1.6814    13.6457 </r>
       <r>    11.5411     1.2206    13.8393 </r>
       <r>    11.6998     1.3889    14.0597 </r>
       <r>    11.8585     1.9615    14.3710 </r>
       <r>    12.0172     1.0844    14.5431 </r>
       <r>    12.1759     0.8586    14.6793 </r>
       <r>    12.3345     1.0443    14.8450 </r>
       <r>    12.4932     0.5500    14.9323 </r>
       <r>    12.6519     0.0516    14.9405 </r>
       <r>    12.8106     0.4833    15.0172 </r>
       <r>    12.9693     0.9817    15.1729 </r>
       <r>    13.1279     1.0598    15.3411 </r>
       <r>    13.2866     1.7900    15.6252 </r>
       <r>    13.4453     1.4657    15.8577 </r>
       <r>    13.6040     0.5464    15.9444 </r>
       <r>    13.7627     1.7692    16.2252 </r>
       <r>    13.9213     2.7441    16.6606 </r>
       <r>    14.0800     2.0446    16.9851 </r>
       <r>    14.2387     1.5827    17.2362 </r>
       <r>    14.3974     1.2238    17.4304 </r>
       <r>    14.5561     0.5225    17.5133 </r>
       <r>    14.7147     0.2238    17.5488 </r>
       <r>    14.8734     1.0113    17.7093 </r>
       <r>    15.0321     1.4155    17.9339 </r>
       <r>    15.1908     1.2790    18.1368 </r>
       <r>    15.3495     0.8037    18.2644 </r>
       <r>    15.5082     0.5377    18.3497 </r>
       <r>    15.6668     1.3298    18.5607 </r>
       <r>    15.8255     1.4099    18.7844 </r>
       <r>    15.9842     1.8701    19.0812 </r>
       <r>    16.1429     2.1223    19.4180 </r>
       <r>    16.3016     1.0638    19.5868 </r>
       <r>    16.4602     1.5099    19.8264 </r>
       <r>    16.6189     1.7916    20.1106 </r>
       <r>    16.7776     0.8499    20.2455 </r>
       <r>    16.9363     0.9997    20.4041 </r>
       <r>    17.0950     1.5762    20.6543 </r>
       <r>    17.2536     0.7326    20.7705 </r>
       <r>    17.4123     0.7782    20.8940 </r>
       <r>    17.5710     1.6855    21.1614 </r>
       <r>    17.7297     1.1119    21.3379 </r>
       <r>    17.8884     0.7488    21.4567 </r>
       <r>    18.0471     1.3794    21.6756 </r>
       <r>    18.2057     2.0172    21.9957 </r>
       <r>    18.3644     2.4132    22.3786 </r>
       <r>    18.5231     1.6847    22.6459 </r>
       <r>    18.6818     1.0721    22.8161 </r>
       <r>    18.8405     2.1670    23.1599 </r>
       <r>    18.9991     2.2048    23.5098 </r>
       <r>    19.1578     1.2401    23.7066 </r>
       <r>    19.3165     1.3596    23.9223 </r>
       <r>    19.4752     0.9893    24.0793 </r>
       <r>    19.6339     0.6231    24.1782 </r>
       <r>    19.7925     0.8236    24.3089 </r>
       <r>    19.9512     0.9609    24.4613 </r>
       <r>    20.1099     2.0668    24.7893 </r>
       <r>    20.2686     2.5926    25.2007 </r>
       <r>    20.4273     1.3868    25.4208 </r>
       <r>    20.5859     1.3939    25.6419 </r>
       <r>    20.7446     1.4516    25.8723 </r>
       <r>    20.9033     2.0681    26.2004 </r>
       <r>    21.0620     2.3329    26.5706 </r>
       <r>    21.2207     1.6461    26.8318 </r>
       <r>    21.3794     1.6644    27.0959 </r>
       <r>    21.5380     1.4905    27.3325 </r>
       <r>    21.6967     0.9520    27.4835 </r>
       <r>    21.8554     1.7800    27.7660 </r>
       <r>    22.0141     1.6889    28.0340 </r>
       <r>    22.1728     0.4500    28.1054 </r>
       <r>    22.3314     0.8914    28.2468 </r>
       <r>    22.4901     1.6997    28.5165 </r>
       <r>    22.6488     1.6533    28.7789 </r>
       <r>    22.8075     1.1186    28.9564 </r>
       <r>    22.9662     0.9966    29.1145 </r>
       <r>    23.1248     1.4725    29.3482 </r>
       <r>    23.2835     1.3993    29.5702 </r>
       <r>    23.4422     1.4743    29.8042 </r>
       <r>    23.6009     1.6017    30.0583 </r>
       <r>    23.7596     1.0449    30.2241 </r>
       <r>    23.9183     0.6854    30.3329 </r>
       <r>    24.0769     1.6788    30.5993 </r>
       <r>    24.2356     2.6740    31.0236 </r>
       <r>    24.3943     2.9802    31.4965 </r>
       <r>    24.5530     2.6005    31.9092 </r>
       <r>    24.7117     2.4965    32.3053 </r>
       <r>    24.8703     1.8458    32.5982 </r>
       <r>    25.0290     1.4731    32.8319 </r>
       <r>    25.1877     1.3938    33.0531 </r>
       <r>    25.3464     2.2662    33.4127 </r>
       <r>    25.5051     2.6407    33.8318 </r>
       <r>    25.6637     1.3902    34.0524 </r>
       <r>    25.8224     1.2304    34.2476 </r>
       <r>    25.9811     2.1423    34.5875 </r>
       <r>    26.1398     1.0377    34.7522 </r>
       <r>    26.2985     0.3709    34.8111 </r>
       <r>    26.4571     0.5790    34.9029 </r>
       <r>    26.6158     0.9497    35.0536 </r>
       <r>    26.7745     0.9705    35.2076 </r>
       <r>    26.9332     1.9605    35.5187 </r>
       <r>    27.0919     2.5514    35.9236 </r>
       <r>    27.2506     1.2548    36.1227 </r>
       <r>    27.4092     0.5365    36.2078 </r>
       <r>    27.5679     1.5052    36.4467 </r>
       <r>    27.7266     3.2716    36.9658 </r>
       <r>    27.8853     4.0924    37.6152 </r>
       <r>    28.0440     3.3909    38.1533 </r>
       <r>    28.2026     1.6942    38.4221 </r>
       <r>    28.3613     0.9003    38.5650 </r>
       <r>    28.5200     0.6908    38.6746 </r>
       <r>    28.6787     1.7661    38.9548 </r>
       <r>    28.8374     2.6525    39.3757 </r>
       <r>    28.9960     1.7615    39.6552 </r>
       <r>    29.1547     1.1979    39.8453 </r>
       <r>    29.3134     1.1098    40.0214 </r>
       <r>    29.4721     1.4074    40.2448 </r>
       <r>    29.6308     1.0147    40.4058 </r>
       <r>    29.7895     0.6469    40.5084 </r>
       <r>    29.9481     1.2839    40.7122 </r>
       <r>    30.1068     2.5223    41.1124 </r>
       <r>    30.2655     2.2440    41.4685 </r>
       <r>    30.4242     1.1690    41.6540 </r>
       <r>    30.5829     0.9590    41.8062 </r>
       <r>    30.7415     1.5019    42.0445 </r>
       <r>    30.9002     1.2633    42.2450 </r>
       <r>    31.0589     1.6040    42.4995 </r>
       <r>    31.2176     1.9273    42.8053 </r>
       <r>    31.3763     1.9669    43.1174 </r>
       <r>    31.5349     1.2407    43.3143 </r>
       <r>    31.6936     1.7414    43.5906 </r>
       <r>    31.8523     1.9017    43.8924 </r>
       <r>    32.0110     1.9803    44.2066 </r>
       <r>    32.1697     1.7203    44.4796 </r>
       <r>    32.3283     2.5154    44.8787 </r>
       <r>    32.4870     2.0244    45.2000 </r>
       <r>    32.6457     1.2170    45.3931 </r>
       <r>    32.8044     0.9709    45.5471 </r>
       <r>    32.9631     0.5923    45.6411 </r>
       <r>    33.1218     0.5503    45.7284 </r>
       <r>    33.2804     2.0161    46.0484 </r>
       <r>    33.4391     3.2252    46.5601 </r>
       <r>    33.5978     2.6125    46.9747 </r>
       <r>    33.7565     1.1298    47.1540 </r>
       <r>    33.9152     0.6106    47.2509 </r>
       <r>    34.0738     0.2545    47.2913 </r>
       <r>    34.2325     0.1565    47.3161 </r>
       <r>    34.3912     0.4524    47.3879 </r>
       <r>    34.5499     0.1953    47.4188 </r>
       <r>    34.7086    -0.0234    47.4151 </r>
       <r>    34.8672     0.3901    47.4770 </r>
       <r>    35.0259     0.7807    47.6009 </r>
       <r>    35.1846     0.3797    47.6612 </r>
       <r>    35.3433     0.3525    47.7171 </r>
       <r>    35.5020     0.5643    47.8067 </r>
       <r>    35.6607     0.1890    47.8366 </r>
       <r>    35.8193     0.1381    47.8586 </r>
       <r>    35.9780     0.3543    47.9148 </r>
       <r>    36.1367     0.1118    47.9325 </r>
       <r>    36.2954    -0.0235    47.9288 </r>
       <r>    36.4541     0.0770    47.9410 </r>
       <r>    36.6127     0.1805    47.9697 </r>
       <r>    36.7714     0.0522    47.9779 </r>
       <r>    36.9301    -0.0114    47.9761 </r>
       <r>    37.0888     0.0422    47.9828 </r>
       <r>    37.2475     0.0895    47.9970 </r>
       <r>    37.4061     0.0239    48.0008 </r>
       <r>    37.5648    -0.0043    48.0001 </r>
       <r>    37.7235    -0.0008    48.0000 </r>
       <r>    37.8822    -0.0000    48.0000 </r>
       <r>    38.0409    -0.0000    48.0000 </r>
       <r>    38.1995    -0.0000    48.0000 </r>
       <r>    38.3582    -0.0000    48.0000 </r>
       <r>    38.5169    -0.0000    48.0000 </r>
       <r>    38.6756     0.0000    48.0000 </r>
       <r>    38.8343     0.0000    48.0000 </r>
       <r>    38.9930     0.0000    48.0000 </r>
       <r>    39.1516     0.0000    48.0000 </r>
       <r>    39.3103     0.0000    48.0000 </r>
      </set>
     </set>
    </array>
   </total>
  </dos>
 </calculation>
 <structure name="finalpos" >
  <crystal>
   <varray name="basis" >
    <v>       3.32548900       0.00000000       1.91997200 </v>
    <v>       1.10849600       3.13530100       1.91997200 </v>
    <v>       0.00000000       0.00000000       3.83994300 </v>
   </varray>
   <i name="volume">     40.03681621 </i>
   <varray name="rec_basis" >
    <v>       0.30070766      -0.10631618       0.00000000 </v>
    <v>       0.00000000       0.31894864       0.00000000 </v>
    <v>      -0.15035387      -0.10631626       0.26042053 </v>
   </varray>
  </crystal>
  <varray name="positions" >
   <v>       0.87500000       0.87500000       0.87500000 </v>
   <v>       0.12500000       0.12500000       0.12500000 </v>
  </varray>
 </structure>
</modeling>
