 vasp.5.4.4.18Apr17-6-g9f103f2a35 (build Jun 19 2019 10:34:07) complex          
  
 executed on               LB-5.4 date 2023.05.15  18:34:33
 running on   96 total cores
 distrk:  each k-point on   24 cores,    4 groups
 distr:  one band on NCORES_PER_BAND=   1 cores,   24 groups


--------------------------------------------------------------------------------------------------------


 INCAR:
 POTCAR:    PAW_PBE Si 05Jan2001                  

 ----------------------------------------------------------------------------- 
|                                                                             |
|           W    W    AA    RRRRR   N    N  II  N    N   GGGG   !!!           |
|           W    W   A  A   R    R  NN   N  II  NN   N  G    G  !!!           |
|           W    W  A    A  R    R  N N  N  II  N N  N  G       !!!           |
|           W WW W  AAAAAA  RRRRR   N  N N  II  N  N N  G  GGG   !            |
|           WW  WW  A    A  R   R   N   NN  II  N   NN  G    G                |
|           W    W  A    A  R    R  N    N  II  N    N   GGGG   !!!           |
|                                                                             |
|      For optimal performance we recommend to set                            |
|        NCORE= 4 - approx SQRT( number of cores)                             |
|      NCORE specifies how many cores store one orbital (NPAR=cpu/NCORE).     |
|      This setting can  greatly improve the performance of VASP for DFT.     |
|      The default,   NCORE=1            might be grossly inefficient         |
|      on modern multi-core architectures or massively parallel machines.     |
|      Do your own testing !!!!                                               |
|      Unfortunately you need to use the default for GW and RPA calculations. |
|      (for HF NCORE is supported but not extensively tested yet)             |
|                                                                             |
 ----------------------------------------------------------------------------- 


 ----------------------------------------------------------------------------- 
|                                                                             |
|           W    W    AA    RRRRR   N    N  II  N    N   GGGG   !!!           |
|           W    W   A  A   R    R  NN   N  II  NN   N  G    G  !!!           |
|           W    W  A    A  R    R  N N  N  II  N N  N  G       !!!           |
|           W WW W  AAAAAA  RRRRR   N  N N  II  N  N N  G  GGG   !            |
|           WW  WW  A    A  R   R   N   NN  II  N   NN  G    G                |
|           W    W  A    A  R    R  N    N  II  N    N   GGGG   !!!           |
|                                                                             |
|      You have enabled k-point parallelism (KPAR>1).                         |
|      This developmental code was originally  written by Paul Kent at ORNL,  |
|      and carefully double checked in Vienna.                                |
|      GW as well as linear response parallelism added by Martijn Marsman     |
|      and Georg Kresse.                                                      |
|      Carefully verify results versus KPAR=1.                                |
|      Report problems to Paul Kent and Vienna.                               |
|                                                                             |
 ----------------------------------------------------------------------------- 

 POTCAR:    PAW_PBE Si 05Jan2001                  
   VRHFIN =Si: s2p2                                                             
   LEXCH  = PE                                                                  
   EATOM  =   103.0669 eV,    7.5752 Ry                                         
                                                                                
   TITEL  = PAW_PBE Si 05Jan2001                                                
   LULTRA =        F    use ultrasoft PP ?                                      
   IUNSCR =        1    unscreen: 0-lin 1-nonlin 2-no                           
   RPACOR =    1.500    partial core radius                                     
   POMASS =   28.085; ZVAL   =    4.000    mass and valenz                      
   RCORE  =    1.900    outmost cutoff radius                                   
   RWIGS  =    2.480; RWIGS  =    1.312    wigner-seitz radius (au A)           
   ENMAX  =  245.345; ENMIN  =  184.009 eV                                      
   ICORE  =        2    local potential                                         
   LCOR   =        T    correct aug charges                                     
   LPAW   =        T    paw PP                                                  
   EAUG   =  322.069                                                            
   DEXC   =    0.000                                                            
   RMAX   =    1.950    core radius for proj-oper                               
   RAUG   =    1.300    factor for augmentation sphere                          
   RDEP   =    1.993    radius for radial grids                                 
   RDEPT  =    1.837    core radius for aug-charge                              
                                                                                
   Atomic configuration                                                         
    6 entries                                                                   
     n  l   j            E        occ.                                          
     1  0  0.50     -1785.8828   2.0000                                         
     2  0  0.50      -139.4969   2.0000                                         
     2  1  1.50       -95.5546   6.0000                                         
     3  0  0.50       -10.8127   2.0000                                         
     3  1  0.50        -4.0811   2.0000                                         
     3  2  1.50        -4.0817   0.0000                                         
   Description                                                                  
     l       E           TYP  RCUT    TYP  RCUT                                 
     0    -10.8127223     23  1.900                                             
     0     -7.6451159     23  1.900                                             
     1     -4.0811372     23  1.900                                             
     1      2.4879257     23  1.900                                             
     2     -4.0817478      7  1.900                                             
  local pseudopotential read in
  partial core-charges read in
  partial kinetic energy density read in
  atomic valenz-charges read in
  non local Contribution for L=           0  read in
    real space projection operators read in
  non local Contribution for L=           0  read in
    real space projection operators read in
  non local Contribution for L=           1  read in
    real space projection operators read in
  non local Contribution for L=           1  read in
    real space projection operators read in
    PAW grid and wavefunctions read in
 
   number of l-projection  operators is LMAX  =           4
   number of lm-projection operators is LMMAX =           8
 

 ----------------------------------------------------------------------------- 
|                                                                             |
|  ADVICE TO THIS USER RUNNING 'VASP/VAMP'   (HEAR YOUR MASTER'S VOICE ...):  |
|                                                                             |
|      You have a (more or less) 'large supercell' and for larger cells       |
|      it might be more efficient to use real space projection opertators     |
|      So try LREAL= Auto  in the INCAR   file.                               |
|      Mind:          For very  accurate calculation you might also keep the  |
|      reciprocal projection scheme          (i.e. LREAL=.FALSE.)             |
|                                                                             |
 ----------------------------------------------------------------------------- 

  PAW_PBE Si 05Jan2001                  :
 energy of atom  1       EATOM= -103.0669
 kinetic energy error for atom=    0.0004 (will be added to EATOM!!)
 
 
 POSCAR: Si53                                    
  positions in direct lattice
  No initial velocities read in
 exchange correlation table for  LEXCH =        8
   RHO(1)=    0.500       N(1)  =     2000
   RHO(2)=  100.500       N(2)  =     4000
 


--------------------------------------------------------------------------------------------------------


 ion  position               nearest neighbor table
   1  0.292  0.292  0.625-  32 2.35  40 2.35  41 2.35  38 2.35
   2  0.292  0.292  0.958-  30 2.35  39 2.35  41 2.35  36 2.35
   3  0.292  0.625  0.292-  34 2.35  42 2.35  43 2.35  40 2.35
   4  0.292  0.625  0.625-  35 2.35  43 2.35  44 2.35  41 2.35
   5  0.292  0.625  0.958-  33 2.35  42 2.35  44 2.35  39 2.35
   6  0.292  0.958  0.292-  28 2.35  36 2.35  37 2.35  43 2.35
   7  0.292  0.958  0.625-  29 2.35  37 2.35  38 2.35  44 2.35
   8  0.292  0.958  0.958-  27 2.35  36 2.35  38 2.35  42 2.35
   9  0.625  0.292  0.292-  40 2.35  48 2.35  49 2.35  46 2.35
  10  0.625  0.292  0.625-  41 2.35  49 2.35  50 2.35  47 2.35
  11  0.625  0.292  0.958-  39 2.35  48 2.35  50 2.35  45 2.35
  12  0.625  0.625  0.292-  43 2.35  51 2.35  52 2.35  49 2.35
  13  0.625  0.625  0.625-  44 2.35  52 2.35  53 2.35  50 2.35
  14  0.625  0.625  0.958-  42 2.35  51 2.35  53 2.35  48 2.35
  15  0.625  0.958  0.292-  37 2.35  45 2.35  46 2.35  52 2.35
  16  0.625  0.958  0.625-  38 2.35  46 2.35  47 2.35  53 2.35
  17  0.625  0.958  0.958-  36 2.35  45 2.35  47 2.35  51 2.35
  18  0.958  0.292  0.292-  49 2.35  31 2.35  30 2.35  28 2.35
  19  0.958  0.292  0.625-  50 2.35  32 2.35  31 2.35  29 2.35
  20  0.958  0.292  0.958-  48 2.35  30 2.35  32 2.35  27 2.35
  21  0.958  0.625  0.292-  52 2.35  34 2.35  33 2.35  31 2.35
  22  0.958  0.625  0.625-  53 2.35  35 2.35  34 2.35  32 2.35
  23  0.958  0.625  0.958-  51 2.35  33 2.35  35 2.35  30 2.35
  24  0.958  0.958  0.292-  46 2.35  28 2.35  27 2.35  34 2.35
  25  0.958  0.958  0.625-  47 2.35  29 2.35  28 2.35  35 2.35
  26  0.958  0.958  0.958-  45 2.35  27 2.35  29 2.35  33 2.35
  27  0.042  0.042  0.042-   8 2.35  26 2.35  24 2.35  20 2.35
  28  0.042  0.042  0.375-   6 2.35  24 2.35  25 2.35  18 2.35
  29  0.042  0.042  0.708-   7 2.35  25 2.35  26 2.35  19 2.35
  30  0.042  0.375  0.042-   2 2.35  20 2.35  18 2.35  23 2.35
  31  0.042  0.375  0.375-  18 2.35  19 2.35  21 2.35
  32  0.042  0.375  0.708-   1 2.35  19 2.35  20 2.35  22 2.35
  33  0.042  0.708  0.042-   5 2.35  23 2.35  21 2.35  26 2.35
  34  0.042  0.708  0.375-   3 2.35  21 2.35  22 2.35  24 2.35
  35  0.042  0.708  0.708-   4 2.35  22 2.35  23 2.35  25 2.35
  36  0.375  0.042  0.042-  17 2.35   8 2.35   6 2.35   2 2.35
  37  0.375  0.042  0.375-  15 2.35   7 2.35   6 2.35
  38  0.375  0.042  0.708-  16 2.35   8 2.35   7 2.35   1 2.35
  39  0.375  0.375  0.042-  11 2.35   2 2.35   5 2.35
  40  0.375  0.375  0.375-   9 2.35   1 2.35   3 2.35
  41  0.375  0.375  0.708-  10 2.35   2 2.35   1 2.35   4 2.35
  42  0.375  0.708  0.042-  14 2.35   5 2.35   3 2.35   8 2.35
  43  0.375  0.708  0.375-  12 2.35   4 2.35   3 2.35   6 2.35
  44  0.375  0.708  0.708-  13 2.35   5 2.35   4 2.35   7 2.35
  45  0.708  0.042  0.042-  26 2.35  17 2.35  15 2.35  11 2.35
  46  0.708  0.042  0.375-  24 2.35  16 2.35  15 2.35   9 2.35
  47  0.708  0.042  0.708-  25 2.35  17 2.35  16 2.35  10 2.35
  48  0.708  0.375  0.042-  20 2.35  11 2.35   9 2.35  14 2.35
  49  0.708  0.375  0.375-  18 2.35  10 2.35   9 2.35  12 2.35
  50  0.708  0.375  0.708-  19 2.35  11 2.35  10 2.35  13 2.35
  51  0.708  0.708  0.042-  23 2.35  14 2.35  12 2.35  17 2.35
  52  0.708  0.708  0.375-  21 2.35  13 2.35  12 2.35  15 2.35
  53  0.708  0.708  0.708-  22 2.35  14 2.35  13 2.35  16 2.35
 
  LATTYP: Found a face centered cubic cell.
 ALAT       =    16.2915000202
  
  Lattice vectors:
  
 A1 = (   9.9764655300,   0.0000000000,   5.7599150700)
 A2 = (   3.3254885100,   9.4059019200,   5.7599150700)
 A3 = (   0.0000000000,   0.0000000000,  11.5198301400)


Analysis of symmetry for initial positions (statically):
=====================================================================
 Subroutine PRICEL returns:
 Original cell was already a primitive cell.
 

 Routine SETGRP: Setting up the symmetry group for a 
 face centered cubic supercell.


 Subroutine GETGRP returns: Found 24 space group operations
 (whereof  6 operations were pure point group operations)
 out of a pool of 48 trial point group operations.


The static configuration has the point symmetry C_3v.
 The point group associated with its full space group is T_d .


Analysis of symmetry for dynamics (positions and initial velocities):
=====================================================================
 Subroutine PRICEL returns:
 Original cell was already a primitive cell.
 

 Routine SETGRP: Setting up the symmetry group for a 
 face centered cubic supercell.


 Subroutine GETGRP returns: Found 24 space group operations
 (whereof  6 operations were pure point group operations)
 out of a pool of 48 trial point group operations.


The dynamic configuration has the point symmetry C_3v.
 The point group associated with its full space group is T_d .


 Subroutine INISYM returns: Found 24 space group operations
 (whereof  6 operations are pure point group operations),
 and found     1 'primitive' translations

 
 
 KPOINTS: Automatic kpoint scheme                 

Automatic generation of k-mesh.
Space group operators:
 irot       det(A)        alpha          n_x          n_y          n_z        tau_x        tau_y        tau_z
    1     1.000000     0.000000     1.000000     0.000000     0.000000     0.000000     0.000000     0.000000
    2     1.000000   120.000000    -0.471405    -0.333333    -0.816497     0.000000     0.000000     0.000000
    3     1.000000   120.000000     0.471405     0.333333     0.816497     0.000000     0.000000     0.000000
    4    -1.000000   180.000000     0.288675     0.816497    -0.500000     0.000000     0.000000     0.000000
    5    -1.000000   180.000000     0.577350    -0.816497     0.000000     0.000000     0.000000     0.000000
    6    -1.000000   180.000000     0.866025     0.000000    -0.500000     0.000000     0.000000     0.000000
    7    -1.000000    90.000000    -0.816497    -0.577350    -0.000000     0.166667     0.000000     0.000000
    8    -1.000000   180.000000     0.866025     0.000000     0.500000     0.166667     0.000000     0.000000
    9    -1.000000    90.000000     0.408248    -0.577350     0.707107     0.166667     0.000000     0.000000
   10     1.000000   180.000000     0.816497     0.577350     0.000000     0.000000     0.000000     0.166667
   11     1.000000   120.000000     0.942809    -0.333333     0.000000     0.000000     0.000000     0.166667
   12     1.000000   120.000000    -0.000000    -1.000000    -0.000000     0.000000     0.000000     0.166667
   13    -1.000000    90.000000     0.816497     0.577350    -0.000000    -0.000000     0.166667     0.000000
   14    -1.000000    90.000000     0.408248    -0.577350    -0.707107     0.000000     0.166667    -0.000000
   15    -1.000000   180.000000     0.288675     0.816497     0.500000    -0.000000     0.166667     0.000000
   16     1.000000   120.000000    -0.000000     1.000000    -0.000000     0.166667     0.000000     0.000000
   17     1.000000   120.000000     0.471405     0.333333    -0.816497     0.166667     0.000000     0.000000
   18     1.000000   180.000000    -0.408248     0.577350     0.707107     0.166667     0.000000     0.000000
   19    -1.000000    90.000000    -0.408248     0.577350    -0.707107     0.000000     0.000000     0.166667
   20    -1.000000   180.000000     0.000000    -0.000000     1.000000     0.000000     0.000000     0.166667
   21    -1.000000    90.000000    -0.408248     0.577350     0.707107     0.000000     0.000000     0.166667
   22     1.000000   120.000000    -0.942809     0.333333     0.000000     0.000000     0.166667    -0.000000
   23     1.000000   180.000000    -0.408248     0.577350    -0.707107    -0.000000     0.166667     0.000000
   24     1.000000   120.000000    -0.471405    -0.333333     0.816497    -0.000000     0.166667     0.000000
 
 Subroutine IBZKPT returns following result:
 ===========================================
 
 Found      8 irreducible k-points:
 
 Following reciprocal coordinates:
            Coordinates               Weight
  0.000000  0.000000  0.000000      1.000000
  0.250000  0.000000  0.000000      8.000000
  0.500000  0.000000  0.000000      4.000000
  0.250000  0.250000  0.000000      6.000000
  0.500000  0.250000  0.000000     24.000000
 -0.250000  0.250000  0.000000     12.000000
  0.500000  0.500000  0.000000      3.000000
 -0.250000  0.500000  0.250000      6.000000
 
 Following cartesian coordinates:
            Coordinates               Weight
  0.000000  0.000000  0.000000      1.000000
  0.025059 -0.008860  0.000000      8.000000
  0.050118 -0.017719  0.000000      4.000000
  0.025059  0.017719  0.000000      6.000000
  0.050118  0.008860  0.000000     24.000000
 -0.025059  0.035439  0.000000     12.000000
  0.050118  0.035439  0.000000      3.000000
 -0.037588  0.053158  0.021702      6.000000
 


--------------------------------------------------------------------------------------------------------




 Dimension of arrays:
   k-points           NKPTS =      8   k-points in BZ     NKDIM =      8   number of bands    NBANDS=    144
   number of dos      NEDOS =    301   number of ions     NIONS =     53
   non local maximal  LDIM  =      4   non local SUM 2l+1 LMDIM =      8
   total plane-waves  NPLWV = 343000
   max r-space proj   IRMAX =      1   max aug-charges    IRDMAX=  10807
   dimension x,y,z NGX =    70 NGY =   70 NGZ =   70
   dimension x,y,z NGXF=   140 NGYF=  140 NGZF=  140
   support grid    NGXF=   140 NGYF=  140 NGZF=  140
   ions per type =              53
   NGX,Y,Z   is equivalent  to a cutoff of  10.10, 10.10, 10.10 a.u.
   NGXF,Y,Z  is equivalent  to a cutoff of  20.20, 20.20, 20.20 a.u.

 SYSTEM =  Si                                      
 POSCAR =  Si53                                    

 Startparameter for this run:
   NWRITE =      2    write-flag & timer
   PREC   = normal    normal or accurate (medium, high low for compatibility)
   ISTART =      0    job   : 0-new  1-cont  2-samecut
   ICHARG =      2    charge: 1-file 2-atom 10-const
   ISPIN  =      1    spin polarized calculation?
   LNONCOLLINEAR =      F non collinear calculations
   LSORBIT =      F    spin-orbit coupling
   INIWAV =      1    electr: 0-lowe 1-rand  2-diag
   LASPH  =      F    aspherical Exc in radial PAW
   METAGGA=      F    non-selfconsistent MetaGGA calc.

 Electronic Relaxation 1
   ENCUT  =  550.0 eV  40.42 Ry    6.36 a.u.  22.03 22.03 22.03*2*pi/ulx,y,z
   ENINI  =  550.0     initial cutoff
   ENAUG  =  322.1 eV  augmentation charge cutoff
   NELM   =    200;   NELMIN=  2; NELMDL= -5     # of ELM steps 
   EDIFF  = 0.1E-05   stopping-criterion for ELM
   LREAL  =      F    real-space projection
   NLSPLINE    = F    spline interpolate recip. space projectors
   LCOMPAT=      F    compatible to vasp.4.4
   GGA_COMPAT  = T    GGA compatible to vasp.4.4-vasp.4.6
   LMAXPAW     = -100 max onsite density
   LMAXMIX     =    2 max onsite mixed and CHGCAR
   VOSKOWN=      0    Vosko Wilk Nusair interpolation
   ROPT   =    0.00000
 Ionic relaxation
   EDIFFG = -.5E-01   stopping-criterion for IOM
   NSW    =      0    number of steps for IOM
   NBLOCK =      1;   KBLOCK =      1    inner block; outer block 
   IBRION =     -1    ionic relax: 0-MD 1-quasi-New 2-CG
   NFREE  =      1    steps in history (QN), initial steepest desc. (CG)
   ISIF   =      2    stress and relaxation
   IWAVPR =     10    prediction:  0-non 1-charg 2-wave 3-comb
   ISYM   =      2    0-nonsym 1-usesym 2-fastsym
   LCORR  =      T    Harris-Foulkes like correction to forces

   POTIM  = 0.5000    time-step for ionic-motion
   TEIN   =    0.0    initial temperature
   TEBEG  =    0.0;   TEEND  =   0.0 temperature during run
   SMASS  =  -3.00    Nose mass-parameter (am)
   estimated Nose-frequenzy (Omega)   =  0.10E-29 period in steps =****** mass=  -0.303E-26a.u.
   SCALEE = 1.0000    scale energy and forces
   NPACO  =    256;   APACO  = 16.0  distance and # of slots for P.C.
   PSTRESS=    0.0 pullay stress

  Mass of Ions in am
   POMASS =  28.09
  Ionic Valenz
   ZVAL   =   4.00
  Atomic Wigner-Seitz radii
   RWIGS  =  -1.00
  virtual crystal weights 
   VCA    =   1.00
   NELECT =     213.0000    total number of electrons
   NUPDOWN=      -1.0000    fix difference up-down

 DOS related values:
   EMIN   =  10.00;   EMAX   =-10.00  energy-range for DOS
   EFERMI =   0.00
   ISMEAR =     0;   SIGMA  =   0.05  broadening in eV -4-tet -1-fermi 0-gaus

 Electronic relaxation 2 (details)
   IALGO  =     38    algorithm
   LDIAG  =      T    sub-space diagonalisation (order eigenvalues)
   LSUBROT=      F    optimize rotation matrix (better conditioning)
   TURBO    =      0    0=normal 1=particle mesh
   IRESTART =      0    0=no restart 2=restart with 2 vectors
   NREBOOT  =      0    no. of reboots
   NMIN     =      0    reboot dimension
   EREF     =   0.00    reference energy to select bands
   IMIX   =      4    mixing-type and parameters
     AMIX     =   0.20;   BMIX     =  1.00
     AMIX_MAG =   0.80;   BMIX_MAG =  1.00
     AMIN     =   0.10
     WC   =   100.;   INIMIX=   1;  MIXPRE=   1;  MAXMIX= -45

 Intra band minimization:
   WEIMIN = 0.0000     energy-eigenvalue tresh-hold
   EBREAK =  0.17E-08  absolut break condition
   DEPER  =   0.30     relativ break condition  

   TIME   =   0.40     timestep for ELM

  volume/ion in A,a.u.               =      20.40       137.64
  Fermi-wavevector in a.u.,A,eV,Ry     =   0.952636  1.800221 12.347494  0.907515
  Thomas-Fermi vector in A             =   2.081217
 
 Write flags
   LWAVE        =      T    write WAVECAR
   LDOWNSAMPLE  =      F    k-point downsampling of WAVECAR
   LCHARG       =      T    write CHGCAR
   LVTOT        =      F    write LOCPOT, total local potential
   LVHAR        =      F    write LOCPOT, Hartree potential only
   LELF         =      F    write electronic localiz. function (ELF)
   LORBIT       =     10    0 simple, 1 ext, 2 COOP (PROOUT), +10 PAW based schemes


 Dipole corrections
   LMONO  =      F    monopole corrections only (constant potential shift)
   LDIPOL =      F    correct potential (dipole corrections)
   IDIPOL =      0    1-x, 2-y, 3-z, 4-all directions 
   EPSILON=  1.0000000 bulk dielectric constant

 Exchange correlation treatment:
   GGA     =    --    GGA type
   LEXCH   =     8    internal setting for exchange type
   VOSKOWN=      0    Vosko Wilk Nusair interpolation
   LHFCALC =     F    Hartree Fock is set to
   LHFONE  =     F    Hartree Fock one center treatment
   AEXX    =    0.0000 exact exchange contribution

 Linear response parameters
   LEPSILON=     F    determine dielectric tensor
   LRPA    =     F    only Hartree local field effects (RPA)
   LNABLA  =     F    use nabla operator in PAW spheres
   LVEL    =     F    velocity operator in full k-point grid
   LINTERFAST=   F  fast interpolation
   KINTER  =     0    interpolate to denser k-point grid
   CSHIFT  =0.1000    complex shift for real part using Kramers Kronig
   OMEGAMAX=  -1.0    maximum frequency
   DEG_THRESHOLD= 0.2000000E-02 threshold for treating states as degnerate
   RTIME   =   -0.100 relaxation time in fs
  (WPLASMAI=    0.000 imaginary part of plasma frequency in eV, 0.658/RTIME)
   DFIELD  = 0.0000000 0.0000000 0.0000000 field for delta impulse in time
 
 Orbital magnetization related:
   ORBITALMAG=     F  switch on orbital magnetization
   LCHIMAG   =     F  perturbation theory with respect to B field
   DQ        =  0.001000  dq finite difference perturbation B field
   LLRAUG    =     F  two centre corrections for induced B field



--------------------------------------------------------------------------------------------------------


 Static calculation
 charge density and potential will be updated during run
 non-spin polarized calculation
 Variant of blocked Davidson
 Davidson routine will perform the subspace rotation
 perform sub-space diagonalisation
    after iterative eigenvector-optimisation
 modified Broyden-mixing scheme, WC =      100.0
 initial mixing is a Kerker type mixing with AMIX =  0.2000 and BMIX =      1.0000
 Hartree-type preconditioning will be used
 using additional bands           37
 reciprocal scheme for non local part
 use partial core corrections
 calculate Harris-corrections to forces 
   (improved forces if not selfconsistent)
 use gradient corrections 
 use of overlap-Matrix (Vanderbilt PP)
 Gauss-broadening in eV      SIGMA  =   0.05


--------------------------------------------------------------------------------------------------------


  energy-cutoff  :      550.00
  volume of cell :     1080.99
      direct lattice vectors                 reciprocal lattice vectors
     9.976465530  0.000000000  5.759915070     0.100235900 -0.035438742  0.000000000
     3.325488510  9.405901920  5.759915070     0.000000000  0.106316227  0.000000000
     0.000000000  0.000000000 11.519830140    -0.050117950 -0.035438742  0.086806836

  length of vectors
    11.519830124 11.519830136 11.519830140     0.106316227  0.106316227  0.106316227


 
 k-points in units of 2pi/SCALE and weight: Automatic kpoint scheme                 
   0.00000000  0.00000000  0.00000000       0.016
   0.02505897 -0.00885969  0.00000000       0.125
   0.05011795 -0.01771937  0.00000000       0.062
   0.02505897  0.01771937  0.00000000       0.094
   0.05011795  0.00885969  0.00000000       0.375
  -0.02505897  0.03543874  0.00000000       0.188
   0.05011795  0.03543874  0.00000000       0.047
  -0.03758846  0.05315811  0.02170171       0.094
 
 k-points in reciprocal lattice and weights: Automatic kpoint scheme                 
   0.00000000  0.00000000  0.00000000       0.016
   0.25000000  0.00000000  0.00000000       0.125
   0.50000000  0.00000000  0.00000000       0.062
   0.25000000  0.25000000  0.00000000       0.094
   0.50000000  0.25000000  0.00000000       0.375
  -0.25000000  0.25000000  0.00000000       0.188
   0.50000000  0.50000000  0.00000000       0.047
  -0.25000000  0.50000000  0.25000000       0.094
 
 position of ions in fractional coordinates (direct lattice) 
   0.29166667  0.29166667  0.62500000
   0.29166667  0.29166667  0.95833333
   0.29166667  0.62500000  0.29166667
   0.29166667  0.62500000  0.62500000
   0.29166667  0.62500000  0.95833333
   0.29166667  0.95833333  0.29166667
   0.29166667  0.95833333  0.62500000
   0.29166667  0.95833333  0.95833333
   0.62500000  0.29166667  0.29166667
   0.62500000  0.29166667  0.62500000
   0.62500000  0.29166667  0.95833333
   0.62500000  0.62500000  0.29166667
   0.62500000  0.62500000  0.62500000
   0.62500000  0.62500000  0.95833333
   0.62500000  0.95833333  0.29166667
   0.62500000  0.95833333  0.62500000
   0.62500000  0.95833333  0.95833333
   0.95833333  0.29166667  0.29166667
   0.95833333  0.29166667  0.62500000
   0.95833333  0.29166667  0.95833333
   0.95833333  0.62500000  0.29166667
   0.95833333  0.62500000  0.62500000
   0.95833333  0.62500000  0.95833333
   0.95833333  0.95833333  0.29166667
   0.95833333  0.95833333  0.62500000
   0.95833333  0.95833333  0.95833333
   0.04166667  0.04166667  0.04166667
   0.04166667  0.04166667  0.37500000
   0.04166667  0.04166667  0.70833333
   0.04166667  0.37500000  0.04166667
   0.04166667  0.37500000  0.37500000
   0.04166667  0.37500000  0.70833333
   0.04166667  0.70833333  0.04166667
   0.04166667  0.70833333  0.37500000
   0.04166667  0.70833333  0.70833333
   0.37500000  0.04166667  0.04166667
   0.37500000  0.04166667  0.37500000
   0.37500000  0.04166667  0.70833333
   0.37500000  0.37500000  0.04166667
   0.37500000  0.37500000  0.37500000
   0.37500000  0.37500000  0.70833333
   0.37500000  0.70833333  0.04166667
   0.37500000  0.70833333  0.37500000
   0.37500000  0.70833333  0.70833333
   0.70833333  0.04166667  0.04166667
   0.70833333  0.04166667  0.37500000
   0.70833333  0.04166667  0.70833333
   0.70833333  0.37500000  0.04166667
   0.70833333  0.37500000  0.37500000
   0.70833333  0.37500000  0.70833333
   0.70833333  0.70833333  0.04166667
   0.70833333  0.70833333  0.37500000
   0.70833333  0.70833333  0.70833333
 
 position of ions in cartesian coordinates  (Angst):
   3.87973659  2.74338806 10.55984429
   3.87973659  2.74338806 14.39978767
   4.98823276  5.87868870  8.63987260
   4.98823276  5.87868870 12.47981598
   4.98823276  5.87868870 16.31975937
   6.09672893  9.01398934 10.55984429
   6.09672893  9.01398934 14.39978767
   6.09672893  9.01398934 18.23973106
   7.20522510  2.74338806  8.63987260
   7.20522510  2.74338806 12.47981598
   7.20522510  2.74338806 16.31975937
   8.31372128  5.87868870 10.55984429
   8.31372128  5.87868870 14.39978767
   8.31372128  5.87868870 18.23973106
   9.42221745  9.01398934 12.47981598
   9.42221745  9.01398934 16.31975937
   9.42221745  9.01398934 20.15970275
  10.53071362  2.74338806 10.55984429
  10.53071362  2.74338806 14.39978767
  10.53071362  2.74338806 18.23973106
  11.63920979  5.87868870 12.47981598
  11.63920979  5.87868870 16.31975937
  11.63920979  5.87868870 20.15970275
  12.74770596  9.01398934 14.39978767
  12.74770596  9.01398934 18.23973106
  12.74770596  9.01398934 22.07967444
   0.55424808  0.39191258  0.95998584
   0.55424808  0.39191258  4.79992922
   0.55424808  0.39191258  8.63987260
   1.66274425  3.52721322  2.87995753
   1.66274425  3.52721322  6.71990091
   1.66274425  3.52721322 10.55984430
   2.77124042  6.66251386  4.79992922
   2.77124042  6.66251386  8.63987261
   2.77124042  6.66251386 12.47981599
   3.87973659  0.39191258  2.87995753
   3.87973659  0.39191258  6.71990091
   3.87973659  0.39191258 10.55984430
   4.98823277  3.52721322  4.79992922
   4.98823277  3.52721322  8.63987261
   4.98823277  3.52721322 12.47981599
   6.09672894  6.66251386  6.71990091
   6.09672894  6.66251386 10.55984430
   6.09672894  6.66251386 14.39978768
   7.20522511  0.39191258  4.79992922
   7.20522511  0.39191258  8.63987261
   7.20522511  0.39191258 12.47981599
   8.31372128  3.52721322  6.71990091
   8.31372128  3.52721322 10.55984430
   8.31372128  3.52721322 14.39978768
   9.42221745  6.66251386  8.63987260
   9.42221745  6.66251386 12.47981599
   9.42221745  6.66251386 16.31975937
 


--------------------------------------------------------------------------------------------------------


 k-point  1 :   0.0000 0.0000 0.0000  plane waves:   31415
 k-point  2 :   0.2500 0.0000 0.0000  plane waves:   31608
 k-point  3 :   0.5000 0.0000 0.0000  plane waves:   31638
 k-point  4 :   0.2500 0.2500 0.0000  plane waves:   31695
 k-point  5 :   0.5000 0.2500 0.0000  plane waves:   31649
 k-point  6 :  -0.2500 0.2500 0.0000  plane waves:   31674
 k-point  7 :   0.5000 0.5000 0.0000  plane waves:   31716
 k-point  8 :  -0.2500 0.5000 0.2500  plane waves:   31684

 maximum and minimum number of plane-waves per node :     31716    31415

 maximum number of plane-waves:     31716
 maximum index in each direction: 
   IXMAX=   22   IYMAX=   22   IZMAX=   22
   IXMIN=  -22   IYMIN=  -22   IZMIN=  -22


 serial   3D FFT for wavefunctions
 parallel 3D FFT for charge:
    minimum data exchange during FFTs selected (reduces bandwidth)


 total amount of memory used by VASP MPI-rank0   122888. kBytes
=======================================================================

   base      :      30000. kBytes
   nonl-proj :      43150. kBytes
   fftplans  :       5382. kBytes
   grid      :      19496. kBytes
   one-center:        162. kBytes
   wavefun   :      24698. kBytes
 
     INWAV:  cpu time    0.0000: real time    0.0000
 Broyden mixing: mesh for mixing (old mesh)
   NGX = 45   NGY = 45   NGZ = 45
  (NGX  =140   NGY  =140   NGZ  =140)
  gives a total of  91125 points

 initial charge density was supplied:
 charge density of overlapping atoms calculated
 number of electron     212.0000000 magnetization 
 keeping initial charge density in first step


--------------------------------------------------------------------------------------------------------


 Maximum index for augmentation-charges          503 (set IRDMAX)


--------------------------------------------------------------------------------------------------------


 First call to EWALD:  gamma=   0.173
 Maximum number of real-space cells 3x 3x 3
 Maximum number of reciprocal cells 3x 3x 3

    FEWALD:  cpu time    0.2226: real time    0.2247


--------------------------------------- Iteration      1(   1)  ---------------------------------------


    POTLOK:  cpu time    0.1653: real time    0.2017
    SETDIJ:  cpu time    0.0130: real time    0.0136
     EDDAV:  cpu time    3.7784: real time    3.8135
       DOS:  cpu time    0.0123: real time    0.0139
    --------------------------------------------
      LOOP:  cpu time    3.9691: real time    4.0428

 eigenvalue-minimisations  :  2304
 total energy-change (2. order) : 0.5617377E+03  (-0.8379721E+04)
 number of electron     212.0000000 magnetization 
 augmentation part      212.0000000 magnetization 

 Free energy of the ion-electron system (eV)
  ---------------------------------------------------
  alpha Z        PSCENC =        87.47481167
  Ewald energy   TEWEN  =     -5974.52528800
  -Hartree energ DENC   =      -334.43528197
  -exchange      EXHF   =         0.00000000
  -V(xc)+E(xc)   XCENC  =      -494.43365227
  PAW double counting   =      4670.56137959    -3738.11744287
  entropy T*S    EENTRO =        -0.01770013
  eigenvalues    EBANDS =       882.70802708
  atomic energy  EATOM  =      5462.52286525
  Solvation  Ediel_sol  =         0.00000000
  ---------------------------------------------------
  free energy    TOTEN  =       561.73771835 eV

  energy without entropy =      561.75541848  energy(sigma->0) =      561.74656842


--------------------------------------------------------------------------------------------------------




--------------------------------------- Iteration      1(   2)  ---------------------------------------


     EDDAV:  cpu time    5.4541: real time    5.5071
       DOS:  cpu time    0.5129: real time    0.5176
    --------------------------------------------
      LOOP:  cpu time    5.9671: real time    6.0247

 eigenvalue-minimisations  :  2832
 total energy-change (2. order) :-0.7957238E+03  (-0.7655479E+03)
 number of electron     212.0000000 magnetization 
 augmentation part      212.0000000 magnetization 

 Free energy of the ion-electron system (eV)
  ---------------------------------------------------
  alpha Z        PSCENC =        87.47481167
  Ewald energy   TEWEN  =     -5974.52528800
  -Hartree energ DENC   =      -334.43528197
  -exchange      EXHF   =         0.00000000
  -V(xc)+E(xc)   XCENC  =      -494.43365227
  PAW double counting   =      4670.56137959    -3738.11744287
  entropy T*S    EENTRO =        -0.01626424
  eigenvalues    EBANDS =        86.98274298
  atomic energy  EATOM  =      5462.52286525
  Solvation  Ediel_sol  =         0.00000000
  ---------------------------------------------------
  free energy    TOTEN  =      -233.98612986 eV

  energy without entropy =     -233.96986562  energy(sigma->0) =     -233.97799774


--------------------------------------------------------------------------------------------------------




--------------------------------------- Iteration      1(   3)  ---------------------------------------


     EDDAV:  cpu time    5.3582: real time    5.4084
       DOS:  cpu time    0.5024: real time    0.5056
    --------------------------------------------
      LOOP:  cpu time    5.8606: real time    5.9140

 eigenvalue-minimisations  :  2880
 total energy-change (2. order) :-0.4776220E+02  (-0.4717680E+02)
 number of electron     212.0000000 magnetization 
 augmentation part      212.0000000 magnetization 

 Free energy of the ion-electron system (eV)
  ---------------------------------------------------
  alpha Z        PSCENC =        87.47481167
  Ewald energy   TEWEN  =     -5974.52528800
  -Hartree energ DENC   =      -334.43528197
  -exchange      EXHF   =         0.00000000
  -V(xc)+E(xc)   XCENC  =      -494.43365227
  PAW double counting   =      4670.56137959    -3738.11744287
  entropy T*S    EENTRO =        -0.01823883
  eigenvalues    EBANDS =        39.22251824
  atomic energy  EATOM  =      5462.52286525
  Solvation  Ediel_sol  =         0.00000000
  ---------------------------------------------------
  free energy    TOTEN  =      -281.74832919 eV

  energy without entropy =     -281.73009036  energy(sigma->0) =     -281.73920978


--------------------------------------------------------------------------------------------------------




--------------------------------------- Iteration      1(   4)  ---------------------------------------


     EDDAV:  cpu time    4.4605: real time    4.5113
       DOS:  cpu time    0.5246: real time    0.5317
    --------------------------------------------
      LOOP:  cpu time    4.9852: real time    5.0430

 eigenvalue-minimisations  :  2904
 total energy-change (2. order) :-0.9713156E+00  (-0.9667993E+00)
 number of electron     212.0000000 magnetization 
 augmentation part      212.0000000 magnetization 

 Free energy of the ion-electron system (eV)
  ---------------------------------------------------
  alpha Z        PSCENC =        87.47481167
  Ewald energy   TEWEN  =     -5974.52528800
  -Hartree energ DENC   =      -334.43528197
  -exchange      EXHF   =         0.00000000
  -V(xc)+E(xc)   XCENC  =      -494.43365227
  PAW double counting   =      4670.56137959    -3738.11744287
  entropy T*S    EENTRO =        -0.01893248
  eigenvalues    EBANDS =        38.25189631
  atomic energy  EATOM  =      5462.52286525
  Solvation  Ediel_sol  =         0.00000000
  ---------------------------------------------------
  free energy    TOTEN  =      -282.71964478 eV

  energy without entropy =     -282.70071230  energy(sigma->0) =     -282.71017854


--------------------------------------------------------------------------------------------------------




--------------------------------------- Iteration      1(   5)  ---------------------------------------


     EDDAV:  cpu time    4.7316: real time    4.7853
       DOS:  cpu time    0.5130: real time    0.5199
    CHARGE:  cpu time    0.1769: real time    0.1788
    MIXING:  cpu time    0.0048: real time    0.0062
    --------------------------------------------
      LOOP:  cpu time    5.4263: real time    5.4902

 eigenvalue-minimisations  :  2832
 total energy-change (2. order) :-0.2251260E-01  (-0.2249785E-01)
 number of electron     212.9999999 magnetization 
 augmentation part      -12.5503103 magnetization 

 Broyden mixing:
  rms(total) = 0.24854E+01    rms(broyden)= 0.24852E+01
  rms(prec ) = 0.28516E+01
  weight for this iteration     100.00

 Free energy of the ion-electron system (eV)
  ---------------------------------------------------
  alpha Z        PSCENC =        87.47481167
  Ewald energy   TEWEN  =     -5974.52528800
  -Hartree energ DENC   =      -334.43528197
  -exchange      EXHF   =         0.00000000
  -V(xc)+E(xc)   XCENC  =      -494.43365227
  PAW double counting   =      4670.56137959    -3738.11744287
  entropy T*S    EENTRO =        -0.01893618
  eigenvalues    EBANDS =        38.22938740
  atomic energy  EATOM  =      5462.52286525
  Solvation  Ediel_sol  =         0.00000000
  ---------------------------------------------------
  free energy    TOTEN  =      -282.74215738 eV

  energy without entropy =     -282.72322120  energy(sigma->0) =     -282.73268929


--------------------------------------------------------------------------------------------------------




--------------------------------------- Iteration      1(   6)  ---------------------------------------


    POTLOK:  cpu time    0.0861: real time    0.0870
    SETDIJ:  cpu time    0.0859: real time    0.0867
     EDDAV:  cpu time    3.7526: real time    3.7823
       DOS:  cpu time    0.5104: real time    0.5178
    CHARGE:  cpu time    0.2509: real time    0.2536
    MIXING:  cpu time    0.0382: real time    0.0387
    --------------------------------------------
      LOOP:  cpu time    4.7242: real time    4.7662

 eigenvalue-minimisations  :  2784
 total energy-change (2. order) : 0.2071870E+01  (-0.6359150E-01)
 number of electron     212.9999999 magnetization 
 augmentation part      -12.4698597 magnetization 

 Broyden mixing:
  rms(total) = 0.20018E+01    rms(broyden)= 0.20018E+01
  rms(prec ) = 0.22849E+01
  weight for this iteration     100.00

 eigenvalues of (default mixing * dielectric matrix)
  average eigenvalue GAMMA=   5.1137
  5.1137

 Free energy of the ion-electron system (eV)
  ---------------------------------------------------
  alpha Z        PSCENC =        87.47481167
  Ewald energy   TEWEN  =     -5974.52528800
  -Hartree energ DENC   =      -353.74666298
  -exchange      EXHF   =         0.00000000
  -V(xc)+E(xc)   XCENC  =      -488.68502904
  PAW double counting   =      7014.78492953    -6083.78241823
  entropy T*S    EENTRO =        -0.01849348
  eigenvalues    EBANDS =        55.30499742
  atomic energy  EATOM  =      5462.52286525
  Solvation  Ediel_sol  =         0.00000000
  ---------------------------------------------------
  free energy    TOTEN  =      -280.67028787 eV

  energy without entropy =     -280.65179440  energy(sigma->0) =     -280.66104113


--------------------------------------------------------------------------------------------------------




--------------------------------------- Iteration      1(   7)  ---------------------------------------


    POTLOK:  cpu time    0.0795: real time    0.0809
    SETDIJ:  cpu time    0.3678: real time    0.3717
     EDDAV:  cpu time    4.1233: real time    4.1734
       DOS:  cpu time    0.5061: real time    0.5127
    CHARGE:  cpu time    0.2494: real time    0.2522
    MIXING:  cpu time    0.0196: real time    0.0199
    --------------------------------------------
      LOOP:  cpu time    5.3457: real time    5.4108

 eigenvalue-minimisations  :  2664
 total energy-change (2. order) : 0.2864807E+01  (-0.7812232E+00)
 number of electron     212.9999999 magnetization 
 augmentation part      -12.2034366 magnetization 

 Broyden mixing:
  rms(total) = 0.15143E+00    rms(broyden)= 0.15143E+00
  rms(prec ) = 0.22306E+00
  weight for this iteration     100.00

 eigenvalues of (default mixing * dielectric matrix)
  average eigenvalue GAMMA=   3.7074
  2.6187  4.7961

 Free energy of the ion-electron system (eV)
  ---------------------------------------------------
  alpha Z        PSCENC =        87.47481167
  Ewald energy   TEWEN  =     -5974.52528800
  -Hartree energ DENC   =      -439.81001980
  -exchange      EXHF   =         0.00000000
  -V(xc)+E(xc)   XCENC  =      -475.19223157
  PAW double counting   =     22614.25408777   -21688.85181745
  entropy T*S    EENTRO =        -0.01754416
  eigenvalues    EBANDS =       136.33965578
  atomic energy  EATOM  =      5462.52286525
  Solvation  Ediel_sol  =         0.00000000
  ---------------------------------------------------
  free energy    TOTEN  =      -277.80548052 eV

  energy without entropy =     -277.78793636  energy(sigma->0) =     -277.79670844


--------------------------------------------------------------------------------------------------------




--------------------------------------- Iteration      1(   8)  ---------------------------------------


    POTLOK:  cpu time    0.1309: real time    0.1326
    SETDIJ:  cpu time    0.1002: real time    0.1012
     EDDAV:  cpu time    3.6035: real time    3.6340
       DOS:  cpu time    0.0071: real time    0.0071
    CHARGE:  cpu time    0.7938: real time    0.8030
    MIXING:  cpu time    0.0122: real time    0.0123
    --------------------------------------------
      LOOP:  cpu time    4.6478: real time    4.6902

 eigenvalue-minimisations  :  2712
 total energy-change (2. order) : 0.1400638E-01  (-0.5830070E-01)
 number of electron     212.9999999 magnetization 
 augmentation part      -12.2196534 magnetization 

 Broyden mixing:
  rms(total) = 0.84777E-01    rms(broyden)= 0.84777E-01
  rms(prec ) = 0.10384E+00
  weight for this iteration     100.00

 eigenvalues of (default mixing * dielectric matrix)
  average eigenvalue GAMMA=   2.7012
  4.8838  2.6361  0.5837

 Free energy of the ion-electron system (eV)
  ---------------------------------------------------
  alpha Z        PSCENC =        87.47481167
  Ewald energy   TEWEN  =     -5974.52528800
  -Hartree energ DENC   =      -435.19511243
  -exchange      EXHF   =         0.00000000
  -V(xc)+E(xc)   XCENC  =      -475.48613614
  PAW double counting   =     22636.08111479   -21709.99553466
  entropy T*S    EENTRO =        -0.01908616
  eigenvalues    EBANDS =       131.35089156
  atomic energy  EATOM  =      5462.52286525
  Solvation  Ediel_sol  =         0.00000000
  ---------------------------------------------------
  free energy    TOTEN  =      -277.79147414 eV

  energy without entropy =     -277.77238798  energy(sigma->0) =     -277.78193106


--------------------------------------------------------------------------------------------------------




--------------------------------------- Iteration      1(   9)  ---------------------------------------


    POTLOK:  cpu time    0.0893: real time    0.0903
    SETDIJ:  cpu time    0.0033: real time    0.0033
     EDDAV:  cpu time    4.2091: real time    4.2435
       DOS:  cpu time    0.0058: real time    0.0058
    CHARGE:  cpu time    0.1642: real time    0.1651
    MIXING:  cpu time    0.0041: real time    0.0041
    --------------------------------------------
      LOOP:  cpu time    4.4756: real time    4.5121

 eigenvalue-minimisations  :  2952
 total energy-change (2. order) :-0.6735254E-02  (-0.3645616E-02)
 number of electron     212.9999999 magnetization 
 augmentation part      -12.2260892 magnetization 

 Broyden mixing:
  rms(total) = 0.59807E-01    rms(broyden)= 0.59807E-01
  rms(prec ) = 0.74906E-01
  weight for this iteration     100.00

 eigenvalues of (default mixing * dielectric matrix)
  average eigenvalue GAMMA=   2.4613
  4.7009  2.9754  1.0845  1.0845

 Free energy of the ion-electron system (eV)
  ---------------------------------------------------
  alpha Z        PSCENC =        87.47481167
  Ewald energy   TEWEN  =     -5974.52528800
  -Hartree energ DENC   =      -435.45849086
  -exchange      EXHF   =         0.00000000
  -V(xc)+E(xc)   XCENC  =      -475.37098973
  PAW double counting   =     22844.77192378   -21918.58807743
  entropy T*S    EENTRO =        -0.01881379
  eigenvalues    EBANDS =       131.39384971
  atomic energy  EATOM  =      5462.52286525
  Solvation  Ediel_sol  =         0.00000000
  ---------------------------------------------------
  free energy    TOTEN  =      -277.79820939 eV

  energy without entropy =     -277.77939561  energy(sigma->0) =     -277.78880250


--------------------------------------------------------------------------------------------------------




--------------------------------------- Iteration      1(  10)  ---------------------------------------


    POTLOK:  cpu time    0.0838: real time    0.0850
    SETDIJ:  cpu time    0.0039: real time    0.0039
     EDDAV:  cpu time    6.3637: real time    6.4302
       DOS:  cpu time    0.5241: real time    0.5305
    CHARGE:  cpu time    0.2527: real time    0.2549
    MIXING:  cpu time    0.0124: real time    0.0124
    --------------------------------------------
      LOOP:  cpu time    7.2405: real time    7.3169

 eigenvalue-minimisations  :  2808
 total energy-change (2. order) :-0.1970439E-02  (-0.7862698E-03)
 number of electron     212.9999999 magnetization 
 augmentation part      -12.2320649 magnetization 

 Broyden mixing:
  rms(total) = 0.42149E-01    rms(broyden)= 0.42149E-01
  rms(prec ) = 0.50070E-01
  weight for this iteration     100.00

 eigenvalues of (default mixing * dielectric matrix)
  average eigenvalue GAMMA=   2.8061
  4.6899  4.6899  2.5903  1.0302  1.0302

 Free energy of the ion-electron system (eV)
  ---------------------------------------------------
  alpha Z        PSCENC =        87.47481167
  Ewald energy   TEWEN  =     -5974.52528800
  -Hartree energ DENC   =      -434.66095273
  -exchange      EXHF   =         0.00000000
  -V(xc)+E(xc)   XCENC  =      -475.44137376
  PAW double counting   =     22712.57822249   -21786.23319606
  entropy T*S    EENTRO =        -0.01843251
  eigenvalues    EBANDS =       130.50316382
  atomic energy  EATOM  =      5462.52286525
  Solvation  Ediel_sol  =         0.00000000
  ---------------------------------------------------
  free energy    TOTEN  =      -277.80017983 eV

  energy without entropy =     -277.78174732  energy(sigma->0) =     -277.79096358


--------------------------------------------------------------------------------------------------------




--------------------------------------- Iteration      1(  11)  ---------------------------------------


    POTLOK:  cpu time    0.1406: real time    0.1450
    SETDIJ:  cpu time    0.0698: real time    0.0706
     EDDAV:  cpu time    4.2350: real time    4.2770
       DOS:  cpu time    0.5131: real time    0.5191
    CHARGE:  cpu time    0.2523: real time    0.2549
    MIXING:  cpu time    0.0456: real time    0.0460
    --------------------------------------------
      LOOP:  cpu time    5.2563: real time    5.3126

 eigenvalue-minimisations  :  2712
 total energy-change (2. order) :-0.6060715E-02  (-0.9411963E-03)
 number of electron     212.9999999 magnetization 
 augmentation part      -12.2401177 magnetization 

 Broyden mixing:
  rms(total) = 0.21075E-01    rms(broyden)= 0.21075E-01
  rms(prec ) = 0.24385E-01
  weight for this iteration     100.00

 eigenvalues of (default mixing * dielectric matrix)
  average eigenvalue GAMMA=   2.5742
  4.7608  4.7608  2.8678  1.1424  1.1424  0.7713

 Free energy of the ion-electron system (eV)
  ---------------------------------------------------
  alpha Z        PSCENC =        87.47481167
  Ewald energy   TEWEN  =     -5974.52528800
  -Hartree energ DENC   =      -434.45712962
  -exchange      EXHF   =         0.00000000
  -V(xc)+E(xc)   XCENC  =      -475.36561853
  PAW double counting   =     22746.22382529   -21819.68795417
  entropy T*S    EENTRO =        -0.01838681
  eigenvalues    EBANDS =       130.02663437
  atomic energy  EATOM  =      5462.52286525
  Solvation  Ediel_sol  =         0.00000000
  ---------------------------------------------------
  free energy    TOTEN  =      -277.80624055 eV

  energy without entropy =     -277.78785374  energy(sigma->0) =     -277.79704714


--------------------------------------------------------------------------------------------------------




--------------------------------------- Iteration      1(  12)  ---------------------------------------


    POTLOK:  cpu time    0.1303: real time    0.1322
    SETDIJ:  cpu time    0.0750: real time    0.0758
     EDDAV:  cpu time    4.0267: real time    4.0709
       DOS:  cpu time    0.5129: real time    0.5192
    CHARGE:  cpu time    0.5072: real time    0.5128
    MIXING:  cpu time    0.3018: real time    0.3056
    --------------------------------------------
      LOOP:  cpu time    5.5538: real time    5.6164

 eigenvalue-minimisations  :  2952
 total energy-change (2. order) :-0.1138518E-02  (-0.1357932E-03)
 number of electron     212.9999999 magnetization 
 augmentation part      -12.2402956 magnetization 

 Broyden mixing:
  rms(total) = 0.13226E-01    rms(broyden)= 0.13226E-01
  rms(prec ) = 0.15105E-01
  weight for this iteration     100.00

 eigenvalues of (default mixing * dielectric matrix)
  average eigenvalue GAMMA=   2.7831
  5.8920  4.9869  3.3215  1.6930  1.6930  0.9475  0.9475

 Free energy of the ion-electron system (eV)
  ---------------------------------------------------
  alpha Z        PSCENC =        87.47481167
  Ewald energy   TEWEN  =     -5974.52528800
  -Hartree energ DENC   =      -434.76938653
  -exchange      EXHF   =         0.00000000
  -V(xc)+E(xc)   XCENC  =      -475.31148123
  PAW double counting   =     22693.35163802   -21766.79884280
  entropy T*S    EENTRO =        -0.01835947
  eigenvalues    EBANDS =       130.26666403
  atomic energy  EATOM  =      5462.52286525
  Solvation  Ediel_sol  =         0.00000000
  ---------------------------------------------------
  free energy    TOTEN  =      -277.80737907 eV

  energy without entropy =     -277.78901959  energy(sigma->0) =     -277.79819933


--------------------------------------------------------------------------------------------------------




--------------------------------------- Iteration      1(  13)  ---------------------------------------


    POTLOK:  cpu time    0.0774: real time    0.0786
    SETDIJ:  cpu time    0.5028: real time    0.5079
     EDDAV:  cpu time    4.0036: real time    4.3132
       DOS:  cpu time    0.4978: real time    0.5049
    CHARGE:  cpu time    0.2383: real time    0.2411
    MIXING:  cpu time    0.0199: real time    0.0201
    --------------------------------------------
      LOOP:  cpu time    5.3398: real time    5.6658

 eigenvalue-minimisations  :  2688
 total energy-change (2. order) :-0.6130017E-03  (-0.1036667E-03)
 number of electron     212.9999999 magnetization 
 augmentation part      -12.2410493 magnetization 

 Broyden mixing:
  rms(total) = 0.54621E-02    rms(broyden)= 0.54621E-02
  rms(prec ) = 0.63018E-02
  weight for this iteration     100.00

 eigenvalues of (default mixing * dielectric matrix)
  average eigenvalue GAMMA=   2.6459
  5.7403  4.7992  3.7711  1.9406  1.9406  1.0497  1.0497  0.8759

 Free energy of the ion-electron system (eV)
  ---------------------------------------------------
  alpha Z        PSCENC =        87.47481167
  Ewald energy   TEWEN  =     -5974.52528800
  -Hartree energ DENC   =      -435.01689802
  -exchange      EXHF   =         0.00000000
  -V(xc)+E(xc)   XCENC  =      -475.26083398
  PAW double counting   =     22614.76447199   -21688.17952079
  entropy T*S    EENTRO =        -0.01836412
  eigenvalues    EBANDS =       130.43076394
  atomic energy  EATOM  =      5462.52286525
  Solvation  Ediel_sol  =         0.00000000
  ---------------------------------------------------
  free energy    TOTEN  =      -277.80799207 eV

  energy without entropy =     -277.78962795  energy(sigma->0) =     -277.79881001


--------------------------------------------------------------------------------------------------------




--------------------------------------- Iteration      1(  14)  ---------------------------------------


    POTLOK:  cpu time    0.0698: real time    0.0711
    SETDIJ:  cpu time    0.1484: real time    0.1497
     EDDAV:  cpu time    4.3530: real time    4.4021
       DOS:  cpu time    0.5135: real time    0.5200
    CHARGE:  cpu time    0.2391: real time    0.2405
    MIXING:  cpu time    0.0194: real time    0.0196
    --------------------------------------------
      LOOP:  cpu time    5.3432: real time    5.4030

 eigenvalue-minimisations  :  2928
 total energy-change (2. order) :-0.2186036E-05  (-0.1353300E-04)
 number of electron     212.9999999 magnetization 
 augmentation part      -12.2404380 magnetization 

 Broyden mixing:
  rms(total) = 0.31474E-02    rms(broyden)= 0.31474E-02
  rms(prec ) = 0.35740E-02
  weight for this iteration     100.00

 eigenvalues of (default mixing * dielectric matrix)
  average eigenvalue GAMMA=   2.6004
  6.0612  4.9066  3.7658  2.4533  1.8872  1.3164  1.1237  0.9447  0.9447

 Free energy of the ion-electron system (eV)
  ---------------------------------------------------
  alpha Z        PSCENC =        87.47481167
  Ewald energy   TEWEN  =     -5974.52528800
  -Hartree energ DENC   =      -435.18084573
  -exchange      EXHF   =         0.00000000
  -V(xc)+E(xc)   XCENC  =      -475.24361556
  PAW double counting   =     22618.23483510   -21691.66726947
  entropy T*S    EENTRO =        -0.01836278
  eigenvalues    EBANDS =       130.59487528
  atomic energy  EATOM  =      5462.52286525
  Solvation  Ediel_sol  =         0.00000000
  ---------------------------------------------------
  free energy    TOTEN  =      -277.80799425 eV

  energy without entropy =     -277.78963147  energy(sigma->0) =     -277.79881286


--------------------------------------------------------------------------------------------------------




--------------------------------------- Iteration      1(  15)  ---------------------------------------


    POTLOK:  cpu time    0.1312: real time    0.1324
    SETDIJ:  cpu time    0.0878: real time    0.0883
     EDDAV:  cpu time   11.4258: real time   11.5683
       DOS:  cpu time    0.5222: real time    0.5298
    CHARGE:  cpu time    0.8146: real time    0.8241
    MIXING:  cpu time    0.3326: real time    0.3374
    --------------------------------------------
      LOOP:  cpu time   13.3143: real time   13.4803

 eigenvalue-minimisations  :  2736
 total energy-change (2. order) :-0.1177805E-04  (-0.4640551E-05)
 number of electron     212.9999999 magnetization 
 augmentation part      -12.2402051 magnetization 

 Broyden mixing:
  rms(total) = 0.17822E-02    rms(broyden)= 0.17822E-02
  rms(prec ) = 0.19788E-02
  weight for this iteration     100.00

 eigenvalues of (default mixing * dielectric matrix)
  average eigenvalue GAMMA=   2.4956
  5.9311  4.7617  3.2960  3.2960  1.7038  1.7038  1.3390  1.0229  1.0229  0.8784

 Free energy of the ion-electron system (eV)
  ---------------------------------------------------
  alpha Z        PSCENC =        87.47481167
  Ewald energy   TEWEN  =     -5974.52528800
  -Hartree energ DENC   =      -435.23893544
  -exchange      EXHF   =         0.00000000
  -V(xc)+E(xc)   XCENC  =      -475.23743543
  PAW double counting   =     22598.38390313   -21671.81762954
  entropy T*S    EENTRO =        -0.01837969
  eigenvalues    EBANDS =       130.64808201
  atomic energy  EATOM  =      5462.52286525
  Solvation  Ediel_sol  =         0.00000000
  ---------------------------------------------------
  free energy    TOTEN  =      -277.80800603 eV

  energy without entropy =     -277.78962635  energy(sigma->0) =     -277.79881619


--------------------------------------------------------------------------------------------------------




--------------------------------------- Iteration      1(  16)  ---------------------------------------


    POTLOK:  cpu time    0.5275: real time    0.5334
    SETDIJ:  cpu time    0.1304: real time    0.1322
     EDDAV:  cpu time    4.8296: real time    4.8813
       DOS:  cpu time    0.5164: real time    0.5237
    --------------------------------------------
      LOOP:  cpu time    6.0039: real time    6.0705

 eigenvalue-minimisations  :  2880
 total energy-change (2. order) : 0.1481476E-06  (-0.5427638E-06)
 number of electron     212.9999999 magnetization 
 augmentation part      -12.2402051 magnetization 

 Free energy of the ion-electron system (eV)
  ---------------------------------------------------
  alpha Z        PSCENC =        87.47481167
  Ewald energy   TEWEN  =     -5974.52528800
  -Hartree energ DENC   =      -435.24176844
  -exchange      EXHF   =         0.00000000
  -V(xc)+E(xc)   XCENC  =      -475.23740370
  PAW double counting   =     22605.42064783   -21678.85571840
  entropy T*S    EENTRO =        -0.01837999
  eigenvalues    EBANDS =       130.65222790
  atomic energy  EATOM  =      5462.52286525
  Solvation  Ediel_sol  =         0.00000000
  ---------------------------------------------------
  free energy    TOTEN  =      -277.80800588 eV

  energy without entropy =     -277.78962590  energy(sigma->0) =     -277.79881589


--------------------------------------------------------------------------------------------------------




 average (electrostatic) potential at core
  the test charge radii are     0.9892
  (the norm of the test charge is              1.0000)
       1 -83.4326       2 -83.4326       3 -83.4326       4 -83.5334       5 -83.4326
       6 -83.4326       7 -83.4326       8 -83.4943       9 -83.4326      10 -83.5334
      11 -83.4326      12 -83.5334      13 -83.5334      14 -83.5374      15 -83.4326
      16 -83.5374      17 -83.5374      18 -83.4326      19 -83.4326      20 -83.4943
      21 -83.4326      22 -83.5374      23 -83.5374      24 -83.4943      25 -83.5374
      26 -83.4943      27 -83.5320      28 -83.4820      29 -83.4820      30 -83.4820
      31 -83.3090      32 -83.4820      33 -83.4820      34 -83.4820      35 -83.5531
      36 -83.4820      37 -83.3090      38 -83.4820      39 -83.3090      40 -83.3090
      41 -83.5123      42 -83.4820      43 -83.5123      44 -83.5123      45 -83.4820
      46 -83.4820      47 -83.5531      48 -83.4820      49 -83.5123      50 -83.5123
      51 -83.5531      52 -83.5123      53 -83.5531
 
 
 
 E-fermi :   6.2808     XC(G=0):  -9.3626     alpha+bet :-11.7613


 k-point     1 :       0.0000    0.0000    0.0000
  band No.  band energies     occupation 
      1      -6.3139      2.00000
      2      -5.0196      2.00000
      3      -4.9889      2.00000
      4      -4.9889      2.00000
      5      -4.9889      2.00000
      6      -4.9442      2.00000
      7      -4.9442      2.00000
      8      -4.9442      2.00000
      9      -4.7834      2.00000
     10      -4.4509      2.00000
     11      -4.4509      2.00000
     12      -4.3976      2.00000
     13      -4.3976      2.00000
     14      -4.3976      2.00000
     15      -3.9793      2.00000
     16      -3.1245      2.00000
     17      -3.1245      2.00000
     18      -3.1245      2.00000
     19      -3.1134      2.00000
     20      -3.1134      2.00000
     21      -3.0673      2.00000
     22      -3.0673      2.00000
     23      -3.0673      2.00000
     24      -2.9518      2.00000
     25      -2.9518      2.00000
     26      -2.9518      2.00000
     27      -2.0616      2.00000
     28      -1.1928      2.00000
     29      -1.1928      2.00000
     30      -1.1928      2.00000
     31      -1.1746      2.00000
     32      -1.1746      2.00000
     33      -1.1369      2.00000
     34      -1.1369      2.00000
     35      -1.1369      2.00000
     36      -0.9857      2.00000
     37      -0.9857      2.00000
     38      -0.9857      2.00000
     39      -0.2405      2.00000
     40       0.2692      2.00000
     41       0.2861      2.00000
     42       0.2861      2.00000
     43       0.2861      2.00000
     44       0.3570      2.00000
     45       0.3570      2.00000
     46       0.3570      2.00000
     47       0.3881      2.00000
     48       0.6065      2.00000
     49       0.6065      2.00000
     50       0.7156      2.00000
     51       0.7156      2.00000
     52       0.7156      2.00000
     53       1.1302      2.00000
     54       1.1620      2.00000
     55       1.1620      2.00000
     56       1.1620      2.00000
     57       1.1727      2.00000
     58       1.1727      2.00000
     59       1.1727      2.00000
     60       1.2766      2.00000
     61       1.2766      2.00000
     62       1.6160      2.00000
     63       1.6160      2.00000
     64       1.6160      2.00000
     65       3.1765      2.00000
     66       3.1765      2.00000
     67       3.1765      2.00000
     68       3.2055      2.00000
     69       3.2055      2.00000
     70       3.2055      2.00000
     71       3.2068      2.00000
     72       3.2068      2.00000
     73       3.2068      2.00000
     74       3.2757      2.00000
     75       3.2757      2.00000
     76       3.2757      2.00000
     77       3.4927      2.00000
     78       3.4927      2.00000
     79       3.4927      2.00000
     80       3.5005      2.00000
     81       3.5230      2.00000
     82       3.5230      2.00000
     83       3.5418      2.00000
     84       3.5418      2.00000
     85       3.5418      2.00000
     86       3.7600      2.00000
     87       3.9763      2.00000
     88       3.9763      2.00000
     89       3.9763      2.00000
     90       4.5823      2.00000
     91       4.5823      2.00000
     92       4.5829      2.00000
     93       4.5829      2.00000
     94       4.5829      2.00000
     95       4.5962      2.00000
     96       4.5962      2.00000
     97       4.5962      2.00000
     98       4.6576      2.00000
     99       4.6576      2.00000
    100       4.6621      2.00000
    101       4.6621      2.00000
    102       4.6621      2.00000
    103       5.3867      2.00000
    104       5.3867      2.00000
    105       5.3867      2.00000
    106       6.3413      0.08736
    107       6.3413      0.08736
    108       6.3413      0.08736
    109       6.3615      0.02245
    110       6.3615      0.02245
    111       6.4263      0.00004
    112       6.7426      0.00000
    113       6.7426      0.00000
    114       6.7426      0.00000
    115       7.1654      0.00000
    116       7.1654      0.00000
    117       7.1654      0.00000
    118       7.1776      0.00000
    119       7.1776      0.00000
    120       7.1776      0.00000
    121       7.1896      0.00000
    122       7.2621      0.00000
    123       7.2621      0.00000
    124       7.2645      0.00000
    125       7.2645      0.00000
    126       7.2645      0.00000
    127       7.3669      0.00000
    128       7.3885      0.00000
    129       7.3885      0.00000
    130       7.3885      0.00000
    131       7.5160      0.00000
    132       7.5160      0.00000
    133       7.5160      0.00000
    134       7.5589      0.00000
    135       7.7587      0.00000
    136       7.7587      0.00000
    137       7.8118      0.00000
    138       7.8118      0.00000
    139       7.8118      0.00000
    140       8.3193      0.00000
    141       8.3193      0.00000
    142       8.3193      0.00000
    143       8.6409      0.00000
    144       9.0908      0.00000

 k-point     2 :       0.2500    0.0000    0.0000
  band No.  band energies     occupation 
      1      -6.2260      2.00000
      2      -5.5225      2.00000
      3      -5.0932      2.00000
      4      -5.0932      2.00000
      5      -5.0663      2.00000
      6      -4.8233      2.00000
      7      -4.8233      2.00000
      8      -4.7643      2.00000
      9      -4.6596      2.00000
     10      -4.6596      2.00000
     11      -4.4683      2.00000
     12      -4.2839      2.00000
     13      -3.8974      2.00000
     14      -3.8974      2.00000
     15      -3.7571      2.00000
     16      -3.6669      2.00000
     17      -3.6669      2.00000
     18      -3.4763      2.00000
     19      -3.1102      2.00000
     20      -3.1102      2.00000
     21      -3.0622      2.00000
     22      -3.0096      2.00000
     23      -3.0096      2.00000
     24      -2.8240      2.00000
     25      -2.7796      2.00000
     26      -2.7796      2.00000
     27      -2.0769      2.00000
     28      -1.4262      2.00000
     29      -1.4262      2.00000
     30      -1.2858      2.00000
     31      -1.2162      2.00000
     32      -1.2162      2.00000
     33      -1.1758      2.00000
     34      -1.1063      2.00000
     35      -1.1063      2.00000
     36      -0.8833      2.00000
     37      -0.7526      2.00000
     38      -0.6341      2.00000
     39      -0.6341      2.00000
     40      -0.3216      2.00000
     41      -0.1707      2.00000
     42      -0.1707      2.00000
     43      -0.1512      2.00000
     44       0.0064      2.00000
     45       0.0064      2.00000
     46       0.6163      2.00000
     47       0.8000      2.00000
     48       0.8000      2.00000
     49       1.0048      2.00000
     50       1.2175      2.00000
     51       1.2175      2.00000
     52       1.3135      2.00000
     53       1.3365      2.00000
     54       1.3582      2.00000
     55       1.3582      2.00000
     56       1.4059      2.00000
     57       1.4059      2.00000
     58       1.4313      2.00000
     59       1.5835      2.00000
     60       1.5835      2.00000
     61       1.6135      2.00000
     62       1.8146      2.00000
     63       1.8146      2.00000
     64       1.8522      2.00000
     65       2.7352      2.00000
     66       2.7352      2.00000
     67       2.7589      2.00000
     68       3.0481      2.00000
     69       3.0800      2.00000
     70       3.0800      2.00000
     71       3.1577      2.00000
     72       3.1749      2.00000
     73       3.1749      2.00000
     74       3.1885      2.00000
     75       3.2001      2.00000
     76       3.2001      2.00000
     77       3.2232      2.00000
     78       3.2631      2.00000
     79       3.2631      2.00000
     80       3.3929      2.00000
     81       3.3929      2.00000
     82       3.4461      2.00000
     83       3.4877      2.00000
     84       3.6444      2.00000
     85       3.6444      2.00000
     86       3.7889      2.00000
     87       3.7889      2.00000
     88       3.9006      2.00000
     89       4.0199      2.00000
     90       4.0502      2.00000
     91       4.0502      2.00000
     92       4.1681      2.00000
     93       4.3042      2.00000
     94       4.3383      2.00000
     95       4.3383      2.00000
     96       4.3987      2.00000
     97       4.3987      2.00000
     98       4.5335      2.00000
     99       4.5335      2.00000
    100       4.6345      2.00000
    101       4.6472      2.00000
    102       4.7965      2.00000
    103       4.7965      2.00000
    104       5.2828      2.00000
    105       5.2828      2.00000
    106       6.0774      2.00000
    107       6.4413      0.00001
    108       6.4413      0.00001
    109       6.5819      0.00000
    110       6.6685      0.00000
    111       6.6685      0.00000
    112       6.8264      0.00000
    113       6.8264      0.00000
    114       6.8590      0.00000
    115       6.9903      0.00000
    116       7.0259      0.00000
    117       7.0259      0.00000
    118       7.3276      0.00000
    119       7.4913      0.00000
    120       7.4954      0.00000
    121       7.4954      0.00000
    122       7.6225      0.00000
    123       7.6849      0.00000
    124       7.6849      0.00000
    125       7.7361      0.00000
    126       7.7483      0.00000
    127       7.7670      0.00000
    128       7.7670      0.00000
    129       7.8146      0.00000
    130       7.8146      0.00000
    131       7.8803      0.00000
    132       7.8984      0.00000
    133       7.9104      0.00000
    134       7.9104      0.00000
    135       8.0777      0.00000
    136       8.0777      0.00000
    137       8.2626      0.00000
    138       8.4399      0.00000
    139       8.4399      0.00000
    140       8.4501      0.00000
    141       8.5843      0.00000
    142       8.5843      0.00000
    143       8.9270      0.00000
    144       8.9275      0.00000

 k-point     3 :       0.5000    0.0000    0.0000
  band No.  band energies     occupation 
      1      -6.0135      2.00000
      2      -5.8977      2.00000
      3      -5.1001      2.00000
      4      -5.0820      2.00000
      5      -5.0820      2.00000
      6      -4.9962      2.00000
      7      -4.9962      2.00000
      8      -4.7978      2.00000
      9      -4.2522      2.00000
     10      -4.2522      2.00000
     11      -4.2163      2.00000
     12      -4.2100      2.00000
     13      -4.2100      2.00000
     14      -4.0668      2.00000
     15      -3.8666      2.00000
     16      -3.2872      2.00000
     17      -3.2872      2.00000
     18      -3.2771      2.00000
     19      -3.2520      2.00000
     20      -3.2520      2.00000
     21      -3.1053      2.00000
     22      -3.1053      2.00000
     23      -3.0675      2.00000
     24      -3.0570      2.00000
     25      -2.9767      2.00000
     26      -2.9767      2.00000
     27      -2.0842      2.00000
     28      -1.3259      2.00000
     29      -1.2491      2.00000
     30      -1.2491      2.00000
     31      -1.2128      2.00000
     32      -1.1642      2.00000
     33      -1.1642      2.00000
     34      -1.0809      2.00000
     35      -0.9503      2.00000
     36      -0.9503      2.00000
     37      -0.8933      2.00000
     38      -0.8933      2.00000
     39      -0.8017      2.00000
     40      -0.5824      2.00000
     41      -0.3900      2.00000
     42      -0.3900      2.00000
     43      -0.3275      2.00000
     44      -0.2232      2.00000
     45      -0.2232      2.00000
     46       0.7628      2.00000
     47       1.1443      2.00000
     48       1.1739      2.00000
     49       1.1739      2.00000
     50       1.2735      2.00000
     51       1.2735      2.00000
     52       1.5227      2.00000
     53       1.5602      2.00000
     54       1.6022      2.00000
     55       1.6022      2.00000
     56       1.8048      2.00000
     57       1.8048      2.00000
     58       1.9622      2.00000
     59       1.9911      2.00000
     60       1.9911      2.00000
     61       2.0329      2.00000
     62       2.1588      2.00000
     63       2.1588      2.00000
     64       2.4597      2.00000
     65       2.5684      2.00000
     66       2.5684      2.00000
     67       2.5916      2.00000
     68       2.5916      2.00000
     69       2.6422      2.00000
     70       2.8465      2.00000
     71       2.8465      2.00000
     72       2.8575      2.00000
     73       2.9238      2.00000
     74       2.9238      2.00000
     75       3.0043      2.00000
     76       3.0265      2.00000
     77       3.0351      2.00000
     78       3.0351      2.00000
     79       3.0993      2.00000
     80       3.1650      2.00000
     81       3.3051      2.00000
     82       3.3051      2.00000
     83       3.3705      2.00000
     84       3.4464      2.00000
     85       3.6005      2.00000
     86       3.6005      2.00000
     87       3.7058      2.00000
     88       3.7058      2.00000
     89       3.8605      2.00000
     90       3.8810      2.00000
     91       3.8984      2.00000
     92       3.8984      2.00000
     93       4.0273      2.00000
     94       4.0273      2.00000
     95       4.3003      2.00000
     96       4.3201      2.00000
     97       4.3201      2.00000
     98       4.3598      2.00000
     99       4.4037      2.00000
    100       4.4037      2.00000
    101       4.5904      2.00000
    102       4.8922      2.00000
    103       4.8922      2.00000
    104       5.1583      2.00000
    105       5.1583      2.00000
    106       5.4958      2.00000
    107       6.4639      0.00000
    108       6.4639      0.00000
    109       6.6374      0.00000
    110       6.6374      0.00000
    111       6.6518      0.00000
    112       6.8249      0.00000
    113       6.9171      0.00000
    114       6.9171      0.00000
    115       7.2803      0.00000
    116       7.5811      0.00000
    117       7.5811      0.00000
    118       7.6066      0.00000
    119       7.6486      0.00000
    120       7.6486      0.00000
    121       7.7177      0.00000
    122       7.9658      0.00000
    123       8.0066      0.00000
    124       8.0673      0.00000
    125       8.0673      0.00000
    126       8.0790      0.00000
    127       8.2574      0.00000
    128       8.2574      0.00000
    129       8.3441      0.00000
    130       8.3551      0.00000
    131       8.3551      0.00000
    132       8.3987      0.00000
    133       8.3987      0.00000
    134       8.4243      0.00000
    135       8.8243      0.00000
    136       8.8243      0.00000
    137       8.8768      0.00000
    138       8.8768      0.00000
    139       8.9404      0.00000
    140       8.9423      0.00000
    141       8.9905      0.00000
    142       8.9909      0.00000
    143       9.0580      0.00000
    144       9.0632      0.00000

 k-point     4 :       0.2500    0.2500    0.0000
  band No.  band energies     occupation 
      1      -6.1963      2.00000
      2      -5.3183      2.00000
      3      -5.3117      2.00000
      4      -5.2823      2.00000
      5      -5.2823      2.00000
      6      -5.0390      2.00000
      7      -4.4884      2.00000
      8      -4.4804      2.00000
      9      -4.4804      2.00000
     10      -4.4480      2.00000
     11      -4.3525      2.00000
     12      -4.2909      2.00000
     13      -4.2909      2.00000
     14      -4.0172      2.00000
     15      -3.6239      2.00000
     16      -3.5838      2.00000
     17      -3.5838      2.00000
     18      -3.5184      2.00000
     19      -3.3932      2.00000
     20      -3.2783      2.00000
     21      -3.2783      2.00000
     22      -3.2452      2.00000
     23      -2.8417      2.00000
     24      -2.5574      2.00000
     25      -2.5071      2.00000
     26      -2.5071      2.00000
     27      -2.0604      2.00000
     28      -1.6412      2.00000
     29      -1.5885      2.00000
     30      -1.5885      2.00000
     31      -1.3882      2.00000
     32      -1.1486      2.00000
     33      -1.1486      2.00000
     34      -1.1353      2.00000
     35      -0.9779      2.00000
     36      -0.7631      2.00000
     37      -0.6025      2.00000
     38      -0.5595      2.00000
     39      -0.5595      2.00000
     40      -0.4850      2.00000
     41      -0.3950      2.00000
     42      -0.3752      2.00000
     43      -0.3752      2.00000
     44       0.1293      2.00000
     45       0.4310      2.00000
     46       0.5195      2.00000
     47       0.5195      2.00000
     48       1.0495      2.00000
     49       1.2109      2.00000
     50       1.2449      2.00000
     51       1.2449      2.00000
     52       1.3542      2.00000
     53       1.3684      2.00000
     54       1.3684      2.00000
     55       1.3722      2.00000
     56       1.5031      2.00000
     57       1.5480      2.00000
     58       1.5600      2.00000
     59       1.5600      2.00000
     60       1.7391      2.00000
     61       1.8391      2.00000
     62       1.9149      2.00000
     63       1.9149      2.00000
     64       2.0097      2.00000
     65       2.7608      2.00000
     66       2.7697      2.00000
     67       2.7697      2.00000
     68       2.7847      2.00000
     69       2.8600      2.00000
     70       2.8633      2.00000
     71       2.8633      2.00000
     72       2.9789      2.00000
     73       3.0009      2.00000
     74       3.0009      2.00000
     75       3.2117      2.00000
     76       3.2421      2.00000
     77       3.2678      2.00000
     78       3.2678      2.00000
     79       3.5536      2.00000
     80       3.5649      2.00000
     81       3.5649      2.00000
     82       3.5911      2.00000
     83       3.5985      2.00000
     84       3.6155      2.00000
     85       3.6422      2.00000
     86       3.6422      2.00000
     87       3.8928      2.00000
     88       3.8928      2.00000
     89       3.9109      2.00000
     90       3.9412      2.00000
     91       3.9609      2.00000
     92       3.9609      2.00000
     93       4.0636      2.00000
     94       4.1197      2.00000
     95       4.1197      2.00000
     96       4.2118      2.00000
     97       4.2176      2.00000
[...]
   25        0.752   0.946   0.000   1.698
   26        0.752   0.945   0.000   1.697
   27        0.752   0.945   0.000   1.697
   28        0.753   0.944   0.000   1.698
   29        0.753   0.944   0.000   1.698
   30        0.753   0.946   0.000   1.699
   31        0.807   0.929   0.000   1.736
   32        0.753   0.945   0.000   1.699
   33        0.753   0.945   0.000   1.698
   34        0.753   0.945   0.000   1.698
   35        0.753   0.946   0.000   1.699
   36        0.753   0.945   0.000   1.697
   37        0.797   0.865   0.000   1.661
   38        0.753   0.945   0.000   1.697
   39        0.785   0.808   0.000   1.593
   40        0.785   0.808   0.000   1.593
   41        0.759   0.910   0.000   1.669
   42        0.752   0.943   0.000   1.695
   43        0.759   0.931   0.000   1.689
   44        0.758   0.930   0.000   1.688
   45        0.753   0.945   0.000   1.697
   46        0.753   0.945   0.000   1.698
   47        0.752   0.946   0.000   1.698
   48        0.752   0.943   0.000   1.696
   49        0.760   0.941   0.000   1.700
   50        0.760   0.942   0.000   1.701
   51        0.752   0.945   0.000   1.697
   52        0.760   0.942   0.000   1.702
   53        0.752   0.945   0.000   1.697
--------------------------------------------------
tot         40.118  49.531   0.000  89.649
 
    CHARGE:  cpu time    0.4989: real time    0.5044
    FORLOC:  cpu time    0.0471: real time    0.0474
    FORNL :  cpu time    1.5057: real time    1.5187
    STRESS:  cpu time    5.4345: real time    5.4808
    FORCOR:  cpu time    0.1473: real time    0.1490
    FORHAR:  cpu time    0.2089: real time    0.2113
    MIXING:  cpu time    0.3341: real time    0.3386
    OFIELD:  cpu time    0.0001: real time    0.0005

  FORCE on cell =-STRESS in cart. coord.  units (eV):
  Direction    XX          YY          ZZ          XY          YZ          ZX
  --------------------------------------------------------------------------------------
  Alpha Z    87.47481    87.47481    87.47481
  Ewald   -1991.52010 -1991.52010 -1991.52010    -0.00000     0.00000     0.00000
  Hartree   145.09400   145.09400   145.09400    -0.00000    -0.00000    -0.00000
  E(xc)    -673.19408  -673.19408  -673.19410    -0.00001    -0.00001    -0.00001
  Local    -810.60293  -810.60303  -810.60254     0.00014     0.00024     0.00034
  n-local  2056.29715  2069.97869  2078.86730    -2.04381    -0.89376     0.63201
  augment  -310.92118  -310.92110  -310.92154    -0.00012    -0.00022    -0.00031
  Kinetic  1487.73893  1506.51771  1518.81978    -2.52518    -1.13152     0.80011
  Fock        0.00000     0.00000     0.00000     0.00000     0.00000     0.00000
  -------------------------------------------------------------------------------------
  Total      19.07037    19.07037    19.07037    -0.00000     0.00000    -0.00000
  in kB      28.26484    28.26484    28.26484    -0.00000     0.00000    -0.00000
  external pressure =       28.26 kB  Pullay stress =        0.00 kB


 VOLUME and BASIS-vectors are now :
 -----------------------------------------------------------------------------
  energy-cutoff  :      550.00
  volume of cell :     1080.99
      direct lattice vectors                 reciprocal lattice vectors
     9.976465530  0.000000000  5.759915070     0.100235900 -0.035438742  0.000000000
     3.325488510  9.405901920  5.759915070     0.000000000  0.106316227  0.000000000
     0.000000000  0.000000000 11.519830140    -0.050117950 -0.035438742  0.086806836

  length of vectors
    11.519830124 11.519830136 11.519830140     0.106316227  0.106316227  0.106316227


 FORCES acting on ions
    electron-ion (+dipol)            ewald-force                    non-local-force                 convergence-correction
 -----------------------------------------------------------------------------------------------
   0.588E+00 0.416E+00 0.118E+02   0.119E-06 -.632E-07 -.119E+02   -.465E+00 -.329E+00 -.116E+00   -.174E-03 -.123E-03 -.248E-02
   0.588E+00 0.416E+00 -.118E+02   0.119E-06 -.632E-07 0.119E+02   -.465E+00 -.329E+00 0.116E+00   -.174E-03 -.123E-03 0.248E-02
   0.370E+01 0.921E+01 0.641E+01   -.345E+01 -.974E+01 -.597E+01   -.266E+00 0.234E+00 -.461E+00   -.804E-03 -.191E-02 -.139E-02
   -.151E+00 0.534E-01 0.183E-05   0.286E+00 -.101E+00 0.573E-12   -.104E+00 0.367E-01 0.295E-16   0.120E-03 -.425E-04 -.991E-08
   0.370E+01 0.921E+01 -.641E+01   -.345E+01 -.974E+01 0.597E+01   -.266E+00 0.234E+00 0.461E+00   -.804E-03 -.191E-02 0.139E-02
   -.311E+01 -.100E+02 -.539E+01   0.345E+01 0.974E+01 0.597E+01   -.199E+00 0.424E+00 -.345E+00   0.630E-03 0.215E-02 0.109E-02
   -.311E+01 -.100E+02 0.539E+01   0.345E+01 0.974E+01 -.597E+01   -.199E+00 0.424E+00 0.345E+00   0.630E-03 0.215E-02 -.109E-02
   0.454E+00 -.160E+00 0.417E-06   -.286E+00 0.101E+00 -.436E-11   -.105E+00 0.372E-01 -.416E-16   0.558E-03 -.197E-03 -.269E-07
   0.992E+01 0.416E+00 0.641E+01   -.103E+02 -.640E-07 -.597E+01   0.132E+00 -.329E+00 -.461E+00   -.206E-02 -.123E-03 -.139E-02
   0.969E-06 -.160E+00 0.183E-05   0.137E-06 0.303E+00 0.558E-12   0.000E+00 -.110E+00 0.226E-16   -.581E-08 0.127E-03 -.991E-08
   0.992E+01 0.416E+00 -.641E+01   -.103E+02 -.640E-07 0.597E+01   0.132E+00 -.329E+00 0.461E+00   -.206E-02 -.123E-03 0.139E-02
   0.756E-01 0.534E-01 -.131E+00   -.143E+00 -.101E+00 0.248E+00   0.519E-01 0.367E-01 -.900E-01   -.601E-04 -.425E-04 0.104E-03
   0.756E-01 0.534E-01 0.131E+00   -.143E+00 -.101E+00 -.248E+00   0.519E-01 0.367E-01 0.900E-01   -.601E-04 -.425E-04 -.104E-03
   0.340E+01 0.241E+01 0.280E-06   -.347E+01 -.246E+01 0.270E-12   0.451E-01 0.319E-01 -.347E-17   -.149E-04 -.105E-04 -.269E-07
   0.622E+01 -.100E+02 -.146E-05   -.689E+01 0.974E+01 0.411E-11   0.398E+00 0.424E+00 0.555E-16   -.126E-02 0.215E-02 0.369E-07
   0.170E+01 -.241E+01 0.295E+01   -.174E+01 0.246E+01 -.301E+01   0.225E-01 -.319E-01 0.390E-01   -.746E-05 0.105E-04 -.129E-04
   0.170E+01 -.241E+01 -.295E+01   -.174E+01 0.246E+01 0.301E+01   0.225E-01 -.319E-01 -.390E-01   -.745E-05 0.105E-04 0.129E-04
   -.105E+02 0.416E+00 -.539E+01   0.103E+02 -.624E-07 0.597E+01   0.333E+00 -.329E+00 -.345E+00   0.224E-02 -.123E-03 0.109E-02
   -.105E+02 0.416E+00 0.539E+01   0.103E+02 -.624E-07 -.597E+01   0.333E+00 -.329E+00 0.345E+00   0.224E-02 -.123E-03 -.109E-02
   0.189E-06 0.481E+00 0.417E-06   0.101E-06 -.303E+00 -.438E-11   0.000E+00 -.112E+00 -.382E-16   -.154E-07 0.591E-03 -.269E-07
   -.740E+01 0.921E+01 -.146E-05   0.689E+01 -.974E+01 0.411E-11   0.533E+00 0.234E+00 -.694E-17   0.161E-02 -.191E-02 0.369E-07
   -.170E+01 0.241E+01 0.295E+01   0.174E+01 -.246E+01 -.301E+01   -.225E-01 0.319E-01 0.390E-01   0.743E-05 -.105E-04 -.129E-04
   -.170E+01 0.241E+01 -.295E+01   0.174E+01 -.246E+01 0.301E+01   -.225E-01 0.319E-01 -.390E-01   0.744E-05 -.105E-04 0.129E-04
   -.227E+00 -.160E+00 0.393E+00   0.143E+00 0.101E+00 -.248E+00   0.526E-01 0.372E-01 -.911E-01   -.279E-03 -.197E-03 0.483E-03
   -.340E+01 -.241E+01 0.118E-05   0.347E+01 0.246E+01 -.107E-10   -.451E-01 -.319E-01 -.347E-16   0.149E-04 0.105E-04 -.997E-08
   -.227E+00 -.160E+00 -.393E+00   0.143E+00 0.101E+00 0.248E+00   0.526E-01 0.372E-01 0.911E-01   -.279E-03 -.197E-03 -.483E-03
   0.600E-06 0.324E-06 0.899E-06   -.132E-06 0.702E-07 0.105E-10   -.434E-17 -.104E-16 -.555E-16   -.504E-08 -.364E-08 -.883E-08
   -.555E+01 -.392E+01 -.307E+01   0.569E+01 0.403E+01 0.287E+01   -.120E+00 -.848E-01 0.149E+00   0.131E-03 0.929E-04 0.246E-03
   -.555E+01 -.392E+01 0.307E+01   0.569E+01 0.403E+01 -.287E+01   -.120E+00 -.848E-01 -.149E+00   0.131E-03 0.929E-04 -.246E-03
   -.366E+01 0.142E+01 -.634E+01   0.367E+01 -.168E+01 0.637E+01   -.171E-01 0.206E+00 -.296E-01   0.137E-03 0.108E-03 0.237E-03
   -.377E+02 0.133E+02 -.227E-05   0.373E+02 -.132E+02 0.255E-11   0.862E+00 -.305E+00 0.128E-15   0.255E-02 -.902E-03 0.406E-07
   -.366E+01 0.142E+01 0.634E+01   0.367E+01 -.168E+01 -.637E+01   -.171E-01 0.206E+00 0.296E-01   0.137E-03 0.108E-03 -.237E-03
   -.189E+01 0.643E+01 -.327E+01   0.202E+01 -.637E+01 0.349E+01   -.103E+00 -.365E-01 -.178E+00   -.541E-05 -.294E-03 -.936E-05
   -.189E+01 0.643E+01 0.327E+01   0.202E+01 -.637E+01 -.349E+01   -.103E+00 -.365E-01 0.178E+00   -.543E-05 -.294E-03 0.939E-05
   -.139E+01 0.491E+00 -.763E-07   0.134E+01 -.472E+00 -.441E-11   0.287E-01 -.101E-01 0.243E-16   -.981E-03 0.347E-03 -.251E-07
   0.115E+00 -.392E+01 -.634E+01   -.359E+00 0.403E+01 0.637E+01   0.189E+00 -.848E-01 -.296E-01   0.148E-03 0.929E-04 0.237E-03
   -.126E-05 -.399E+02 -.227E-05   -.117E-06 0.395E+02 0.252E-11   0.000E+00 0.914E+00 0.694E-16   0.234E-07 0.271E-02 0.406E-07
   0.115E+00 -.392E+01 0.634E+01   -.359E+00 0.403E+01 -.637E+01   0.189E+00 -.848E-01 0.296E-01   0.148E-03 0.929E-04 -.237E-03
   0.188E+02 0.133E+02 -.326E+02   -.186E+02 -.132E+02 0.323E+02   -.431E+00 -.305E+00 0.746E+00   -.128E-02 -.902E-03 0.221E-02
   0.188E+02 0.133E+02 0.326E+02   -.186E+02 -.132E+02 -.323E+02   -.431E+00 -.305E+00 -.746E+00   -.128E-02 -.902E-03 -.221E-02
   0.293E+00 0.207E+00 -.727E-07   -.860E+00 -.608E+00 -.877E-11   0.509E+00 0.360E+00 0.177E-15   0.396E-03 0.280E-03 -.245E-07
   0.377E+01 0.643E+01 0.158E-05   -.403E+01 -.637E+01 -.712E-12   0.206E+00 -.365E-01 0.694E-17   0.108E-04 -.294E-03 -.905E-08
   0.146E+00 -.207E+00 0.254E+00   -.430E+00 0.608E+00 -.745E+00   0.254E+00 -.360E+00 0.441E+00   0.198E-03 -.280E-03 0.343E-03
   0.146E+00 -.207E+00 -.254E+00   -.430E+00 0.608E+00 0.745E+00   0.254E+00 -.360E+00 -.441E+00   0.198E-03 -.280E-03 -.343E-03
   0.543E+01 -.392E+01 -.327E+01   -.533E+01 0.403E+01 0.349E+01   -.687E-01 -.848E-01 -.178E+00   -.279E-03 0.929E-04 -.936E-05
   0.543E+01 -.392E+01 0.327E+01   -.533E+01 0.403E+01 -.349E+01   -.687E-01 -.848E-01 0.178E+00   -.279E-03 0.929E-04 0.939E-05
   0.152E-07 -.147E+01 -.763E-07   -.108E-06 0.142E+01 -.443E-11   -.520E-17 0.304E-01 0.191E-16   -.145E-07 -.104E-02 -.251E-07
   0.732E+01 0.142E+01 0.158E-05   -.735E+01 -.168E+01 -.709E-12   0.342E-01 0.206E+00 -.347E-17   -.274E-03 0.108E-03 -.905E-08
   -.146E+00 0.207E+00 0.254E+00   0.430E+00 -.608E+00 -.745E+00   -.254E+00 0.360E+00 0.441E+00   -.198E-03 0.280E-03 0.343E-03
   -.146E+00 0.207E+00 -.254E+00   0.430E+00 -.608E+00 0.745E+00   -.254E+00 0.360E+00 -.441E+00   -.198E-03 0.280E-03 -.343E-03
   0.695E+00 0.491E+00 -.120E+01   -.668E+00 -.472E+00 0.116E+01   -.143E-01 -.101E-01 0.248E-01   0.491E-03 0.347E-03 -.850E-03
   -.293E+00 -.207E+00 -.192E-05   0.860E+00 0.608E+00 -.769E-12   -.509E+00 -.360E+00 0.128E-15   -.396E-03 -.280E-03 0.354E-07
   0.695E+00 0.491E+00 0.120E+01   -.668E+00 -.472E+00 -.116E+01   -.143E-01 -.101E-01 -.248E-01   0.491E-03 0.347E-03 0.850E-03
 -----------------------------------------------------------------------------------------------
   0.118E-05 0.831E-06 0.205E-05   -.788E-14 0.172E-13 0.777E-14   0.126E-14 -.312E-16 0.749E-15   -.214E-07 -.152E-07 -.371E-07
 
 
 POSITION                                       TOTAL-FORCE (eV/Angst)
 -----------------------------------------------------------------------------------
      3.87974      2.74339     10.55984         0.122621      0.086706     -0.258241
      3.87974      2.74339     14.39979         0.122621      0.086706      0.258241
      4.98823      5.87869      8.63987        -0.013237     -0.297559     -0.022928
      4.98823      5.87869     12.47982         0.031057     -0.010980     -0.000000
      4.98823      5.87869     16.31976        -0.013237     -0.297559      0.022928
      6.09673      9.01399     10.55984         0.135858      0.124147      0.235314
      6.09673      9.01399     14.39979         0.135858      0.124147     -0.235314
      6.09673      9.01399     18.23973         0.063078     -0.022301     -0.000000
      7.20523      2.74339      8.63987        -0.284954      0.086706     -0.022928
      7.20523      2.74339     12.47982        -0.000000      0.032941     -0.000000
      7.20523      2.74339     16.31976        -0.284954      0.086706      0.022928
      8.31372      5.87869     10.55984        -0.015529     -0.010980      0.026896
      8.31372      5.87869     14.39979        -0.015529     -0.010980     -0.026896
      8.31372      5.87869     18.23973        -0.023213     -0.016414     -0.000000
      9.42222      9.01399     12.47982        -0.271717      0.124147     -0.000000
      9.42222      9.01399     16.31976        -0.011607      0.016414     -0.020103
      9.42222      9.01399     20.15970        -0.011607      0.016414      0.020103
     10.53071      2.74339     10.55984         0.162333      0.086706      0.235314
     10.53071      2.74339     14.39979         0.162333      0.086706     -0.235314
     10.53071      2.74339     18.23973        -0.000000      0.066904     -0.000000
     11.63921      5.87869     12.47982         0.026475     -0.297559     -0.000000
     11.63921      5.87869     16.31976         0.011607     -0.016414     -0.020103
     11.63921      5.87869     20.15970         0.011607     -0.016414      0.020103
     12.74771      9.01399     14.39979        -0.031539     -0.022301      0.054627
     12.74771      9.01399     18.23973         0.023213      0.016414     -0.000000
     12.74771      9.01399     22.07967        -0.031539     -0.022301     -0.054627
      0.55425      0.39191      0.95999        -0.000000      0.000000     -0.000000
      0.55425      0.39191      4.79993         0.024771      0.017516     -0.050166
      0.55425      0.39191      8.63987         0.024771      0.017516      0.050166
      1.66274      3.52721      2.87996        -0.002096     -0.058477     -0.003631
      1.66274      3.52721      6.71990         0.483611     -0.170982     -0.000000
      1.66274      3.52721     10.55984        -0.002096     -0.058477      0.003631
      2.77124      6.66251      4.79993         0.026868      0.023445      0.046536
      2.77124      6.66251      8.63987         0.026868      0.023445     -0.046536
      2.77124      6.66251     12.47982        -0.026409      0.009337     -0.000000
      3.87974      0.39191      2.87996        -0.055831      0.017516     -0.003631
      3.87974      0.39191      6.71990        -0.000000      0.512947     -0.000000
      3.87974      0.39191     10.55984        -0.055831      0.017516      0.003631
      4.98823      3.52721      4.79993        -0.241806     -0.170982      0.418820
      4.98823      3.52721      8.63987        -0.241806     -0.170982     -0.418820
      4.98823      3.52721     12.47982        -0.058331     -0.041247     -0.000000
      6.09673      6.66251      6.71990        -0.053735      0.023445     -0.000000
      6.09673      6.66251     10.55984        -0.029166      0.041247     -0.050517
      6.09673      6.66251     14.39979        -0.029166      0.041247      0.050517
      7.20523      0.39191      4.79993         0.031060      0.017516      0.046536
      7.20523      0.39191      8.63987         0.031060      0.017516     -0.046536
      7.20523      0.39191     12.47982        -0.000000     -0.028011     -0.000000
      8.31372      3.52721      6.71990         0.004192     -0.058477     -0.000000
      8.31372      3.52721     10.55984         0.029166     -0.041247     -0.050517
      8.31372      3.52721     14.39979         0.029166     -0.041247      0.050517
      9.42222      6.66251      8.63987         0.013205      0.009337     -0.022871
      9.42222      6.66251     12.47982         0.058331      0.041247     -0.000000
      9.42222      6.66251     16.31976         0.013205      0.009337      0.022871
 -----------------------------------------------------------------------------------
    total drift:                                0.000001      0.000001      0.000002


--------------------------------------------------------------------------------------------------------



  FREE ENERGIE OF THE ION-ELECTRON SYSTEM (eV)
  ---------------------------------------------------
  free  energy   TOTEN  =      -277.80800588 eV

  energy  without entropy=     -277.78962590  energy(sigma->0) =     -277.79881589
 


--------------------------------------------------------------------------------------------------------


    POTLOK:  cpu time    0.0871: real time    0.0878


--------------------------------------------------------------------------------------------------------


 writing wavefunctions
     LOOP+:  cpu time  106.5870: real time  108.0519
    4ORBIT:  cpu time    0.0000: real time    0.0000
 


 total charge     
 
# of ion       s       p       d       tot
------------------------------------------
    1        0.755   0.911   0.000   1.665
    2        0.755   0.911   0.000   1.665
    3        0.755   0.937   0.000   1.692
    4        0.752   0.945   0.000   1.698
    5        0.755   0.936   0.000   1.691
    6        0.755   0.935   0.000   1.690
    7        0.755   0.934   0.000   1.689
    8        0.753   0.944   0.000   1.697
    9        0.756   0.947   0.000   1.703
   10        0.753   0.946   0.000   1.698
   11        0.756   0.949   0.000   1.705
   12        0.753   0.946   0.000   1.698
   13        0.753   0.946   0.000   1.698
   14        0.753   0.946   0.000   1.698
   15        0.757   0.940   0.000   1.697
   16        0.752   0.945   0.000   1.697
   17        0.752   0.945   0.000   1.697
   18        0.754   0.945   0.000   1.699
   19        0.754   0.946   0.000   1.700
   20        0.753   0.945   0.000   1.698
   21        0.755   0.939   0.000   1.694
   22        0.752   0.945   0.000   1.697
   23        0.752   0.945   0.000   1.697
   24        0.752   0.945   0.000   1.697
   25        0.752   0.946   0.000   1.698
   26        0.752   0.945   0.000   1.697
   27        0.752   0.945   0.000   1.697
   28        0.753   0.944   0.000   1.698
   29        0.753   0.944   0.000   1.698
   30        0.753   0.946   0.000   1.699
   31        0.807   0.929   0.000   1.736
   32        0.753   0.945   0.000   1.699
   33        0.753   0.945   0.000   1.698
   34        0.753   0.945   0.000   1.698
   35        0.753   0.946   0.000   1.699
   36        0.753   0.945   0.000   1.697
   37        0.797   0.865   0.000   1.661
   38        0.753   0.945   0.000   1.697
   39        0.785   0.808   0.000   1.593
   40        0.785   0.808   0.000   1.593
   41        0.759   0.910   0.000   1.669
   42        0.752   0.943   0.000   1.695
   43        0.759   0.931   0.000   1.689
   44        0.758   0.930   0.000   1.688
   45        0.753   0.945   0.000   1.697
   46        0.753   0.945   0.000   1.698
   47        0.752   0.946   0.000   1.698
   48        0.752   0.943   0.000   1.696
   49        0.760   0.941   0.000   1.700
   50        0.760   0.942   0.000   1.701
   51        0.752   0.945   0.000   1.697
   52        0.760   0.942   0.000   1.702
   53        0.752   0.945   0.000   1.697
--------------------------------------------------
tot         40.118  49.531   0.000  89.649
 

 total amount of memory used by VASP MPI-rank0   122888. kBytes
=======================================================================

   base      :      30000. kBytes
   nonl-proj :      43150. kBytes
   fftplans  :       5382. kBytes
   grid      :      19496. kBytes
   one-center:        162. kBytes
   wavefun   :      24698. kBytes
 
  
  
 General timing and accounting informations for this job:
 ========================================================
  
                  Total CPU time used (sec):      120.814
                            User time (sec):      114.239
                          System time (sec):        6.575
                         Elapsed time (sec):      127.453
  
                   Maximum memory used (kb):      355764.
                   Average memory used (kb):           0.
  
                          Minor page faults:        47097
                          Major page faults:            0
                 Voluntary context switches:         5423
