<?xml version="1.0" encoding="ISO-8859-1"?>
<modeling>
 <generator>
  <i name="program" type="string">vasp </i>
  <i name="version" type="string">5.4.4.18Apr17-6-g9f103f2a35  </i>
  <i name="subversion" type="string">(build Jun 19 2019 10:34:07) complex            parallel </i>
  <i name="platform" type="string">LB-5.4 </i>
  <i name="date" type="string">2023 05 15 </i>
  <i name="time" type="string">18:34:33 </i>
 </generator>
 <incar>
  <i type="string" name="SYSTEM"> Si</i>
  <i type="string" name="PREC">normal</i>
  <i type="string" name="ALGO"> Normal</i>
  <i type="int" name="ISPIN">     1</i>
  <i name="AMIX">      0.20000000</i>
  <i type="int" name="NELM">   200</i>
  <i type="int" name="IBRION">     2</i>
  <i name="EDIFF">      0.00000100</i>
  <i name="EDIFFG">     -0.05000000</i>
  <i type="int" name="NSW">     0</i>
  <i type="int" name="ISIF">     2</i>
  <i type="int" name="ISYM">     2</i>
  <i name="ENCUT">    550.00000000</i>
  <i name="NELECT">    213.00000000</i>
  <i type="logical" name="LREAL"> F  </i>
  <i type="int" name="ISMEAR">     0</i>
  <i name="SIGMA">      0.05000000</i>
  <i type="logical" name="LWAVE"> T  </i>
  <i type="logical" name="LCHARG"> T  </i>
  <i type="int" name="LORBIT">    10</i>
  <v type="int" name="KPOINT_BSE">    -1     0     0     0</v>
  <i type="int" name="NELM">   200</i>
 </incar>
 <structure name="primitive_cell" >
  <crystal>
   <varray name="basis" >
    <v>       9.97646553       0.00000000       5.75991507 </v>
    <v>       3.32548851       9.40590192       5.75991507 </v>
    <v>       0.00000000       0.00000000      11.51983014 </v>
   </varray>
   <i name="volume">   1080.99386112 </i>
   <varray name="rec_basis" >
    <v>       0.10023590      -0.03543874       0.00000000 </v>
    <v>       0.00000000       0.10631623       0.00000000 </v>
    <v>      -0.05011795      -0.03543874       0.08680684 </v>
   </varray>
  </crystal>
  <varray name="positions" >
   <v>       0.29166667       0.29166667      -0.37500000 </v>
   <v>       0.04166667       0.37500000      -0.29166667 </v>
   <v>       0.37500000       0.37500000       0.37500000 </v>
   <v>       0.37500000       0.37500000      -0.29166667 </v>
   <v>       0.37500000       0.04166667      -0.29166667 </v>
   <v>      -0.04166667       0.29166667      -0.37500000 </v>
   <v>      -0.04166667       0.29166667      -0.04166667 </v>
   <v>      -0.37500000       0.29166667       0.29166667 </v>
   <v>      -0.37500000       0.29166667      -0.37500000 </v>
   <v>      -0.37500000      -0.04166667      -0.37500000 </v>
   <v>      -0.04166667      -0.37500000      -0.37500000 </v>
   <v>       0.29166667      -0.04166667      -0.37500000 </v>
   <v>       0.29166667      -0.04166667      -0.04166667 </v>
   <v>       0.29166667      -0.37500000       0.29166667 </v>
   <v>       0.29166667      -0.37500000      -0.37500000 </v>
   <v>       0.29166667       0.29166667      -0.04166667 </v>
   <v>      -0.29166667       0.37500000       0.37500000 </v>
   <v>       0.04166667       0.04166667      -0.29166667 </v>
   <v>       0.04166667       0.04166667       0.04166667 </v>
   <v>      -0.29166667       0.04166667       0.37500000 </v>
   <v>      -0.29166667       0.04166667      -0.29166667 </v>
   <v>       0.37500000      -0.29166667       0.37500000 </v>
   <v>       0.04166667       0.37500000       0.37500000 </v>
   <v>       0.04166667       0.37500000       0.04166667 </v>
   <v>       0.04166667      -0.29166667       0.37500000 </v>
   <v>       0.04166667      -0.29166667      -0.29166667 </v>
   <v>       0.37500000       0.04166667       0.37500000 </v>
   <v>       0.37500000       0.04166667       0.04166667 </v>
   <v>      -0.04166667      -0.04166667      -0.04166667 </v>
   <v>      -0.37500000      -0.37500000       0.29166667 </v>
   <v>      -0.37500000      -0.04166667       0.29166667 </v>
   <v>      -0.04166667      -0.37500000       0.29166667 </v>
   <v>      -0.37500000      -0.04166667      -0.04166667 </v>
   <v>      -0.04166667      -0.37500000      -0.04166667 </v>
   <v>      -0.29166667       0.37500000      -0.29166667 </v>
   <v>      -0.29166667       0.37500000       0.04166667 </v>
   <v>      -0.29166667      -0.29166667      -0.29166667 </v>
   <v>       0.37500000      -0.29166667       0.04166667 </v>
   <v>       0.37500000      -0.29166667      -0.29166667 </v>
   <v>       0.37500000       0.37500000       0.04166667 </v>
   <v>      -0.37500000       0.29166667      -0.04166667 </v>
   <v>      -0.04166667       0.29166667       0.29166667 </v>
   <v>      -0.37500000      -0.37500000      -0.37500000 </v>
   <v>      -0.37500000      -0.37500000      -0.04166667 </v>
   <v>      -0.04166667      -0.04166667       0.29166667 </v>
   <v>      -0.04166667      -0.04166667      -0.37500000 </v>
   <v>       0.29166667      -0.37500000      -0.04166667 </v>
   <v>       0.29166667      -0.04166667       0.29166667 </v>
   <v>      -0.29166667       0.04166667       0.04166667 </v>
   <v>       0.04166667       0.04166667       0.37500000 </v>
   <v>      -0.29166667      -0.29166667       0.04166667 </v>
   <v>      -0.29166667      -0.29166667       0.37500000 </v>
   <v>       0.04166667      -0.29166667       0.04166667 </v>
  </varray>
 </structure>
 <varray name="primitive_index" >
  <v type="int" >        1 </v>
  <v type="int" >       32 </v>
  <v type="int" >       40 </v>
  <v type="int" >       41 </v>
  <v type="int" >       38 </v>
  <v type="int" >       19 </v>
  <v type="int" >       20 </v>
  <v type="int" >        9 </v>
  <v type="int" >       10 </v>
  <v type="int" >       16 </v>
  <v type="int" >       22 </v>
  <v type="int" >        7 </v>
  <v type="int" >        8 </v>
  <v type="int" >        3 </v>
  <v type="int" >        4 </v>
  <v type="int" >        2 </v>
  <v type="int" >       49 </v>
  <v type="int" >       29 </v>
  <v type="int" >       27 </v>
  <v type="int" >       46 </v>
  <v type="int" >       47 </v>
  <v type="int" >       43 </v>
  <v type="int" >       31 </v>
  <v type="int" >       30 </v>
  <v type="int" >       34 </v>
  <v type="int" >       35 </v>
  <v type="int" >       37 </v>
  <v type="int" >       36 </v>
  <v type="int" >       26 </v>
  <v type="int" >       12 </v>
  <v type="int" >       15 </v>
  <v type="int" >       21 </v>
  <v type="int" >       17 </v>
  <v type="int" >       23 </v>
  <v type="int" >       50 </v>
  <v type="int" >       48 </v>
  <v type="int" >       53 </v>
  <v type="int" >       42 </v>
  <v type="int" >       44 </v>
  <v type="int" >       39 </v>
  <v type="int" >       11 </v>
  <v type="int" >       18 </v>
  <v type="int" >       13 </v>
  <v type="int" >       14 </v>
  <v type="int" >       24 </v>
  <v type="int" >       25 </v>
  <v type="int" >        5 </v>
  <v type="int" >        6 </v>
  <v type="int" >       45 </v>
  <v type="int" >       28 </v>
  <v type="int" >       51 </v>
  <v type="int" >       52 </v>
  <v type="int" >       33 </v>
 </varray>
 <kpoints>
  <generation param="Gamma">
   <v type="int" name="divisions">       4        4        4 </v>
   <v name="usershift">      0.00000000       0.00000000       0.00000000 </v>
   <v name="genvec1">      0.25000000       0.00000000       0.00000000 </v>
   <v name="genvec2">      0.00000000       0.25000000       0.00000000 </v>
   <v name="genvec3">     -0.00000000      -0.00000000       0.25000000 </v>
   <v name="shift">      0.00000000       0.00000000       0.00000000 </v>
  </generation>
  <varray name="kpointlist" >
   <v>       0.00000000       0.00000000       0.00000000 </v>
   <v>       0.25000000       0.00000000       0.00000000 </v>
   <v>       0.50000000       0.00000000       0.00000000 </v>
   <v>       0.25000000       0.25000000       0.00000000 </v>
   <v>       0.50000000       0.25000000       0.00000000 </v>
   <v>      -0.25000000       0.25000000       0.00000000 </v>
   <v>       0.50000000       0.50000000       0.00000000 </v>
   <v>      -0.25000000       0.50000000       0.25000000 </v>
  </varray>
  <varray name="weights" >
   <v>       0.01562500 </v>
   <v>       0.12500000 </v>
   <v>       0.06250000 </v>
   <v>       0.09375000 </v>
   <v>       0.37500000 </v>
   <v>       0.18750000 </v>
   <v>       0.04687500 </v>
   <v>       0.09375000 </v>
  </varray>
 </kpoints>
 <parameters>
  <separator name="general" >
   <i type="string" name="SYSTEM">Si</i>
   <i type="logical" name="LCOMPAT"> F  </i>
  </separator>
  <separator name="electronic" >
   <i type="string" name="PREC">normal</i>
   <i name="ENMAX">    550.00000000</i>
   <i name="ENAUG">    322.06900000</i>
   <i name="EDIFF">      0.00000100</i>
   <i type="int" name="IALGO">    38</i>
   <i type="int" name="IWAVPR">    10</i>
   <i type="int" name="NBANDS">   144</i>
   <i name="NELECT">    213.00000000</i>
   <i type="int" name="TURBO">     0</i>
   <i type="int" name="IRESTART">     0</i>
   <i type="int" name="NREBOOT">     0</i>
   <i type="int" name="NMIN">     0</i>
   <i name="EREF">      0.00000000</i>
   <separator name="electronic smearing" >
    <i type="int" name="ISMEAR">     0</i>
    <i name="SIGMA">      0.05000000</i>
    <i name="KSPACING">      0.50000000</i>
    <i type="logical" name="KGAMMA"> T  </i>
   </separator>
   <separator name="electronic projectors" >
    <i type="logical" name="LREAL"> F  </i>
    <v name="ROPT">      0.00000000</v>
    <i type="int" name="LMAXPAW">  -100</i>
    <i type="int" name="LMAXMIX">     2</i>
    <i type="logical" name="NLSPLINE"> F  </i>
   </separator>
   <separator name="electronic startup" >
    <i type="int" name="ISTART">     0</i>
    <i type="int" name="ICHARG">     2</i>
    <i type="int" name="INIWAV">     1</i>
   </separator>
   <separator name="electronic spin" >
    <i type="int" name="ISPIN">     1</i>
    <i type="logical" name="LNONCOLLINEAR"> F  </i>
    <v name="MAGMOM">      1.00000000      1.00000000      1.00000000      1.00000000      1.00000000      1.00000000      1.00000000      1.00000000      1.00000000      1.00000000      1.00000000      1.00000000      1.00000000      1.00000000      1.00000000      1.00000000      1.00000000      1.00000000      1.00000000      1.00000000
      1.00000000      1.00000000      1.00000000      1.00000000      1.00000000      1.00000000      1.00000000      1.00000000      1.00000000      1.00000000      1.00000000      1.00000000      1.00000000      1.00000000      1.00000000      1.00000000      1.00000000      1.00000000      1.00000000      1.00000000
      1.00000000      1.00000000      1.00000000      1.00000000      1.00000000      1.00000000      1.00000000      1.00000000      1.00000000      1.00000000      1.00000000      1.00000000      1.00000000</v>
    <i name="NUPDOWN">     -1.00000000</i>
    <i type="logical" name="LSORBIT"> F  </i>
    <v name="SAXIS">      0.00000000      0.00000000      1.00000000</v>
    <i type="logical" name="LSPIRAL"> F  </i>
    <v name="QSPIRAL">      0.00000000      0.00000000      0.00000000</v>
    <i type="logical" name="LZEROZ"> F  </i>
   </separator>
   <separator name="electronic exchange-correlation" >
    <i type="logical" name="LASPH"> F  </i>
    <i type="logical" name="LMETAGGA"> F  </i>
   </separator>
   <separator name="electronic convergence" >
    <i type="int" name="NELM">   200</i>
    <i type="int" name="NELMDL">    -5</i>
    <i type="int" name="NELMIN">     2</i>
    <i name="ENINI">    550.00000000</i>
    <separator name="electronic convergence detail" >
     <i type="logical" name="LDIAG"> T  </i>
     <i type="logical" name="LSUBROT"> F  </i>
     <i name="WEIMIN">      0.00000000</i>
     <i name="EBREAK">      0.00000000</i>
     <i name="DEPER">      0.30000000</i>
     <i type="int" name="NRMM">     4</i>
     <i name="TIME">      0.40000000</i>
    </separator>
   </separator>
   <separator name="electronic mixer" >
    <i name="AMIX">      0.20000000</i>
    <i name="BMIX">      1.00000000</i>
    <i name="AMIN">      0.10000000</i>
    <i name="AMIX_MAG">      0.80000000</i>
    <i name="BMIX_MAG">      1.00000000</i>
    <separator name="electronic mixer details" >
     <i type="int" name="IMIX">     4</i>
     <i type="logical" name="MIXFIRST"> F  </i>
     <i type="int" name="MAXMIX">   -45</i>
     <i name="WC">    100.00000000</i>
     <i type="int" name="INIMIX">     1</i>
     <i type="int" name="MIXPRE">     1</i>
     <i type="int" name="MREMOVE">     5</i>
    </separator>
   </separator>
   <separator name="electronic dipolcorrection" >
    <i type="logical" name="LDIPOL"> F  </i>
    <i type="logical" name="LMONO"> F  </i>
    <i type="int" name="IDIPOL">     0</i>
    <i name="EPSILON">      1.00000000</i>
    <v name="DIPOL">   -100.00000000   -100.00000000   -100.00000000</v>
    <i name="EFIELD">      0.00000000</i>
   </separator>
  </separator>
  <separator name="grids" >
   <i type="int" name="NGX">    70</i>
   <i type="int" name="NGY">    70</i>
   <i type="int" name="NGZ">    70</i>
   <i type="int" name="NGXF">   140</i>
   <i type="int" name="NGYF">   140</i>
   <i type="int" name="NGZF">   140</i>
   <i type="logical" name="ADDGRID"> F  </i>
  </separator>
  <separator name="ionic" >
   <i type="int" name="NSW">     0</i>
   <i type="int" name="IBRION">    -1</i>
   <i type="int" name="MDALGO">     0</i>
   <i type="int" name="ISIF">     2</i>
   <i name="PSTRESS">      0.00000000</i>
   <i name="EDIFFG">     -0.05000000</i>
   <i type="int" name="NFREE">     1</i>
   <i name="POTIM">      0.50000000</i>
   <i name="SMASS">     -3.00000000</i>
   <i name="SCALEE">      1.00000000</i>
  </separator>
  <separator name="ionic md" >
   <i name="TEBEG">      0.00010000</i>
   <i name="TEEND">      0.00010000</i>
   <i type="int" name="NBLOCK">     1</i>
   <i type="int" name="KBLOCK">     1</i>
   <i type="int" name="NPACO">   256</i>
   <i name="APACO">     16.00000000</i>
  </separator>
  <separator name="symmetry" >
   <i type="int" name="ISYM">     2</i>
   <i name="SYMPREC">      0.00001000</i>
  </separator>
  <separator name="dos" >
   <i type="int" name="LORBIT">    10</i>
   <v name="RWIGS">     -1.00000000</v>
   <i type="int" name="NEDOS">   301</i>
   <i name="EMIN">     10.00000000</i>
   <i name="EMAX">    -10.00000000</i>
   <i name="EFERMI">      0.00000000</i>
  </separator>
  <separator name="writing" >
   <i type="int" name="NWRITE">     2</i>
   <i type="logical" name="LWAVE"> T  </i>
   <i type="logical" name="LDOWNSAMPLE"> F  </i>
   <i type="logical" name="LCHARG"> T  </i>
   <i type="logical" name="LPARD"> F  </i>
   <i type="logical" name="LVTOT"> F  </i>
   <i type="logical" name="LVHAR"> F  </i>
   <i type="logical" name="LELF"> F  </i>
   <i type="logical" name="LOPTICS"> F  </i>
   <v name="STM">      0.00000000      0.00000000      0.00000000      0.00000000      0.00000000      0.00000000      0.00000000</v>
  </separator>
  <separator name="performance" >
   <i type="int" name="NPAR">    24</i>
   <i type="int" name="NSIM">     4</i>
   <i type="int" name="NBLK">    -1</i>
   <i type="logical" name="LPLANE"> T  </i>
   <i type="logical" name="LSCALAPACK"> T  </i>
   <i type="logical" name="LSCAAWARE"> F  </i>
   <i type="logical" name="LSCALU"> F  </i>
   <i type="logical" name="LASYNC"> F  </i>
   <i type="logical" name="LORBITALREAL"> F  </i>
  </separator>
  <separator name="miscellaneous" >
   <i type="int" name="IDIOT">     3</i>
   <i type="int" name="ISPECIAL">     0</i>
   <i type="logical" name="LMUSIC"> F  </i>
   <v name="POMASS">     28.08500000</v>
   <v name="DARWINR">      0.00000000</v>
   <v name="DARWINV">      1.00000000</v>
   <i type="logical" name="LCORR"> T  </i>
  </separator>
  <i type="logical" name="GGA_COMPAT"> T  </i>
  <i type="logical" name="LBERRY"> F  </i>
  <i type="int" name="ICORELEVEL">     0</i>
  <i type="logical" name="LDAU"> F  </i>
  <i type="int" name="I_CONSTRAINED_M">     0</i>
  <separator name="electronic exchange-correlation" >
   <i type="string" name="GGA">--</i>
   <i type="int" name="VOSKOWN">     0</i>
   <i type="logical" name="LHFCALC"> F  </i>
   <i type="string" name="PRECFOCK"></i>
   <i type="logical" name="LSYMGRAD"> F  </i>
   <i type="logical" name="LHFONE"> F  </i>
   <i type="logical" name="LRHFCALC"> F  </i>
   <i type="logical" name="LTHOMAS"> F  </i>
   <i type="logical" name="LMODELHF"> F  </i>
   <i name="ENCUT4O">     -1.00000000</i>
   <i type="int" name="EXXOEP">     0</i>
   <i type="int" name="FOURORBIT">     0</i>
   <i name="AEXX">      0.00000000</i>
   <i name="HFALPHA">      0.00000000</i>
   <i name="MCALPHA">      0.00000000</i>
   <i name="ALDAX">      1.00000000</i>
   <i name="AGGAX">      1.00000000</i>
   <i name="ALDAC">      1.00000000</i>
   <i name="AGGAC">      1.00000000</i>
   <i type="int" name="NKREDX">     1</i>
   <i type="int" name="NKREDY">     1</i>
   <i type="int" name="NKREDZ">     1</i>
   <i type="logical" name="SHIFTRED"> F  </i>
   <i type="logical" name="ODDONLY"> F  </i>
   <i type="logical" name="EVENONLY"> F  </i>
   <i type="int" name="LMAXFOCK">     0</i>
   <i type="int" name="NMAXFOCKAE">     0</i>
   <i type="logical" name="LFOCKAEDFT"> F  </i>
   <i name="HFSCREEN">      0.00000000</i>
   <i name="HFSCREENC">      0.00000000</i>
   <i type="int" name="NBANDSGWLOW">     0</i>
  </separator>
  <separator name="vdW DFT" >
   <i type="logical" name="LUSE_VDW"> F  </i>
   <i name="Zab_VDW">     -0.84910000</i>
   <i name="PARAM1">      0.12340000</i>
   <i name="PARAM2">      1.00000000</i>
   <i name="PARAM3">      0.00000000</i>
  </separator>
  <separator name="model GW" >
   <i type="int" name="MODEL_GW">     0</i>
   <i name="MODEL_EPS0">     12.23766635</i>
   <i name="MODEL_ALPHA">      1.00000000</i>
  </separator>
  <separator name="linear response parameters" >
   <i type="logical" name="LEPSILON"> F  </i>
   <i type="logical" name="LRPA"> F  </i>
   <i type="logical" name="LNABLA"> F  </i>
   <i type="logical" name="LVEL"> F  </i>
   <i type="int" name="KINTER">     0</i>
   <i name="CSHIFT">      0.10000000</i>
   <i name="OMEGAMAX">     -1.00000000</i>
   <i name="DEG_THRESHOLD">      0.00200000</i>
   <i name="RTIME">     -0.10000000</i>
   <i name="WPLASMAI">      0.00000000</i>
   <v name="DFIELD">      0.00000000      0.00000000      0.00000000</v>
   <v name="WPLASMA">      0.00000000      0.00000000      0.00000000      0.00000000      0.00000000      0.00000000      0.00000000      0.00000000      0.00000000</v>
  </separator>
  <separator name="orbital magnetization" >
   <i type="logical" name="NUCIND"> F  </i>
   <v name="MAGPOS">      0.00000000      0.00000000      0.00000000</v>
   <i type="logical" name="LNICSALL"> T  </i>
   <i type="logical" name="ORBITALMAG"> F  </i>
   <i type="logical" name="LMAGBLOCH"> F  </i>
   <i type="logical" name="LCHIMAG"> F  </i>
   <i type="logical" name="LGAUGE"> T  </i>
   <i type="int" name="MAGATOM">     0</i>
   <v name="MAGDIPOL">      0.00000000      0.00000000      0.00000000</v>
   <v name="AVECCONST">      0.00000000      0.00000000      0.00000000</v>
  </separator>
  <separator name="response functions" >
   <i type="logical" name="LADDER"> F  </i>
   <i type="logical" name="LRPAFORCE"> F  </i>
   <i type="logical" name="LFXC"> F  </i>
   <i type="logical" name="LHARTREE"> T  </i>
   <i type="int" name="IBSE">     0</i>
   <v type="int" name="KPOINT">    -1     0     0     0</v>
   <i type="logical" name="LTCTE"> F  </i>
   <i type="logical" name="LTETE"> F  </i>
   <i type="logical" name="LTRIPLET"> F  </i>
   <i type="logical" name="LFXCEPS"> F  </i>
   <i type="logical" name="LFXHEG"> F  </i>
   <i type="int" name="NATURALO">     2</i>
   <i type="logical" name="L2ORDER"> F  </i>
   <i type="logical" name="LMP2LT"> F  </i>
   <i type="logical" name="LUSEW"> F  </i>
   <i name="ENCUTGW">     -2.00000000</i>
   <i name="ENCUTGWSOFT">     -2.00000000</i>
   <i name="ENCUTLF">     -1.00000000</i>
   <i type="int" name="LMAXMP2">    -1</i>
   <i name="SCISSOR">      0.00000000</i>
   <i type="int" name="NOMEGA">     0</i>
   <i type="int" name="NOMEGAR">     0</i>
   <i type="int" name="NBANDSGW">    -1</i>
   <i type="int" name="NBANDSO">    -1</i>
   <i type="int" name="NBANDSV">    -1</i>
   <i type="int" name="NELM">   200</i>
   <i type="int" name="NELMHF">     1</i>
   <i type="int" name="DIM">     3</i>
   <i type="int" name="ANTIRES">     0</i>
   <i name="OMEGAMAX">    -30.00000000</i>
   <i name="OMEGAMIN">    -30.00000000</i>
   <i name="OMEGATL">   -200.00000000</i>
   <i type="int" name="OMEGAGRID">   140</i>
   <i name="CSHIFT">     -0.10000000</i>
   <i type="logical" name="SELFENERGY"> F  </i>
   <i type="logical" name="LSPECTRAL"> F  </i>
   <i type="logical" name="LSPECTRALGW"> F  </i>
   <i type="logical" name="LSINGLES"> F  </i>
   <i type="logical" name="LFERMIGW"> F  </i>
   <i type="logical" name="ODDONLYGW"> F  </i>
   <i type="logical" name="EVENONLYGW"> F  </i>
   <i type="int" name="NKREDLFX">     1</i>
   <i type="int" name="NKREDLFY">     1</i>
   <i type="int" name="NKREDLFZ">     1</i>
   <i type="int" name="MAXMEM">  2800</i>
   <i type="int" name="TELESCOPE">     0</i>
   <i type="int" name="TAUPAR">     1</i>
   <i type="int" name="OMEGAPAR">    -1</i>
   <i name="LAMBDA">      1.00000000</i>
  </separator>
  <separator name="External order field" >
   <i name="OFIELD_KAPPA">      0.00000000</i>
   <v name="OFIELD_K">      0.00000000      0.00000000      0.00000000</v>
   <i name="OFIELD_Q6_NEAR">      0.00000000</i>
   <i name="OFIELD_Q6_FAR">      0.00000000</i>
   <i name="OFIELD_A">      0.00000000</i>
  </separator>
 </parameters>
 <atominfo>
  <atoms>      53 </atoms>
  <types>       1 </types>
  <array name="atoms" >
   <dimension dim="1">ion</dimension>
   <field type="string">element</field>
   <field type="int">atomtype</field>
   <set>
    <rc><c>Si</c><c>   1</c></rc>
    <rc><c>Si</c><c>   1</c></rc>
    <rc><c>Si</c><c>   1</c></rc>
    <rc><c>Si</c><c>   1</c></rc>
    <rc><c>Si</c><c>   1</c></rc>
    <rc><c>Si</c><c>   1</c></rc>
    <rc><c>Si</c><c>   1</c></rc>
    <rc><c>Si</c><c>   1</c></rc>
    <rc><c>Si</c><c>   1</c></rc>
    <rc><c>Si</c><c>   1</c></rc>
    <rc><c>Si</c><c>   1</c></rc>
    <rc><c>Si</c><c>   1</c></rc>
    <rc><c>Si</c><c>   1</c></rc>
    <rc><c>Si</c><c>   1</c></rc>
    <rc><c>Si</c><c>   1</c></rc>
    <rc><c>Si</c><c>   1</c></rc>
    <rc><c>Si</c><c>   1</c></rc>
    <rc><c>Si</c><c>   1</c></rc>
    <rc><c>Si</c><c>   1</c></rc>
    <rc><c>Si</c><c>   1</c></rc>
    <rc><c>Si</c><c>   1</c></rc>
    <rc><c>Si</c><c>   1</c></rc>
    <rc><c>Si</c><c>   1</c></rc>
    <rc><c>Si</c><c>   1</c></rc>
    <rc><c>Si</c><c>   1</c></rc>
    <rc><c>Si</c><c>   1</c></rc>
    <rc><c>Si</c><c>   1</c></rc>
    <rc><c>Si</c><c>   1</c></rc>
    <rc><c>Si</c><c>   1</c></rc>
    <rc><c>Si</c><c>   1</c></rc>
    <rc><c>Si</c><c>   1</c></rc>
    <rc><c>Si</c><c>   1</c></rc>
    <rc><c>Si</c><c>   1</c></rc>
    <rc><c>Si</c><c>   1</c></rc>
    <rc><c>Si</c><c>   1</c></rc>
    <rc><c>Si</c><c>   1</c></rc>
    <rc><c>Si</c><c>   1</c></rc>
    <rc><c>Si</c><c>   1</c></rc>
    <rc><c>Si</c><c>   1</c></rc>
    <rc><c>Si</c><c>   1</c></rc>
    <rc><c>Si</c><c>   1</c></rc>
    <rc><c>Si</c><c>   1</c></rc>
    <rc><c>Si</c><c>   1</c></rc>
    <rc><c>Si</c><c>   1</c></rc>
    <rc><c>Si</c><c>   1</c></rc>
    <rc><c>Si</c><c>   1</c></rc>
    <rc><c>Si</c><c>   1</c></rc>
    <rc><c>Si</c><c>   1</c></rc>
    <rc><c>Si</c><c>   1</c></rc>
    <rc><c>Si</c><c>   1</c></rc>
    <rc><c>Si</c><c>   1</c></rc>
    <rc><c>Si</c><c>   1</c></rc>
    <rc><c>Si</c><c>   1</c></rc>
   </set>
  </array>
  <array name="atomtypes" >
   <dimension dim="1">type</dimension>
   <field type="int">atomspertype</field>
   <field type="string">element</field>
   <field>mass</field>
   <field>valence</field>
   <field type="string">pseudopotential</field>
   <set>
    <rc><c>  53</c><c>Si</c><c>     28.08500000</c><c>      4.00000000</c><c>  PAW_PBE Si 05Jan2001                  </c></rc>
   </set>
  </array>
 </atominfo>
 <structure name="initialpos" >
  <crystal>
   <varray name="basis" >
    <v>       9.97646553       0.00000000       5.75991507 </v>
    <v>       3.32548851       9.40590192       5.75991507 </v>
    <v>       0.00000000       0.00000000      11.51983014 </v>
   </varray>
   <i name="volume">   1080.99386112 </i>
   <varray name="rec_basis" >
    <v>       0.10023590      -0.03543874       0.00000000 </v>
    <v>       0.00000000       0.10631623       0.00000000 </v>
    <v>      -0.05011795      -0.03543874       0.08680684 </v>
   </varray>
  </crystal>
  <varray name="positions" >
   <v>       0.29166667       0.29166667       0.62500000 </v>
   <v>       0.29166667       0.29166667       0.95833333 </v>
   <v>       0.29166667       0.62500000       0.29166667 </v>
   <v>       0.29166667       0.62500000       0.62500000 </v>
   <v>       0.29166667       0.62500000       0.95833333 </v>
   <v>       0.29166667       0.95833333       0.29166667 </v>
   <v>       0.29166667       0.95833333       0.62500000 </v>
   <v>       0.29166667       0.95833333       0.95833333 </v>
   <v>       0.62500000       0.29166667       0.29166667 </v>
   <v>       0.62500000       0.29166667       0.62500000 </v>
   <v>       0.62500000       0.29166667       0.95833333 </v>
   <v>       0.62500000       0.62500000       0.29166667 </v>
   <v>       0.62500000       0.62500000       0.62500000 </v>
   <v>       0.62500000       0.62500000       0.95833333 </v>
   <v>       0.62500000       0.95833333       0.29166667 </v>
   <v>       0.62500000       0.95833333       0.62500000 </v>
   <v>       0.62500000       0.95833333       0.95833333 </v>
   <v>       0.95833333       0.29166667       0.29166667 </v>
   <v>       0.95833333       0.29166667       0.62500000 </v>
   <v>       0.95833333       0.29166667       0.95833333 </v>
   <v>       0.95833333       0.62500000       0.29166667 </v>
   <v>       0.95833333       0.62500000       0.62500000 </v>
   <v>       0.95833333       0.62500000       0.95833333 </v>
   <v>       0.95833333       0.95833333       0.29166667 </v>
   <v>       0.95833333       0.95833333       0.62500000 </v>
   <v>       0.95833333       0.95833333       0.95833333 </v>
   <v>       0.04166667       0.04166667       0.04166667 </v>
   <v>       0.04166667       0.04166667       0.37500000 </v>
   <v>       0.04166667       0.04166667       0.70833333 </v>
   <v>       0.04166667       0.37500000       0.04166667 </v>
   <v>       0.04166667       0.37500000       0.37500000 </v>
   <v>       0.04166667       0.37500000       0.70833333 </v>
   <v>       0.04166667       0.70833333       0.04166667 </v>
   <v>       0.04166667       0.70833333       0.37500000 </v>
   <v>       0.04166667       0.70833333       0.70833333 </v>
   <v>       0.37500000       0.04166667       0.04166667 </v>
   <v>       0.37500000       0.04166667       0.37500000 </v>
   <v>       0.37500000       0.04166667       0.70833333 </v>
   <v>       0.37500000       0.37500000       0.04166667 </v>
   <v>       0.37500000       0.37500000       0.37500000 </v>
   <v>       0.37500000       0.37500000       0.70833333 </v>
   <v>       0.37500000       0.70833333       0.04166667 </v>
   <v>       0.37500000       0.70833333       0.37500000 </v>
   <v>       0.37500000       0.70833333       0.70833333 </v>
   <v>       0.70833333       0.04166667       0.04166667 </v>
   <v>       0.70833333       0.04166667       0.37500000 </v>
   <v>       0.70833333       0.04166667       0.70833333 </v>
   <v>       0.70833333       0.37500000       0.04166667 </v>
   <v>       0.70833333       0.37500000       0.37500000 </v>
   <v>       0.70833333       0.37500000       0.70833333 </v>
   <v>       0.70833333       0.70833333       0.04166667 </v>
   <v>       0.70833333       0.70833333       0.37500000 </v>
   <v>       0.70833333       0.70833333       0.70833333 </v>
  </varray>
 </structure>
 <calculation>
  <scstep>
   <time name="dav">    3.78    3.81</time>
   <time name="total">    3.97    4.04</time>
   <energy>
    <i name="alphaZ">     87.47481167 </i>
    <i name="ewald">  -5974.52528800 </i>
    <i name="hartreedc">   -334.43528197 </i>
    <i name="XCdc">   -494.43365227 </i>
    <i name="pawpsdc">   4670.56137959 </i>
    <i name="pawaedc">  -3738.11744287 </i>
    <i name="eentropy">     -0.01770013 </i>
    <i name="bandstr">    882.70802708 </i>
    <i name="atom">   5462.52286525 </i>
    <i name="e_fr_energy">    561.73771835 </i>
    <i name="e_wo_entrp">    561.75541848 </i>
    <i name="e_0_energy">    561.74656842 </i>
   </energy>
  </scstep>
  <scstep>
   <time name="dav">    5.45    5.51</time>
   <time name="total">    5.97    6.02</time>
   <energy>
    <i name="e_fr_energy">   -233.98612986 </i>
    <i name="e_wo_entrp">   -233.96986562 </i>
    <i name="e_0_energy">   -233.97799774 </i>
   </energy>
  </scstep>
  <scstep>
   <time name="dav">    5.36    5.41</time>
   <time name="total">    5.86    5.91</time>
   <energy>
    <i name="e_fr_energy">   -281.74832919 </i>
    <i name="e_wo_entrp">   -281.73009036 </i>
    <i name="e_0_energy">   -281.73920978 </i>
   </energy>
  </scstep>
  <scstep>
   <time name="dav">    4.46    4.51</time>
   <time name="total">    4.99    5.04</time>
   <energy>
    <i name="e_fr_energy">   -282.71964478 </i>
    <i name="e_wo_entrp">   -282.70071230 </i>
    <i name="e_0_energy">   -282.71017854 </i>
   </energy>
  </scstep>
  <scstep>
   <time name="dav">    4.73    4.79</time>
   <time name="total">    5.43    5.49</time>
   <energy>
    <i name="e_fr_energy">   -282.74215738 </i>
    <i name="e_wo_entrp">   -282.72322120 </i>
    <i name="e_0_energy">   -282.73268929 </i>
   </energy>
  </scstep>
  <scstep>
   <time name="dav">    3.75    3.78</time>
   <time name="total">    4.72    4.77</time>
   <energy>
    <i name="e_fr_energy">   -280.67028787 </i>
    <i name="e_wo_entrp">   -280.65179440 </i>
    <i name="e_0_energy">   -280.66104113 </i>
   </energy>
  </scstep>
  <scstep>
   <time name="dav">    4.12    4.17</time>
   <time name="total">    5.35    5.41</time>
   <energy>
    <i name="e_fr_energy">   -277.80548052 </i>
    <i name="e_wo_entrp">   -277.78793636 </i>
    <i name="e_0_energy">   -277.79670844 </i>
   </energy>
  </scstep>
  <scstep>
   <time name="dav">    3.60    3.63</time>
   <time name="total">    4.65    4.69</time>
   <energy>
    <i name="e_fr_energy">   -277.79147414 </i>
    <i name="e_wo_entrp">   -277.77238798 </i>
    <i name="e_0_energy">   -277.78193106 </i>
   </energy>
  </scstep>
  <scstep>
   <time name="dav">    4.21    4.24</time>
   <time name="total">    4.48    4.51</time>
   <energy>
    <i name="e_fr_energy">   -277.79820939 </i>
    <i name="e_wo_entrp">   -277.77939561 </i>
    <i name="e_0_energy">   -277.78880250 </i>
   </energy>
  </scstep>
  <scstep>
   <time name="dav">    6.36    6.43</time>
   <time name="total">    7.24    7.32</time>
   <energy>
    <i name="e_fr_energy">   -277.80017983 </i>
    <i name="e_wo_entrp">   -277.78174732 </i>
    <i name="e_0_energy">   -277.79096358 </i>
   </energy>
  </scstep>
  <scstep>
   <time name="dav">    4.23    4.28</time>
   <time name="total">    5.26    5.31</time>
   <energy>
    <i name="e_fr_energy">   -277.80624055 </i>
    <i name="e_wo_entrp">   -277.78785374 </i>
    <i name="e_0_energy">   -277.79704714 </i>
   </energy>
  </scstep>
  <scstep>
   <time name="dav">    4.03    4.07</time>
   <time name="total">    5.55    5.62</time>
   <energy>
    <i name="e_fr_energy">   -277.80737907 </i>
    <i name="e_wo_entrp">   -277.78901959 </i>
    <i name="e_0_energy">   -277.79819933 </i>
   </energy>
  </scstep>
  <scstep>
   <time name="dav">    4.00    4.31</time>
   <time name="total">    5.34    5.67</time>
   <energy>
    <i name="e_fr_energy">   -277.80799207 </i>
    <i name="e_wo_entrp">   -277.78962795 </i>
    <i name="e_0_energy">   -277.79881001 </i>
   </energy>
  </scstep>
  <scstep>
   <time name="dav">    4.35    4.40</time>
   <time name="total">    5.34    5.40</time>
   <energy>
    <i name="e_fr_energy">   -277.80799425 </i>
    <i name="e_wo_entrp">   -277.78963147 </i>
    <i name="e_0_energy">   -277.79881286 </i>
   </energy>
  </scstep>
  <scstep>
   <time name="dav">   11.43   11.57</time>
   <time name="total">   13.31   13.48</time>
   <energy>
    <i name="e_fr_energy">   -277.80800603 </i>
    <i name="e_wo_entrp">   -277.78962635 </i>
    <i name="e_0_energy">   -277.79881619 </i>
   </energy>
  </scstep>
  <scstep>
   <time name="dav">    4.83    4.88</time>
   <time name="total">    6.00    6.07</time>
   <energy>
    <i name="alphaZ">     87.47481167 </i>
    <i name="ewald">  -5974.52528800 </i>
    <i name="hartreedc">   -435.24176844 </i>
    <i name="XCdc">   -475.23740370 </i>
    <i name="pawpsdc">  22605.42064783 </i>
    <i name="pawaedc"> -21678.85571840 </i>
    <i name="eentropy">     -0.01837999 </i>
    <i name="bandstr">    130.65222790 </i>
    <i name="atom">   5462.52286525 </i>
    <i name="e_fr_energy">   -277.80800588 </i>
    <i name="e_wo_entrp">   -277.78962590 </i>
    <i name="e_0_energy">   -277.79881589 </i>
   </energy>
  </scstep>
  <structure>
   <crystal>
    <varray name="basis" >
     <v>       9.97646553       0.00000000       5.75991507 </v>
     <v>       3.32548851       9.40590192       5.75991507 </v>
     <v>       0.00000000       0.00000000      11.51983014 </v>
    </varray>
    <i name="volume">   1080.99386112 </i>
    <varray name="rec_basis" >
     <v>       0.10023590      -0.03543874       0.00000000 </v>
     <v>       0.00000000       0.10631623       0.00000000 </v>
     <v>      -0.05011795      -0.03543874       0.08680684 </v>
    </varray>
   </crystal>
   <varray name="positions" >
    <v>       0.29166667       0.29166667       0.62500000 </v>
    <v>       0.29166667       0.29166667       0.95833333 </v>
    <v>       0.29166667       0.62500000       0.29166667 </v>
    <v>       0.29166667       0.62500000       0.62500000 </v>
    <v>       0.29166667       0.62500000       0.95833333 </v>
    <v>       0.29166667       0.95833333       0.29166667 </v>
    <v>       0.29166667       0.95833333       0.62500000 </v>
    <v>       0.29166667       0.95833333       0.95833333 </v>
    <v>       0.62500000       0.29166667       0.29166667 </v>
    <v>       0.62500000       0.29166667       0.62500000 </v>
    <v>       0.62500000       0.29166667       0.95833333 </v>
    <v>       0.62500000       0.62500000       0.29166667 </v>
    <v>       0.62500000       0.62500000       0.62500000 </v>
    <v>       0.62500000       0.62500000       0.95833333 </v>
    <v>       0.62500000       0.95833333       0.29166667 </v>
    <v>       0.62500000       0.95833333       0.62500000 </v>
    <v>       0.62500000       0.95833333       0.95833333 </v>
    <v>       0.95833333       0.29166667       0.29166667 </v>
    <v>       0.95833333       0.29166667       0.62500000 </v>
    <v>       0.95833333       0.29166667       0.95833333 </v>
    <v>       0.95833333       0.62500000       0.29166667 </v>
    <v>       0.95833333       0.62500000       0.62500000 </v>
    <v>       0.95833333       0.62500000       0.95833333 </v>
    <v>       0.95833333       0.95833333       0.29166667 </v>
    <v>       0.95833333       0.95833333       0.62500000 </v>
    <v>       0.95833333       0.95833333       0.95833333 </v>
    <v>       0.04166667       0.04166667       0.04166667 </v>
    <v>       0.04166667       0.04166667       0.37500000 </v>
    <v>       0.04166667       0.04166667       0.70833333 </v>
    <v>       0.04166667       0.37500000       0.04166667 </v>
    <v>       0.04166667       0.37500000       0.37500000 </v>
    <v>       0.04166667       0.37500000       0.70833333 </v>
    <v>       0.04166667       0.70833333       0.04166667 </v>
    <v>       0.04166667       0.70833333       0.37500000 </v>
    <v>       0.04166667       0.70833333       0.70833333 </v>
    <v>       0.37500000       0.04166667       0.04166667 </v>
    <v>       0.37500000       0.04166667       0.37500000 </v>
    <v>       0.37500000       0.04166667       0.70833333 </v>
    <v>       0.37500000       0.37500000       0.04166667 </v>
    <v>       0.37500000       0.37500000       0.37500000 </v>
    <v>       0.37500000       0.37500000       0.70833333 </v>
    <v>       0.37500000       0.70833333       0.04166667 </v>
    <v>       0.37500000       0.70833333       0.37500000 </v>
    <v>       0.37500000       0.70833333       0.70833333 </v>
    <v>       0.70833333       0.04166667       0.04166667 </v>
    <v>       0.70833333       0.04166667       0.37500000 </v>
    <v>       0.70833333       0.04166667       0.70833333 </v>
    <v>       0.70833333       0.37500000       0.04166667 </v>
    <v>       0.70833333       0.37500000       0.37500000 </v>
    <v>       0.70833333       0.37500000       0.70833333 </v>
    <v>       0.70833333       0.70833333       0.04166667 </v>
    <v>       0.70833333       0.70833333       0.37500000 </v>
    <v>       0.70833333       0.70833333       0.70833333 </v>
   </varray>
  </structure>
  <varray name="forces" >
   <v>       0.12262099       0.08670613      -0.25824148 </v>
   <v>       0.12262099       0.08670613       0.25824148 </v>
   <v>      -0.01323740      -0.29755941      -0.02292785 </v>
   <v>       0.03105705      -0.01098032      -0.00000000 </v>
   <v>      -0.01323740      -0.29755941       0.02292785 </v>
   <v>       0.13585839       0.12414715       0.23531363 </v>
   <v>       0.13585839       0.12414715      -0.23531363 </v>
   <v>       0.06307812      -0.02230148      -0.00000000 </v>
   <v>      -0.28495417       0.08670613      -0.02292785 </v>
   <v>      -0.00000000       0.03294097      -0.00000000 </v>
   <v>      -0.28495417       0.08670613       0.02292785 </v>
   <v>      -0.01552852      -0.01098032       0.02689619 </v>
   <v>      -0.01552852      -0.01098032      -0.02689619 </v>
   <v>      -0.02321305      -0.01641411      -0.00000000 </v>
   <v>      -0.27171677       0.12414715      -0.00000000 </v>
   <v>      -0.01160653       0.01641411      -0.02010309 </v>
   <v>      -0.01160653       0.01641411       0.02010309 </v>
   <v>       0.16233319       0.08670613       0.23531363 </v>
   <v>       0.16233319       0.08670613      -0.23531363 </v>
   <v>      -0.00000000       0.06690444      -0.00000000 </v>
   <v>       0.02647480      -0.29755941      -0.00000000 </v>
   <v>       0.01160653      -0.01641411      -0.02010309 </v>
   <v>       0.01160653      -0.01641411       0.02010309 </v>
   <v>      -0.03153906      -0.02230148       0.05462725 </v>
   <v>       0.02321305       0.01641411      -0.00000000 </v>
   <v>      -0.03153906      -0.02230148      -0.05462725 </v>
   <v>      -0.00000000       0.00000000      -0.00000000 </v>
   <v>       0.02477141       0.01751604      -0.05016646 </v>
   <v>       0.02477141       0.01751604       0.05016646 </v>
   <v>      -0.00209610      -0.05847678      -0.00363055 </v>
   <v>       0.48361118      -0.17098237      -0.00000000 </v>
   <v>      -0.00209610      -0.05847678       0.00363055 </v>
   <v>       0.02686752       0.02344471       0.04653590 </v>
   <v>       0.02686752       0.02344471      -0.04653590 </v>
   <v>      -0.02640906       0.00933701      -0.00000000 </v>
   <v>      -0.05583113       0.01751604      -0.00363055 </v>
   <v>      -0.00000000       0.51294712      -0.00000000 </v>
   <v>      -0.05583113       0.01751604       0.00363055 </v>
   <v>      -0.24180559      -0.17098237       0.41881957 </v>
   <v>      -0.24180559      -0.17098237      -0.41881957 </v>
   <v>      -0.05833149      -0.04124659      -0.00000000 </v>
   <v>      -0.05373503       0.02344471      -0.00000000 </v>
   <v>      -0.02916574       0.04124659      -0.05051655 </v>
   <v>      -0.02916574       0.04124659       0.05051655 </v>
   <v>       0.03105972       0.01751604       0.04653590 </v>
   <v>       0.03105972       0.01751604      -0.04653590 </v>
   <v>      -0.00000000      -0.02801103      -0.00000000 </v>
   <v>       0.00419220      -0.05847678      -0.00000000 </v>
   <v>       0.02916574      -0.04124659      -0.05051655 </v>
   <v>       0.02916574      -0.04124659       0.05051655 </v>
   <v>       0.01320453       0.00933701      -0.02287091 </v>
   <v>       0.05833149       0.04124659      -0.00000000 </v>
   <v>       0.01320453       0.00933701       0.02287091 </v>
  </varray>
  <varray name="stress" >
   <v>      28.26484060       0.00000000      -0.00000000 </v>
   <v>      -0.00000000      28.26484069      -0.00000000 </v>
   <v>       0.00000000       0.00000000      28.26484070 </v>
  </varray>
  <energy>
   <i name="e_fr_energy">   -277.80800588 </i>
   <i name="e_wo_entrp">   -277.79881589 </i>
   <i name="e_0_energy">     -0.01837999 </i>
  </energy>
  <time name="totalsc">  106.59  108.05</time>
  <eigenvalues>
   <array>
    <dimension dim="1">band</dimension>
    <dimension dim="2">kpoint</dimension>
    <dimension dim="3">spin</dimension>
    <field>eigene</field>
    <field>occ</field>
    <set>
     <set comment="spin 1">
      <set comment="kpoint 1">
       <r>   -6.3139    1.0000 </r>
       <r>   -5.0196    1.0000 </r>
       <r>   -4.9889    1.0000 </r>
       <r>   -4.9889    1.0000 </r>
       <r>   -4.9889    1.0000 </r>
       <r>   -4.9442    1.0000 </r>
       <r>   -4.9442    1.0000 </r>
       <r>   -4.9442    1.0000 </r>
       <r>   -4.7834    1.0000 </r>
       <r>   -4.4509    1.0000 </r>
       <r>   -4.4509    1.0000 </r>
       <r>   -4.3976    1.0000 </r>
       <r>   -4.3976    1.0000 </r>
       <r>   -4.3976    1.0000 </r>
       <r>   -3.9793    1.0000 </r>
       <r>   -3.1245    1.0000 </r>
       <r>   -3.1245    1.0000 </r>
       <r>   -3.1245    1.0000 </r>
       <r>   -3.1134    1.0000 </r>
       <r>   -3.1134    1.0000 </r>
       <r>   -3.0673    1.0000 </r>
       <r>   -3.0673    1.0000 </r>
       <r>   -3.0673    1.0000 </r>
       <r>   -2.9518    1.0000 </r>
       <r>   -2.9518    1.0000 </r>
       <r>   -2.9518    1.0000 </r>
       <r>   -2.0616    1.0000 </r>
       <r>   -1.1928    1.0000 </r>
       <r>   -1.1928    1.0000 </r>
       <r>   -1.1928    1.0000 </r>
       <r>   -1.1746    1.0000 </r>
       <r>   -1.1746    1.0000 </r>
       <r>   -1.1369    1.0000 </r>
       <r>   -1.1369    1.0000 </r>
       <r>   -1.1369    1.0000 </r>
       <r>   -0.9857    1.0000 </r>
       <r>   -0.9857    1.0000 </r>
       <r>   -0.9857    1.0000 </r>
       <r>   -0.2405    1.0000 </r>
       <r>    0.2692    1.0000 </r>
       <r>    0.2861    1.0000 </r>
       <r>    0.2861    1.0000 </r>
       <r>    0.2861    1.0000 </r>
       <r>    0.3570    1.0000 </r>
       <r>    0.3570    1.0000 </r>
       <r>    0.3570    1.0000 </r>
       <r>    0.3881    1.0000 </r>
       <r>    0.6065    1.0000 </r>
       <r>    0.6065    1.0000 </r>
       <r>    0.7156    1.0000 </r>
       <r>    0.7156    1.0000 </r>
       <r>    0.7156    1.0000 </r>
       <r>    1.1302    1.0000 </r>
       <r>    1.1620    1.0000 </r>
       <r>    1.1620    1.0000 </r>
       <r>    1.1620    1.0000 </r>
       <r>    1.1727    1.0000 </r>
       <r>    1.1727    1.0000 </r>
       <r>    1.1727    1.0000 </r>
       <r>    1.2766    1.0000 </r>
       <r>    1.2766    1.0000 </r>
       <r>    1.6160    1.0000 </r>
       <r>    1.6160    1.0000 </r>
       <r>    1.6160    1.0000 </r>
       <r>    3.1765    1.0000 </r>
       <r>    3.1765    1.0000 </r>
       <r>    3.1765    1.0000 </r>
       <r>    3.2055    1.0000 </r>
       <r>    3.2055    1.0000 </r>
       <r>    3.2055    1.0000 </r>
       <r>    3.2068    1.0000 </r>
       <r>    3.2068    1.0000 </r>
       <r>    3.2068    1.0000 </r>
       <r>    3.2757    1.0000 </r>
       <r>    3.2757    1.0000 </r>
       <r>    3.2757    1.0000 </r>
       <r>    3.4927    1.0000 </r>
       <r>    3.4927    1.0000 </r>
       <r>    3.4927    1.0000 </r>
       <r>    3.5005    1.0000 </r>
       <r>    3.5230    1.0000 </r>
       <r>    3.5230    1.0000 </r>
       <r>    3.5418    1.0000 </r>
       <r>    3.5418    1.0000 </r>
       <r>    3.5418    1.0000 </r>
       <r>    3.7600    1.0000 </r>
       <r>    3.9763    1.0000 </r>
       <r>    3.9763    1.0000 </r>
       <r>    3.9763    1.0000 </r>
       <r>    4.5823    1.0000 </r>
       <r>    4.5823    1.0000 </r>
       <r>    4.5829    1.0000 </r>
       <r>    4.5829    1.0000 </r>
       <r>    4.5829    1.0000 </r>
       <r>    4.5962    1.0000 </r>
       <r>    4.5962    1.0000 </r>
       <r>    4.5962    1.0000 </r>
       <r>    4.6576    1.0000 </r>
       <r>    4.6576    1.0000 </r>
       <r>    4.6621    1.0000 </r>
       <r>    4.6621    1.0000 </r>
       <r>    4.6621    1.0000 </r>
       <r>    5.3867    1.0000 </r>
       <r>    5.3867    1.0000 </r>
       <r>    5.3867    1.0000 </r>
       <r>    6.3413    0.0437 </r>
       <r>    6.3413    0.0437 </r>
       <r>    6.3413    0.0437 </r>
       <r>    6.3615    0.0112 </r>
       <r>    6.3615    0.0112 </r>
       <r>    6.4263    0.0000 </r>
       <r>    6.7426    0.0000 </r>
       <r>    6.7426    0.0000 </r>
       <r>    6.7426    0.0000 </r>
       <r>    7.1654    0.0000 </r>
       <r>    7.1654    0.0000 </r>
       <r>    7.1654    0.0000 </r>
       <r>    7.1776    0.0000 </r>
       <r>    7.1776    0.0000 </r>
       <r>    7.1776    0.0000 </r>
       <r>    7.1896    0.0000 </r>
       <r>    7.2621    0.0000 </r>
       <r>    7.2621    0.0000 </r>
       <r>    7.2645    0.0000 </r>
       <r>    7.2645    0.0000 </r>
       <r>    7.2645    0.0000 </r>
       <r>    7.3669    0.0000 </r>
       <r>    7.3885    0.0000 </r>
       <r>    7.3885    0.0000 </r>
       <r>    7.3885    0.0000 </r>
       <r>    7.5160    0.0000 </r>
       <r>    7.5160    0.0000 </r>
       <r>    7.5160    0.0000 </r>
       <r>    7.5589    0.0000 </r>
       <r>    7.7587    0.0000 </r>
       <r>    7.7587    0.0000 </r>
       <r>    7.8118    0.0000 </r>
       <r>    7.8118    0.0000 </r>
       <r>    7.8118    0.0000 </r>
       <r>    8.3193    0.0000 </r>
       <r>    8.3193    0.0000 </r>
       <r>    8.3193    0.0000 </r>
       <r>    8.6409    0.0000 </r>
       <r>    9.0908    0.0000 </r>
      </set>
      <set comment="kpoint 2">
       <r>   -6.2260    1.0000 </r>
       <r>   -5.5225    1.0000 </r>
       <r>   -5.0932    1.0000 </r>
       <r>   -5.0932    1.0000 </r>
       <r>   -5.0663    1.0000 </r>
       <r>   -4.8233    1.0000 </r>
       <r>   -4.8233    1.0000 </r>
       <r>   -4.7643    1.0000 </r>
       <r>   -4.6596    1.0000 </r>
       <r>   -4.6596    1.0000 </r>
       <r>   -4.4683    1.0000 </r>
       <r>   -4.2839    1.0000 </r>
       <r>   -3.8974    1.0000 </r>
       <r>   -3.8974    1.0000 </r>
       <r>   -3.7571    1.0000 </r>
       <r>   -3.6669    1.0000 </r>
       <r>   -3.6669    1.0000 </r>
       <r>   -3.4763    1.0000 </r>
       <r>   -3.1102    1.0000 </r>
       <r>   -3.1102    1.0000 </r>
       <r>   -3.0622    1.0000 </r>
       <r>   -3.0096    1.0000 </r>
       <r>   -3.0096    1.0000 </r>
       <r>   -2.8240    1.0000 </r>
       <r>   -2.7796    1.0000 </r>
       <r>   -2.7796    1.0000 </r>
       <r>   -2.0769    1.0000 </r>
       <r>   -1.4262    1.0000 </r>
       <r>   -1.4262    1.0000 </r>
       <r>   -1.2858    1.0000 </r>
       <r>   -1.2162    1.0000 </r>
       <r>   -1.2162    1.0000 </r>
       <r>   -1.1758    1.0000 </r>
       <r>   -1.1063    1.0000 </r>
       <r>   -1.1063    1.0000 </r>
       <r>   -0.8833    1.0000 </r>
       <r>   -0.7526    1.0000 </r>
       <r>   -0.6341    1.0000 </r>
       <r>   -0.6341    1.0000 </r>
       <r>   -0.3216    1.0000 </r>
       <r>   -0.1707    1.0000 </r>
       <r>   -0.1707    1.0000 </r>
       <r>   -0.1512    1.0000 </r>
       <r>    0.0064    1.0000 </r>
       <r>    0.0064    1.0000 </r>
       <r>    0.6163    1.0000 </r>
       <r>    0.8000    1.0000 </r>
       <r>    0.8000    1.0000 </r>
       <r>    1.0048    1.0000 </r>
       <r>    1.2175    1.0000 </r>
       <r>    1.2175    1.0000 </r>
       <r>    1.3135    1.0000 </r>
       <r>    1.3365    1.0000 </r>
       <r>    1.3582    1.0000 </r>
       <r>    1.3582    1.0000 </r>
       <r>    1.4059    1.0000 </r>
       <r>    1.4059    1.0000 </r>
       <r>    1.4313    1.0000 </r>
       <r>    1.5835    1.0000 </r>
       <r>    1.5835    1.0000 </r>
       <r>    1.6135    1.0000 </r>
       <r>    1.8146    1.0000 </r>
       <r>    1.8146    1.0000 </r>
       <r>    1.8522    1.0000 </r>
       <r>    2.7352    1.0000 </r>
       <r>    2.7352    1.0000 </r>
       <r>    2.7589    1.0000 </r>
       <r>    3.0481    1.0000 </r>
       <r>    3.0800    1.0000 </r>
       <r>    3.0800    1.0000 </r>
       <r>    3.1577    1.0000 </r>
       <r>    3.1749    1.0000 </r>
       <r>    3.1749    1.0000 </r>
       <r>    3.1885    1.0000 </r>
       <r>    3.2001    1.0000 </r>
       <r>    3.2001    1.0000 </r>
       <r>    3.2232    1.0000 </r>
       <r>    3.2631    1.0000 </r>
       <r>    3.2631    1.0000 </r>
       <r>    3.3929    1.0000 </r>
       <r>    3.3929    1.0000 </r>
       <r>    3.4461    1.0000 </r>
       <r>    3.4877    1.0000 </r>
       <r>    3.6444    1.0000 </r>
       <r>    3.6444    1.0000 </r>
       <r>    3.7889    1.0000 </r>
       <r>    3.7889    1.0000 </r>
       <r>    3.9006    1.0000 </r>
       <r>    4.0199    1.0000 </r>
       <r>    4.0502    1.0000 </r>
       <r>    4.0502    1.0000 </r>
       <r>    4.1681    1.0000 </r>
       <r>    4.3042    1.0000 </r>
       <r>    4.3383    1.0000 </r>
       <r>    4.3383    1.0000 </r>
       <r>    4.3987    1.0000 </r>
       <r>    4.3987    1.0000 </r>
       <r>    4.5335    1.0000 </r>
       <r>    4.5335    1.0000 </r>
       <r>    4.6345    1.0000 </r>
       <r>    4.6472    1.0000 </r>
       <r>    4.7965    1.0000 </r>
       <r>    4.7965    1.0000 </r>
       <r>    5.2828    1.0000 </r>
       <r>    5.2828    1.0000 </r>
       <r>    6.0774    1.0000 </r>
       <r>    6.4413    0.0000 </r>
       <r>    6.4413    0.0000 </r>
       <r>    6.5819    0.0000 </r>
       <r>    6.6685    0.0000 </r>
       <r>    6.6685    0.0000 </r>
       <r>    6.8264    0.0000 </r>
       <r>    6.8264    0.0000 </r>
       <r>    6.8590    0.0000 </r>
       <r>    6.9903    0.0000 </r>
       <r>    7.0259    0.0000 </r>
       <r>    7.0259    0.0000 </r>
       <r>    7.3276    0.0000 </r>
       <r>    7.4913    0.0000 </r>
       <r>    7.4954    0.0000 </r>
       <r>    7.4954    0.0000 </r>
       <r>    7.6225    0.0000 </r>
       <r>    7.6849    0.0000 </r>
       <r>    7.6849    0.0000 </r>
       <r>    7.7361    0.0000 </r>
       <r>    7.7483    0.0000 </r>
       <r>    7.7670    0.0000 </r>
       <r>    7.7670    0.0000 </r>
       <r>    7.8146    0.0000 </r>
       <r>    7.8146    0.0000 </r>
       <r>    7.8803    0.0000 </r>
       <r>    7.8984    0.0000 </r>
       <r>    7.9104    0.0000 </r>
       <r>    7.9104    0.0000 </r>
       <r>    8.0777    0.0000 </r>
       <r>    8.0777    0.0000 </r>
       <r>    8.2626    0.0000 </r>
       <r>    8.4399    0.0000 </r>
       <r>    8.4399    0.0000 </r>
       <r>    8.4501    0.0000 </r>
       <r>    8.5843    0.0000 </r>
       <r>    8.5843    0.0000 </r>
       <r>    8.9270    0.0000 </r>
       <r>    8.9275    0.0000 </r>
      </set>
      <set comment="kpoint 3">
       <r>   -6.0135    1.0000 </r>
       <r>   -5.8977    1.0000 </r>
       <r>   -5.1001    1.0000 </r>
       <r>   -5.0820    1.0000 </r>
       <r>   -5.0820    1.0000 </r>
       <r>   -4.9962    1.0000 </r>
       <r>   -4.9962    1.0000 </r>
       <r>   -4.7978    1.0000 </r>
       <r>   -4.2522    1.0000 </r>
       <r>   -4.2522    1.0000 </r>
       <r>   -4.2163    1.0000 </r>
       <r>   -4.2100    1.0000 </r>
       <r>   -4.2100    1.0000 </r>
       <r>   -4.0668    1.0000 </r>
       <r>   -3.8666    1.0000 </r>
       <r>   -3.2872    1.0000 </r>
       <r>   -3.2872    1.0000 </r>
       <r>   -3.2771    1.0000 </r>
       <r>   -3.2520    1.0000 </r>
       <r>   -3.2520    1.0000 </r>
       <r>   -3.1053    1.0000 </r>
       <r>   -3.1053    1.0000 </r>
       <r>   -3.0675    1.0000 </r>
       <r>   -3.0570    1.0000 </r>
       <r>   -2.9767    1.0000 </r>
       <r>   -2.9767    1.0000 </r>
       <r>   -2.0842    1.0000 </r>
       <r>   -1.3259    1.0000 </r>
       <r>   -1.2491    1.0000 </r>
       <r>   -1.2491    1.0000 </r>
       <r>   -1.2128    1.0000 </r>
       <r>   -1.1642    1.0000 </r>
       <r>   -1.1642    1.0000 </r>
       <r>   -1.0809    1.0000 </r>
       <r>   -0.9503    1.0000 </r>
       <r>   -0.9503    1.0000 </r>
       <r>   -0.8933    1.0000 </r>
       <r>   -0.8933    1.0000 </r>
       <r>   -0.8017    1.0000 </r>
       <r>   -0.5824    1.0000 </r>
       <r>   -0.3900    1.0000 </r>
       <r>   -0.3900    1.0000 </r>
       <r>   -0.3275    1.0000 </r>
       <r>   -0.2232    1.0000 </r>
       <r>   -0.2232    1.0000 </r>
       <r>    0.7628    1.0000 </r>
       <r>    1.1443    1.0000 </r>
       <r>    1.1739    1.0000 </r>
       <r>    1.1739    1.0000 </r>
       <r>    1.2735    1.0000 </r>
       <r>    1.2735    1.0000 </r>
       <r>    1.5227    1.0000 </r>
       <r>    1.5602    1.0000 </r>
       <r>    1.6022    1.0000 </r>
       <r>    1.6022    1.0000 </r>
       <r>    1.8048    1.0000 </r>
       <r>    1.8048    1.0000 </r>
       <r>    1.9622    1.0000 </r>
       <r>    1.9911    1.0000 </r>
       <r>    1.9911    1.0000 </r>
       <r>    2.0329    1.0000 </r>
       <r>    2.1588    1.0000 </r>
       <r>    2.1588    1.0000 </r>
       <r>    2.4597    1.0000 </r>
       <r>    2.5684    1.0000 </r>
       <r>    2.5684    1.0000 </r>
       <r>    2.5916    1.0000 </r>
       <r>    2.5916    1.0000 </r>
       <r>    2.6422    1.0000 </r>
       <r>    2.8465    1.0000 </r>
       <r>    2.8465    1.0000 </r>
       <r>    2.8575    1.0000 </r>
       <r>    2.9238    1.0000 </r>
       <r>    2.9238    1.0000 </r>
       <r>    3.0043    1.0000 </r>
       <r>    3.0265    1.0000 </r>
       <r>    3.0351    1.0000 </r>
       <r>    3.0351    1.0000 </r>
       <r>    3.0993    1.0000 </r>
       <r>    3.1650    1.0000 </r>
       <r>    3.3051    1.0000 </r>
       <r>    3.3051    1.0000 </r>
       <r>    3.3705    1.0000 </r>
       <r>    3.4464    1.0000 </r>
       <r>    3.6005    1.0000 </r>
       <r>    3.6005    1.0000 </r>
       <r>    3.7058    1.0000 </r>
       <r>    3.7058    1.0000 </r>
       <r>    3.8605    1.0000 </r>
       <r>    3.8810    1.0000 </r>
       <r>    3.8984    1.0000 </r>
       <r>    3.8984    1.0000 </r>
       <r>    4.0273    1.0000 </r>
       <r>    4.0273    1.0000 </r>
       <r>    4.3003    1.0000 </r>
       <r>    4.3201    1.0000 </r>
       <r>    4.3201    1.0000 </r>
       <r>    4.3598    1.0000 </r>
       <r>    4.4037    1.0000 </r>
       <r>    4.4037    1.0000 </r>
       <r>    4.5904    1.0000 </r>
       <r>    4.8922    1.0000 </r>
       <r>    4.8922    1.0000 </r>
       <r>    5.1583    1.0000 </r>
       <r>    5.1583    1.0000 </r>
       <r>    5.4958    1.0000 </r>
       <r>    6.4639    0.0000 </r>
       <r>    6.4639    0.0000 </r>
       <r>    6.6374    0.0000 </r>
       <r>    6.6374    0.0000 </r>
       <r>    6.6518    0.0000 </r>
       <r>    6.8249    0.0000 </r>
       <r>    6.9171    0.0000 </r>
       <r>    6.9171    0.0000 </r>
       <r>    7.2803    0.0000 </r>
       <r>    7.5811    0.0000 </r>
       <r>    7.5811    0.0000 </r>
       <r>    7.6066    0.0000 </r>
       <r>    7.6486    0.0000 </r>
       <r>    7.6486    0.0000 </r>
       <r>    7.7177    0.0000 </r>
       <r>    7.9658    0.0000 </r>
       <r>    8.0066    0.0000 </r>
       <r>    8.0673    0.0000 </r>
       <r>    8.0673    0.0000 </r>
       <r>    8.0790    0.0000 </r>
       <r>    8.2574    0.0000 </r>
       <r>    8.2574    0.0000 </r>
       <r>    8.3441    0.0000 </r>
       <r>    8.3551    0.0000 </r>
       <r>    8.3551    0.0000 </r>
       <r>    8.3987    0.0000 </r>
       <r>    8.3987    0.0000 </r>
       <r>    8.4243    0.0000 </r>
       <r>    8.8243    0.0000 </r>
       <r>    8.8243    0.0000 </r>
       <r>    8.8768    0.0000 </r>
       <r>    8.8768    0.0000 </r>
       <r>    8.9404    0.0000 </r>
       <r>    8.9423    0.0000 </r>
       <r>    8.9905    0.0000 </r>
       <r>    8.9909    0.0000 </r>
       <r>    9.0580    0.0000 </r>
       <r>    9.0632    0.0000 </r>
      </set>
      <set comment="kpoint 4">
       <r>   -6.1963    1.0000 </r>
       <r>   -5.3183    1.0000 </r>
       <r>   -5.3117    1.0000 </r>
       <r>   -5.2823    1.0000 </r>
       <r>   -5.2823    1.0000 </r>
       <r>   -5.0390    1.0000 </r>
       <r>   -4.4884    1.0000 </r>
       <r>   -4.4804    1.0000 </r>
       <r>   -4.4804    1.0000 </r>
       <r>   -4.4480    1.0000 </r>
       <r>   -4.3525    1.0000 </r>
       <r>   -4.2909    1.0000 </r>
       <r>   -4.2909    1.0000 </r>
       <r>   -4.0172    1.0000 </r>
       <r>   -3.6239    1.0000 </r>
       <r>   -3.5838    1.0000 </r>
       <r>   -3.5838    1.0000 </r>
       <r>   -3.5184    1.0000 </r>
       <r>   -3.3932    1.0000 </r>
       <r>   -3.2783    1.0000 </r>
       <r>   -3.2783    1.0000 </r>
       <r>   -3.2452    1.0000 </r>
       <r>   -2.8417    1.0000 </r>
       <r>   -2.5574    1.0000 </r>
       <r>   -2.5071    1.0000 </r>
       <r>   -2.5071    1.0000 </r>
       <r>   -2.0604    1.0000 </r>
       <r>   -1.6412    1.0000 </r>
       <r>   -1.5885    1.0000 </r>
       <r>   -1.5885    1.0000 </r>
       <r>   -1.3882    1.0000 </r>
       <r>   -1.1486    1.0000 </r>
       <r>   -1.1486    1.0000 </r>
       <r>   -1.1353    1.0000 </r>
       <r>   -0.9779    1.0000 </r>
       <r>   -0.7631    1.0000 </r>
       <r>   -0.6025    1.0000 </r>
       <r>   -0.5595    1.0000 </r>
       <r>   -0.5595    1.0000 </r>
       <r>   -0.4850    1.0000 </r>
       <r>   -0.3950    1.0000 </r>
       <r>   -0.3752    1.0000 </r>
       <r>   -0.3752    1.0000 </r>
       <r>    0.1293    1.0000 </r>
       <r>    0.4310    1.0000 </r>
       <r>    0.5195    1.0000 </r>
       <r>    0.5195    1.0000 </r>
       <r>    1.0495    1.0000 </r>
       <r>    1.2109    1.0000 </r>
       <r>    1.2449    1.0000 </r>
       <r>    1.2449    1.0000 </r>
       <r>    1.3542    1.0000 </r>
       <r>    1.3684    1.0000 </r>
       <r>    1.3684    1.0000 </r>
       <r>    1.3722    1.0000 </r>
       <r>    1.5031    1.0000 </r>
       <r>    1.5480    1.0000 </r>
       <r>    1.5600    1.0000 </r>
       <r>    1.5600    1.0000 </r>
       <r>    1.7391    1.0000 </r>
       <r>    1.8391    1.0000 </r>
       <r>    1.9149    1.0000 </r>
       <r>    1.9149    1.0000 </r>
       <r>    2.0097    1.0000 </r>
       <r>    2.7608    1.0000 </r>
       <r>    2.7697    1.0000 </r>
       <r>    2.7697    1.0000 </r>
       <r>    2.7847    1.0000 </r>
       <r>    2.8600    1.0000 </r>
       <r>    2.8633    1.0000 </r>
       <r>    2.8633    1.0000 </r>
       <r>    2.9789    1.0000 </r>
       <r>    3.0009    1.0000 </r>
       <r>    3.0009    1.0000 </r>
       <r>    3.2117    1.0000 </r>
       <r>    3.2421    1.0000 </r>
       <r>    3.2678    1.0000 </r>
       <r>    3.2678    1.0000 </r>
       <r>    3.5536    1.0000 </r>
       <r>    3.5649    1.0000 </r>
       <r>    3.5649    1.0000 </r>
       <r>    3.5911    1.0000 </r>
       <r>    3.5985    1.0000 </r>
       <r>    3.6155    1.0000 </r>
       <r>    3.6422    1.0000 </r>
       <r>    3.6422    1.0000 </r>
       <r>    3.8928    1.0000 </r>
       <r>    3.8928    1.0000 </r>
       <r>    3.9109    1.0000 </r>
       <r>    3.9412    1.0000 </r>
       <r>    3.9609    1.0000 </r>
       <r>    3.9609    1.0000 </r>
       <r>    4.0636    1.0000 </r>
       <r>    4.1197    1.0000 </r>
       <r>    4.1197    1.0000 </r>
       <r>    4.2118    1.0000 </r>
       <r>    4.2176    1.0000 </r>
       <r>    4.2381    1.0000 </r>
       <r>    4.6103    1.0000 </r>
       <r>    4.6103    1.0000 </r>
       <r>    4.7409    1.0000 </r>
       <r>    4.9316    1.0000 </r>
       <r>    4.9526    1.0000 </r>
       <r>    5.0946    1.0000 </r>
       <r>    5.0946    1.0000 </r>
       <r>    6.0384    1.0000 </r>
       <r>    6.3605    0.0121 </r>
       <r>    6.4493    0.0000 </r>
       <r>    6.4493    0.0000 </r>
       <r>    6.7546    0.0000 </r>
       <r>    6.8511    0.0000 </r>
       <r>    7.0171    0.0000 </r>
       <r>    7.0582    0.0000 </r>
       <r>    7.0825    0.0000 </r>
       <r>    7.0825    0.0000 </r>
       <r>    7.3123    0.0000 </r>
       <r>    7.3123    0.0000 </r>
       <r>    7.4214    0.0000 </r>
       <r>    7.4311    0.0000 </r>
       <r>    7.4419    0.0000 </r>
       <r>    7.4548    0.0000 </r>
       <r>    7.4737    0.0000 </r>
       <r>    7.4737    0.0000 </r>
       <r>    7.7865    0.0000 </r>
       <r>    7.8114    0.0000 </r>
       <r>    7.8114    0.0000 </r>
       <r>    7.8582    0.0000 </r>
       <r>    7.9767    0.0000 </r>
       <r>    8.0521    0.0000 </r>
       <r>    8.0521    0.0000 </r>
       <r>    8.0775    0.0000 </r>
       <r>    8.0899    0.0000 </r>
       <r>    8.0925    0.0000 </r>
       <r>    8.0925    0.0000 </r>
       <r>    8.1579    0.0000 </r>
       <r>    8.2939    0.0000 </r>
       <r>    8.3343    0.0000 </r>
       <r>    8.3416    0.0000 </r>
       <r>    8.3416    0.0000 </r>
       <r>    8.7681    0.0000 </r>
       <r>    8.7820    0.0000 </r>
       <r>    8.7820    0.0000 </r>
       <r>    8.9510    0.0000 </r>
       <r>    8.9541    0.0000 </r>
      </set>
      <set comment="kpoint 5">
       <r>   -5.9983    1.0000 </r>
       <r>   -5.7494    1.0000 </r>
       <r>   -5.5170    1.0000 </r>
       <r>   -5.3028    1.0000 </r>
       <r>   -5.2089    1.0000 </r>
       <r>   -4.8158    1.0000 </r>
       <r>   -4.6133    1.0000 </r>
       <r>   -4.5934    1.0000 </r>
       <r>   -4.3785    1.0000 </r>
       <r>   -4.2194    1.0000 </r>
       <r>   -4.1720    1.0000 </r>
       <r>   -4.1021    1.0000 </r>
       <r>   -4.0292    1.0000 </r>
       <r>   -3.9299    1.0000 </r>
       <r>   -3.7219    1.0000 </r>
       <r>   -3.7148    1.0000 </r>
       <r>   -3.6628    1.0000 </r>
       <r>   -3.5428    1.0000 </r>
       <r>   -3.5001    1.0000 </r>
       <r>   -3.4586    1.0000 </r>
       <r>   -3.3931    1.0000 </r>
       <r>   -2.9762    1.0000 </r>
       <r>   -2.7633    1.0000 </r>
       <r>   -2.6950    1.0000 </r>
       <r>   -2.6126    1.0000 </r>
       <r>   -2.5643    1.0000 </r>
       <r>   -2.0540    1.0000 </r>
       <r>   -1.5497    1.0000 </r>
       <r>   -1.5415    1.0000 </r>
       <r>   -1.4881    1.0000 </r>
       <r>   -1.4782    1.0000 </r>
       <r>   -1.3119    1.0000 </r>
       <r>   -1.1626    1.0000 </r>
       <r>   -1.0840    1.0000 </r>
       <r>   -1.0640    1.0000 </r>
       <r>   -0.9682    1.0000 </r>
       <r>   -0.7877    1.0000 </r>
       <r>   -0.7115    1.0000 </r>
       <r>   -0.6635    1.0000 </r>
       <r>   -0.6618    1.0000 </r>
       <r>   -0.4786    1.0000 </r>
       <r>   -0.3685    1.0000 </r>
       <r>   -0.1242    1.0000 </r>
       <r>    0.0236    1.0000 </r>
       <r>    0.0289    1.0000 </r>
       <r>    0.4825    1.0000 </r>
       <r>    0.7058    1.0000 </r>
       <r>    0.8079    1.0000 </r>
       <r>    1.4248    1.0000 </r>
       <r>    1.5464    1.0000 </r>
       <r>    1.5819    1.0000 </r>
       <r>    1.6525    1.0000 </r>
       <r>    1.7272    1.0000 </r>
       <r>    1.7803    1.0000 </r>
       <r>    1.9107    1.0000 </r>
       <r>    1.9128    1.0000 </r>
       <r>    2.0236    1.0000 </r>
       <r>    2.0878    1.0000 </r>
       <r>    2.1005    1.0000 </r>
       <r>    2.1768    1.0000 </r>
       <r>    2.1789    1.0000 </r>
       <r>    2.2395    1.0000 </r>
       <r>    2.2767    1.0000 </r>
       <r>    2.3466    1.0000 </r>
       <r>    2.3961    1.0000 </r>
       <r>    2.4209    1.0000 </r>
       <r>    2.4819    1.0000 </r>
       <r>    2.6165    1.0000 </r>
       <r>    2.6574    1.0000 </r>
       <r>    2.6636    1.0000 </r>
       <r>    2.7030    1.0000 </r>
       <r>    2.7580    1.0000 </r>
       <r>    2.7679    1.0000 </r>
       <r>    2.8535    1.0000 </r>
       <r>    2.8900    1.0000 </r>
       <r>    2.9931    1.0000 </r>
       <r>    2.9993    1.0000 </r>
       <r>    3.0328    1.0000 </r>
       <r>    3.1107    1.0000 </r>
       <r>    3.1354    1.0000 </r>
       <r>    3.1454    1.0000 </r>
       <r>    3.3631    1.0000 </r>
       <r>    3.4485    1.0000 </r>
       <r>    3.4720    1.0000 </r>
       <r>    3.5187    1.0000 </r>
       <r>    3.5517    1.0000 </r>
       <r>    3.5851    1.0000 </r>
       <r>    3.6527    1.0000 </r>
       <r>    3.7438    1.0000 </r>
       <r>    3.8530    1.0000 </r>
       <r>    3.8543    1.0000 </r>
       <r>    3.9815    1.0000 </r>
       <r>    3.9866    1.0000 </r>
       <r>    4.0167    1.0000 </r>
       <r>    4.0295    1.0000 </r>
       <r>    4.0932    1.0000 </r>
       <r>    4.1802    1.0000 </r>
       <r>    4.1978    1.0000 </r>
       <r>    4.3411    1.0000 </r>
       <r>    4.5158    1.0000 </r>
       <r>    4.6502    1.0000 </r>
       <r>    4.7285    1.0000 </r>
       <r>    4.7552    1.0000 </r>
       <r>    4.8809    1.0000 </r>
       <r>    5.1239    1.0000 </r>
       <r>    5.6028    1.0000 </r>
       <r>    6.2666    0.6559 </r>
       <r>    6.4329    0.0000 </r>
       <r>    6.4807    0.0000 </r>
       <r>    7.0148    0.0000 </r>
       <r>    7.1573    0.0000 </r>
       <r>    7.1584    0.0000 </r>
       <r>    7.1847    0.0000 </r>
       <r>    7.3884    0.0000 </r>
       <r>    7.4381    0.0000 </r>
       <r>    7.4519    0.0000 </r>
       <r>    7.6553    0.0000 </r>
       <r>    7.7281    0.0000 </r>
       <r>    7.8041    0.0000 </r>
       <r>    7.8350    0.0000 </r>
       <r>    7.8915    0.0000 </r>
       <r>    7.9910    0.0000 </r>
       <r>    8.0536    0.0000 </r>
       <r>    8.0745    0.0000 </r>
       <r>    8.2136    0.0000 </r>
       <r>    8.2451    0.0000 </r>
       <r>    8.2770    0.0000 </r>
       <r>    8.3236    0.0000 </r>
       <r>    8.3385    0.0000 </r>
       <r>    8.3772    0.0000 </r>
       <r>    8.4960    0.0000 </r>
       <r>    8.5919    0.0000 </r>
       <r>    8.5973    0.0000 </r>
       <r>    8.6064    0.0000 </r>
       <r>    8.6411    0.0000 </r>
       <r>    8.7081    0.0000 </r>
       <r>    8.7531    0.0000 </r>
       <r>    8.8122    0.0000 </r>
       <r>    8.8273    0.0000 </r>
       <r>    8.8611    0.0000 </r>
       <r>    8.8872    0.0000 </r>
       <r>    8.9152    0.0000 </r>
       <r>    8.9582    0.0000 </r>
       <r>    8.9640    0.0000 </r>
      </set>
      <set comment="kpoint 6">
       <r>   -6.0821    1.0000 </r>
       <r>   -5.6388    1.0000 </r>
       <r>   -5.5655    1.0000 </r>
       <r>   -5.1517    1.0000 </r>
       <r>   -5.0815    1.0000 </r>
       <r>   -4.7585    1.0000 </r>
       <r>   -4.7487    1.0000 </r>
       <r>   -4.6935    1.0000 </r>
       <r>   -4.5663    1.0000 </r>
       <r>   -4.3038    1.0000 </r>
       <r>   -4.2207    1.0000 </r>
       <r>   -4.1946    1.0000 </r>
       <r>   -4.0849    1.0000 </r>
       <r>   -3.9274    1.0000 </r>
       <r>   -3.6622    1.0000 </r>
       <r>   -3.6289    1.0000 </r>
       <r>   -3.5969    1.0000 </r>
       <r>   -3.4630    1.0000 </r>
       <r>   -3.3190    1.0000 </r>
       <r>   -3.2589    1.0000 </r>
       <r>   -3.1582    1.0000 </r>
       <r>   -3.0955    1.0000 </r>
       <r>   -3.0926    1.0000 </r>
       <r>   -2.8679    1.0000 </r>
       <r>   -2.7977    1.0000 </r>
       <r>   -2.4361    1.0000 </r>
       <r>   -2.0865    1.0000 </r>
       <r>   -1.7801    1.0000 </r>
       <r>   -1.2897    1.0000 </r>
       <r>   -1.2145    1.0000 </r>
       <r>   -1.1520    1.0000 </r>
       <r>   -1.1315    1.0000 </r>
       <r>   -1.0949    1.0000 </r>
       <r>   -1.0928    1.0000 </r>
       <r>   -1.0165    1.0000 </r>
       <r>   -0.9574    1.0000 </r>
       <r>   -0.9552    1.0000 </r>
       <r>   -0.9064    1.0000 </r>
       <r>   -0.8893    1.0000 </r>
       <r>   -0.7107    1.0000 </r>
       <r>   -0.7098    1.0000 </r>
       <r>   -0.1255    1.0000 </r>
       <r>    0.1404    1.0000 </r>
       <r>    0.2197    1.0000 </r>
       <r>    0.2750    1.0000 </r>
       <r>    0.3549    1.0000 </r>
       <r>    0.4657    1.0000 </r>
       <r>    0.4735    1.0000 </r>
       <r>    1.3808    1.0000 </r>
       <r>    1.4331    1.0000 </r>
       <r>    1.4921    1.0000 </r>
       <r>    1.6466    1.0000 </r>
       <r>    1.6588    1.0000 </r>
       <r>    1.6791    1.0000 </r>
       <r>    1.6980    1.0000 </r>
       <r>    1.7853    1.0000 </r>
       <r>    1.8690    1.0000 </r>
       <r>    1.8968    1.0000 </r>
       <r>    2.0169    1.0000 </r>
       <r>    2.0589    1.0000 </r>
       <r>    2.0881    1.0000 </r>
       <r>    2.1272    1.0000 </r>
       <r>    2.1542    1.0000 </r>
       <r>    2.2831    1.0000 </r>
       <r>    2.5081    1.0000 </r>
       <r>    2.5197    1.0000 </r>
       <r>    2.5445    1.0000 </r>
       <r>    2.5822    1.0000 </r>
       <r>    2.6131    1.0000 </r>
       <r>    2.7208    1.0000 </r>
       <r>    2.7219    1.0000 </r>
       <r>    2.7815    1.0000 </r>
       <r>    2.9711    1.0000 </r>
       <r>    2.9943    1.0000 </r>
       <r>    3.0165    1.0000 </r>
       <r>    3.0705    1.0000 </r>
       <r>    3.0990    1.0000 </r>
       <r>    3.1680    1.0000 </r>
       <r>    3.1899    1.0000 </r>
       <r>    3.2178    1.0000 </r>
       <r>    3.3336    1.0000 </r>
       <r>    3.3418    1.0000 </r>
       <r>    3.3678    1.0000 </r>
       <r>    3.5376    1.0000 </r>
       <r>    3.5571    1.0000 </r>
       <r>    3.6577    1.0000 </r>
       <r>    3.6614    1.0000 </r>
       <r>    3.6853    1.0000 </r>
       <r>    3.7818    1.0000 </r>
       <r>    3.7871    1.0000 </r>
       <r>    3.9009    1.0000 </r>
       <r>    4.0018    1.0000 </r>
       <r>    4.0258    1.0000 </r>
       <r>    4.2337    1.0000 </r>
       <r>    4.2869    1.0000 </r>
       <r>    4.3089    1.0000 </r>
       <r>    4.3646    1.0000 </r>
       <r>    4.3776    1.0000 </r>
       <r>    4.4417    1.0000 </r>
       <r>    4.5150    1.0000 </r>
       <r>    4.5449    1.0000 </r>
       <r>    4.5836    1.0000 </r>
       <r>    4.6244    1.0000 </r>
       <r>    4.7369    1.0000 </r>
       <r>    5.2674    1.0000 </r>
       <r>    5.7735    1.0000 </r>
       <r>    6.2398    0.8770 </r>
       <r>    6.5061    0.0000 </r>
       <r>    6.6014    0.0000 </r>
       <r>    6.9130    0.0000 </r>
       <r>    6.9482    0.0000 </r>
       <r>    7.0615    0.0000 </r>
       <r>    7.1992    0.0000 </r>
       <r>    7.3502    0.0000 </r>
       <r>    7.3561    0.0000 </r>
       <r>    7.3943    0.0000 </r>
       <r>    7.4149    0.0000 </r>
       <r>    7.5736    0.0000 </r>
       <r>    7.5786    0.0000 </r>
       <r>    7.6283    0.0000 </r>
       <r>    7.6307    0.0000 </r>
       <r>    7.7916    0.0000 </r>
       <r>    7.8298    0.0000 </r>
       <r>    8.0368    0.0000 </r>
       <r>    8.0835    0.0000 </r>
       <r>    8.2095    0.0000 </r>
       <r>    8.2239    0.0000 </r>
       <r>    8.2326    0.0000 </r>
       <r>    8.2328    0.0000 </r>
       <r>    8.2711    0.0000 </r>
       <r>    8.3019    0.0000 </r>
       <r>    8.3460    0.0000 </r>
       <r>    8.3499    0.0000 </r>
       <r>    8.3889    0.0000 </r>
       <r>    8.5258    0.0000 </r>
       <r>    8.6291    0.0000 </r>
       <r>    8.6543    0.0000 </r>
       <r>    8.8319    0.0000 </r>
       <r>    8.8398    0.0000 </r>
       <r>    8.8554    0.0000 </r>
       <r>    8.8782    0.0000 </r>
       <r>    8.9412    0.0000 </r>
       <r>    8.9578    0.0000 </r>
       <r>    9.0111    0.0000 </r>
      </set>
      <set comment="kpoint 7">
       <r>   -5.8705    1.0000 </r>
       <r>   -5.8253    1.0000 </r>
       <r>   -5.4220    1.0000 </r>
       <r>   -5.3898    1.0000 </r>
       <r>   -5.3898    1.0000 </r>
       <r>   -5.1717    1.0000 </r>
       <r>   -4.0979    1.0000 </r>
       <r>   -4.0906    1.0000 </r>
       <r>   -4.0906    1.0000 </r>
       <r>   -4.0815    1.0000 </r>
       <r>   -4.0503    1.0000 </r>
       <r>   -3.9972    1.0000 </r>
       <r>   -3.9972    1.0000 </r>
       <r>   -3.9893    1.0000 </r>
       <r>   -3.9007    1.0000 </r>
       <r>   -3.8786    1.0000 </r>
       <r>   -3.8786    1.0000 </r>
       <r>   -3.8712    1.0000 </r>
       <r>   -3.7635    1.0000 </r>
       <r>   -3.7635    1.0000 </r>
       <r>   -3.7292    1.0000 </r>
       <r>   -2.9568    1.0000 </r>
       <r>   -2.1864    1.0000 </r>
       <r>   -2.1854    1.0000 </r>
       <r>   -2.1040    1.0000 </r>
       <r>   -2.0910    1.0000 </r>
       <r>   -2.0910    1.0000 </r>
       <r>   -2.0667    1.0000 </r>
       <r>   -1.9913    1.0000 </r>
       <r>   -1.9781    1.0000 </r>
       <r>   -1.9781    1.0000 </r>
       <r>   -1.3982    1.0000 </r>
       <r>   -1.0211    1.0000 </r>
       <r>   -1.0211    1.0000 </r>
       <r>   -1.0154    1.0000 </r>
       <r>   -0.9861    1.0000 </r>
       <r>   -0.8452    1.0000 </r>
       <r>   -0.8452    1.0000 </r>
       <r>   -0.8256    1.0000 </r>
       <r>   -0.4849    1.0000 </r>
       <r>   -0.0506    1.0000 </r>
       <r>   -0.0460    1.0000 </r>
       <r>   -0.0460    1.0000 </r>
       <r>   -0.0066    1.0000 </r>
       <r>   -0.0025    1.0000 </r>
       <r>    0.1748    1.0000 </r>
       <r>    0.1748    1.0000 </r>
       <r>    1.4283    1.0000 </r>
       <r>    1.8827    1.0000 </r>
       <r>    1.9075    1.0000 </r>
       <r>    1.9075    1.0000 </r>
       <r>    1.9529    1.0000 </r>
       <r>    1.9530    1.0000 </r>
       <r>    1.9557    1.0000 </r>
       <r>    1.9557    1.0000 </r>
       <r>    1.9636    1.0000 </r>
       <r>    1.9672    1.0000 </r>
       <r>    1.9672    1.0000 </r>
       <r>    1.9918    1.0000 </r>
       <r>    2.0081    1.0000 </r>
       <r>    2.0613    1.0000 </r>
       <r>    2.0613    1.0000 </r>
       <r>    2.0625    1.0000 </r>
       <r>    2.0993    1.0000 </r>
       <r>    2.3386    1.0000 </r>
       <r>    2.3386    1.0000 </r>
       <r>    2.3736    1.0000 </r>
       <r>    2.5634    1.0000 </r>
       <r>    2.7730    1.0000 </r>
       <r>    2.7730    1.0000 </r>
       <r>    2.8340    1.0000 </r>
       <r>    2.8587    1.0000 </r>
       <r>    2.8587    1.0000 </r>
       <r>    2.8722    1.0000 </r>
       <r>    2.9676    1.0000 </r>
       <r>    2.9676    1.0000 </r>
       <r>    2.9872    1.0000 </r>
       <r>    3.1349    1.0000 </r>
       <r>    3.1958    1.0000 </r>
       <r>    3.2146    1.0000 </r>
       <r>    3.2146    1.0000 </r>
       <r>    3.2838    1.0000 </r>
       <r>    3.2843    1.0000 </r>
       <r>    3.3110    1.0000 </r>
       <r>    3.3110    1.0000 </r>
       <r>    3.3993    1.0000 </r>
       <r>    3.4073    1.0000 </r>
       <r>    3.5268    1.0000 </r>
       <r>    3.5756    1.0000 </r>
       <r>    3.5756    1.0000 </r>
       <r>    3.8107    1.0000 </r>
       <r>    3.8107    1.0000 </r>
       <r>    3.8125    1.0000 </r>
       <r>    3.8192    1.0000 </r>
       <r>    3.8694    1.0000 </r>
       <r>    3.8857    1.0000 </r>
       <r>    4.1932    1.0000 </r>
       <r>    4.1932    1.0000 </r>
       <r>    4.4538    1.0000 </r>
       <r>    4.4538    1.0000 </r>
       <r>    4.7572    1.0000 </r>
       <r>    4.7572    1.0000 </r>
       <r>    4.9045    1.0000 </r>
       <r>    5.0473    1.0000 </r>
       <r>    5.0747    1.0000 </r>
       <r>    5.3137    1.0000 </r>
       <r>    6.3702    0.0057 </r>
       <r>    6.3702    0.0057 </r>
       <r>    6.3818    0.0021 </r>
       <r>    6.4109    0.0001 </r>
       <r>    7.3192    0.0000 </r>
       <r>    7.3643    0.0000 </r>
       <r>    7.6351    0.0000 </r>
       <r>    7.6360    0.0000 </r>
       <r>    7.6389    0.0000 </r>
       <r>    7.6389    0.0000 </r>
       <r>    7.6929    0.0000 </r>
       <r>    7.6929    0.0000 </r>
       <r>    8.0405    0.0000 </r>
       <r>    8.0656    0.0000 </r>
       <r>    8.3584    0.0000 </r>
       <r>    8.3584    0.0000 </r>
       <r>    8.3608    0.0000 </r>
       <r>    8.3647    0.0000 </r>
       <r>    8.3674    0.0000 </r>
       <r>    8.3712    0.0000 </r>
       <r>    8.3712    0.0000 </r>
       <r>    8.3743    0.0000 </r>
       <r>    8.4699    0.0000 </r>
       <r>    8.5506    0.0000 </r>
       <r>    8.5757    0.0000 </r>
       <r>    8.5985    0.0000 </r>
       <r>    8.5985    0.0000 </r>
       <r>    8.6088    0.0000 </r>
       <r>    8.6446    0.0000 </r>
       <r>    8.6446    0.0000 </r>
       <r>    8.6657    0.0000 </r>
       <r>    8.6657    0.0000 </r>
       <r>    9.0124    0.0000 </r>
       <r>    9.1556    0.0000 </r>
       <r>    9.1773    0.0000 </r>
       <r>    9.1897    0.0000 </r>
       <r>    9.2456    0.0000 </r>
       <r>    9.2501    0.0000 </r>
      </set>
      <set comment="kpoint 8">
       <r>   -5.7929    1.0000 </r>
       <r>   -5.7576    1.0000 </r>
       <r>   -5.7497    1.0000 </r>
       <r>   -5.5455    1.0000 </r>
       <r>   -4.8451    1.0000 </r>
       <r>   -4.8316    1.0000 </r>
       <r>   -4.7851    1.0000 </r>
       <r>   -4.6785    1.0000 </r>
       <r>   -4.0433    1.0000 </r>
       <r>   -4.0262    1.0000 </r>
       <r>   -4.0217    1.0000 </r>
       <r>   -4.0208    1.0000 </r>
       <r>   -3.9735    1.0000 </r>
       <r>   -3.9470    1.0000 </r>
       <r>   -3.8933    1.0000 </r>
       <r>   -3.8813    1.0000 </r>
       <r>   -3.7631    1.0000 </r>
       <r>   -3.7525    1.0000 </r>
       <r>   -3.7021    1.0000 </r>
       <r>   -3.3879    1.0000 </r>
       <r>   -3.1355    1.0000 </r>
       <r>   -3.1019    1.0000 </r>
       <r>   -3.0145    1.0000 </r>
       <r>   -2.6336    1.0000 </r>
       <r>   -2.1681    1.0000 </r>
       <r>   -2.1645    1.0000 </r>
       <r>   -2.0905    1.0000 </r>
       <r>   -2.0661    1.0000 </r>
       <r>   -1.9588    1.0000 </r>
       <r>   -1.6089    1.0000 </r>
       <r>   -1.2148    1.0000 </r>
       <r>   -1.2016    1.0000 </r>
       <r>   -1.1963    1.0000 </r>
       <r>   -1.1921    1.0000 </r>
       <r>   -1.0334    1.0000 </r>
       <r>   -0.9451    1.0000 </r>
       <r>   -0.9153    1.0000 </r>
       <r>   -0.7063    1.0000 </r>
       <r>   -0.4392    1.0000 </r>
       <r>   -0.4305    1.0000 </r>
       <r>   -0.4169    1.0000 </r>
       <r>   -0.4017    1.0000 </r>
       <r>   -0.3101    1.0000 </r>
       <r>   -0.2287    1.0000 </r>
       <r>   -0.2077    1.0000 </r>
       <r>    0.6008    1.0000 </r>
       <r>    0.9320    1.0000 </r>
       <r>    1.0141    1.0000 </r>
       <r>    1.0224    1.0000 </r>
       <r>    1.7913    1.0000 </r>
       <r>    1.7946    1.0000 </r>
       <r>    1.8040    1.0000 </r>
[...]
        <r>  0.0005  0.0015  0.0000 </r>
        <r>  0.0016  0.0024  0.0000 </r>
        <r>  0.0002  0.0043  0.0000 </r>
        <r>  0.0005  0.0015  0.0000 </r>
        <r>  0.0006  0.0088  0.0000 </r>
        <r>  0.0000  0.0042  0.0000 </r>
        <r>  0.0002  0.0043  0.0000 </r>
        <r>  0.0006  0.0088  0.0000 </r>
        <r>  0.0002  0.0043  0.0000 </r>
       </set>
       <set comment="band 138">
        <r>  0.0004  0.0028  0.0000 </r>
        <r>  0.0004  0.0028  0.0000 </r>
        <r>  0.0002  0.0069  0.0000 </r>
        <r>  0.0011  0.0050  0.0000 </r>
        <r>  0.0004  0.0028  0.0000 </r>
        <r>  0.0002  0.0070  0.0000 </r>
        <r>  0.0004  0.0028  0.0000 </r>
        <r>  0.0000  0.0066  0.0000 </r>
        <r>  0.0004  0.0028  0.0000 </r>
        <r>  0.0011  0.0050  0.0000 </r>
        <r>  0.0002  0.0069  0.0000 </r>
        <r>  0.0011  0.0051  0.0000 </r>
        <r>  0.0011  0.0051  0.0000 </r>
        <r>  0.0001  0.0042  0.0000 </r>
        <r>  0.0004  0.0028  0.0000 </r>
        <r>  0.0000  0.0001  0.0000 </r>
        <r>  0.0001  0.0042  0.0000 </r>
        <r>  0.0004  0.0028  0.0000 </r>
        <r>  0.0002  0.0069  0.0000 </r>
        <r>  0.0000  0.0066  0.0000 </r>
        <r>  0.0004  0.0028  0.0000 </r>
        <r>  0.0001  0.0042  0.0000 </r>
        <r>  0.0000  0.0001  0.0000 </r>
        <r>  0.0000  0.0066  0.0000 </r>
        <r>  0.0001  0.0042  0.0000 </r>
        <r>  0.0000  0.0066  0.0000 </r>
        <r>  0.0000  0.0025  0.0000 </r>
        <r>  0.0012  0.0043  0.0000 </r>
        <r>  0.0012  0.0043  0.0000 </r>
        <r>  0.0005  0.0014  0.0000 </r>
        <r>  0.0006  0.0017  0.0000 </r>
        <r>  0.0012  0.0043  0.0000 </r>
        <r>  0.0005  0.0014  0.0000 </r>
        <r>  0.0012  0.0043  0.0000 </r>
        <r>  0.0013  0.0007  0.0000 </r>
        <r>  0.0012  0.0043  0.0000 </r>
        <r>  0.0006  0.0017  0.0000 </r>
        <r>  0.0005  0.0014  0.0000 </r>
        <r>  0.0006  0.0017  0.0000 </r>
        <r>  0.0006  0.0017  0.0000 </r>
        <r>  0.0024  0.0022  0.0000 </r>
        <r>  0.0012  0.0043  0.0000 </r>
        <r>  0.0003  0.0007  0.0000 </r>
        <r>  0.0024  0.0022  0.0000 </r>
        <r>  0.0012  0.0043  0.0000 </r>
        <r>  0.0005  0.0014  0.0000 </r>
        <r>  0.0014  0.0007  0.0000 </r>
        <r>  0.0012  0.0043  0.0000 </r>
        <r>  0.0024  0.0022  0.0000 </r>
        <r>  0.0003  0.0007  0.0000 </r>
        <r>  0.0014  0.0007  0.0000 </r>
        <r>  0.0024  0.0022  0.0000 </r>
        <r>  0.0013  0.0007  0.0000 </r>
       </set>
       <set comment="band 139">
        <r>  0.0004  0.0047  0.0000 </r>
        <r>  0.0004  0.0047  0.0000 </r>
        <r>  0.0014  0.0016  0.0000 </r>
        <r>  0.0034  0.0017  0.0000 </r>
        <r>  0.0004  0.0047  0.0000 </r>
        <r>  0.0014  0.0016  0.0000 </r>
        <r>  0.0004  0.0047  0.0000 </r>
        <r>  0.0024  0.0017  0.0000 </r>
        <r>  0.0004  0.0046  0.0000 </r>
        <r>  0.0035  0.0016  0.0000 </r>
        <r>  0.0014  0.0016  0.0000 </r>
        <r>  0.0035  0.0016  0.0000 </r>
        <r>  0.0035  0.0016  0.0000 </r>
        <r>  0.0000  0.0031  0.0000 </r>
        <r>  0.0004  0.0046  0.0000 </r>
        <r>  0.0000  0.0008  0.0000 </r>
        <r>  0.0000  0.0031  0.0000 </r>
        <r>  0.0004  0.0047  0.0000 </r>
        <r>  0.0014  0.0016  0.0000 </r>
        <r>  0.0023  0.0017  0.0000 </r>
        <r>  0.0004  0.0047  0.0000 </r>
        <r>  0.0000  0.0030  0.0000 </r>
        <r>  0.0000  0.0008  0.0000 </r>
        <r>  0.0023  0.0017  0.0000 </r>
        <r>  0.0000  0.0031  0.0000 </r>
        <r>  0.0024  0.0017  0.0000 </r>
        <r>  0.0007  0.0000  0.0000 </r>
        <r>  0.0002  0.0071  0.0000 </r>
        <r>  0.0002  0.0069  0.0000 </r>
        <r>  0.0000  0.0028  0.0000 </r>
        <r>  0.0000  0.0016  0.0000 </r>
        <r>  0.0002  0.0069  0.0000 </r>
        <r>  0.0000  0.0028  0.0000 </r>
        <r>  0.0002  0.0070  0.0000 </r>
        <r>  0.0000  0.0018  0.0000 </r>
        <r>  0.0002  0.0070  0.0000 </r>
        <r>  0.0000  0.0017  0.0000 </r>
        <r>  0.0000  0.0028  0.0000 </r>
        <r>  0.0000  0.0017  0.0000 </r>
        <r>  0.0000  0.0016  0.0000 </r>
        <r>  0.0000  0.0116  0.0000 </r>
        <r>  0.0002  0.0069  0.0000 </r>
        <r>  0.0007  0.0000  0.0000 </r>
        <r>  0.0000  0.0116  0.0000 </r>
        <r>  0.0002  0.0071  0.0000 </r>
        <r>  0.0000  0.0028  0.0000 </r>
        <r>  0.0000  0.0018  0.0000 </r>
        <r>  0.0002  0.0071  0.0000 </r>
        <r>  0.0000  0.0116  0.0000 </r>
        <r>  0.0007  0.0000  0.0000 </r>
        <r>  0.0000  0.0018  0.0000 </r>
        <r>  0.0000  0.0116  0.0000 </r>
        <r>  0.0000  0.0018  0.0000 </r>
       </set>
       <set comment="band 140">
        <r>  0.0003  0.0058  0.0000 </r>
        <r>  0.0003  0.0057  0.0000 </r>
        <r>  0.0001  0.0040  0.0000 </r>
        <r>  0.0000  0.0073  0.0000 </r>
        <r>  0.0003  0.0057  0.0000 </r>
        <r>  0.0001  0.0040  0.0000 </r>
        <r>  0.0003  0.0057  0.0000 </r>
        <r>  0.0006  0.0031  0.0000 </r>
        <r>  0.0003  0.0057  0.0000 </r>
        <r>  0.0000  0.0074  0.0000 </r>
        <r>  0.0001  0.0040  0.0000 </r>
        <r>  0.0000  0.0074  0.0000 </r>
        <r>  0.0000  0.0073  0.0000 </r>
        <r>  0.0006  0.0099  0.0000 </r>
        <r>  0.0003  0.0057  0.0000 </r>
        <r>  0.0000  0.0008  0.0000 </r>
        <r>  0.0006  0.0098  0.0000 </r>
        <r>  0.0003  0.0057  0.0000 </r>
        <r>  0.0001  0.0040  0.0000 </r>
        <r>  0.0006  0.0030  0.0000 </r>
        <r>  0.0003  0.0056  0.0000 </r>
        <r>  0.0006  0.0100  0.0000 </r>
        <r>  0.0000  0.0008  0.0000 </r>
        <r>  0.0006  0.0030  0.0000 </r>
        <r>  0.0006  0.0099  0.0000 </r>
        <r>  0.0006  0.0030  0.0000 </r>
        <r>  0.0066  0.0000  0.0000 </r>
        <r>  0.0008  0.0025  0.0000 </r>
        <r>  0.0008  0.0026  0.0000 </r>
        <r>  0.0026  0.0035  0.0000 </r>
        <r>  0.0007  0.0018  0.0000 </r>
        <r>  0.0008  0.0025  0.0000 </r>
        <r>  0.0026  0.0034  0.0000 </r>
        <r>  0.0008  0.0026  0.0000 </r>
        <r>  0.0013  0.0040  0.0000 </r>
        <r>  0.0008  0.0025  0.0000 </r>
        <r>  0.0007  0.0018  0.0000 </r>
        <r>  0.0027  0.0035  0.0000 </r>
        <r>  0.0007  0.0018  0.0000 </r>
        <r>  0.0007  0.0018  0.0000 </r>
        <r>  0.0004  0.0023  0.0000 </r>
        <r>  0.0008  0.0026  0.0000 </r>
        <r>  0.0029  0.0001  0.0000 </r>
        <r>  0.0004  0.0023  0.0000 </r>
        <r>  0.0007  0.0026  0.0000 </r>
        <r>  0.0026  0.0035  0.0000 </r>
        <r>  0.0014  0.0039  0.0000 </r>
        <r>  0.0008  0.0026  0.0000 </r>
        <r>  0.0004  0.0023  0.0000 </r>
        <r>  0.0030  0.0001  0.0000 </r>
        <r>  0.0014  0.0039  0.0000 </r>
        <r>  0.0004  0.0023  0.0000 </r>
        <r>  0.0014  0.0040  0.0000 </r>
       </set>
       <set comment="band 141">
        <r>  0.0006  0.0013  0.0000 </r>
        <r>  0.0007  0.0013  0.0000 </r>
        <r>  0.0001  0.0050  0.0000 </r>
        <r>  0.0000  0.0103  0.0000 </r>
        <r>  0.0007  0.0013  0.0000 </r>
        <r>  0.0001  0.0050  0.0000 </r>
        <r>  0.0007  0.0012  0.0000 </r>
        <r>  0.0003  0.0078  0.0000 </r>
        <r>  0.0006  0.0013  0.0000 </r>
        <r>  0.0000  0.0102  0.0000 </r>
        <r>  0.0001  0.0052  0.0000 </r>
        <r>  0.0000  0.0103  0.0000 </r>
        <r>  0.0000  0.0102  0.0000 </r>
        <r>  0.0029  0.0020  0.0000 </r>
        <r>  0.0007  0.0013  0.0000 </r>
        <r>  0.0004  0.0002  0.0000 </r>
        <r>  0.0029  0.0019  0.0000 </r>
        <r>  0.0007  0.0013  0.0000 </r>
        <r>  0.0001  0.0051  0.0000 </r>
        <r>  0.0002  0.0081  0.0000 </r>
        <r>  0.0007  0.0013  0.0000 </r>
        <r>  0.0029  0.0020  0.0000 </r>
        <r>  0.0003  0.0002  0.0000 </r>
        <r>  0.0003  0.0080  0.0000 </r>
        <r>  0.0029  0.0020  0.0000 </r>
        <r>  0.0003  0.0080  0.0000 </r>
        <r>  0.0000  0.0143  0.0000 </r>
        <r>  0.0002  0.0018  0.0000 </r>
        <r>  0.0002  0.0019  0.0000 </r>
        <r>  0.0022  0.0030  0.0000 </r>
        <r>  0.0022  0.0009  0.0000 </r>
        <r>  0.0002  0.0019  0.0000 </r>
        <r>  0.0022  0.0030  0.0000 </r>
        <r>  0.0002  0.0019  0.0000 </r>
        <r>  0.0052  0.0018  0.0000 </r>
        <r>  0.0002  0.0019  0.0000 </r>
        <r>  0.0023  0.0009  0.0000 </r>
        <r>  0.0021  0.0030  0.0000 </r>
        <r>  0.0024  0.0009  0.0000 </r>
        <r>  0.0022  0.0009  0.0000 </r>
        <r>  0.0000  0.0012  0.0000 </r>
        <r>  0.0002  0.0019  0.0000 </r>
        <r>  0.0000  0.0062  0.0000 </r>
        <r>  0.0000  0.0012  0.0000 </r>
        <r>  0.0002  0.0019  0.0000 </r>
        <r>  0.0021  0.0030  0.0000 </r>
        <r>  0.0052  0.0018  0.0000 </r>
        <r>  0.0002  0.0019  0.0000 </r>
        <r>  0.0000  0.0012  0.0000 </r>
        <r>  0.0000  0.0061  0.0000 </r>
        <r>  0.0051  0.0018  0.0000 </r>
        <r>  0.0000  0.0012  0.0000 </r>
        <r>  0.0052  0.0018  0.0000 </r>
       </set>
       <set comment="band 142">
        <r>  0.0002  0.0022  0.0000 </r>
        <r>  0.0007  0.0024  0.0000 </r>
        <r>  0.0011  0.0050  0.0000 </r>
        <r>  0.0048  0.0005  0.0000 </r>
        <r>  0.0009  0.0027  0.0000 </r>
        <r>  0.0027  0.0008  0.0000 </r>
        <r>  0.0026  0.0030  0.0000 </r>
        <r>  0.0006  0.0034  0.0000 </r>
        <r>  0.0003  0.0022  0.0000 </r>
        <r>  0.0057  0.0005  0.0000 </r>
        <r>  0.0017  0.0036  0.0000 </r>
        <r>  0.0046  0.0006  0.0000 </r>
        <r>  0.0037  0.0006  0.0000 </r>
        <r>  0.0014  0.0087  0.0000 </r>
        <r>  0.0026  0.0031  0.0000 </r>
        <r>  0.0001  0.0004  0.0000 </r>
        <r>  0.0025  0.0038  0.0000 </r>
        <r>  0.0021  0.0027  0.0000 </r>
        <r>  0.0022  0.0023  0.0000 </r>
        <r>  0.0003  0.0033  0.0000 </r>
        <r>  0.0021  0.0027  0.0000 </r>
        <r>  0.0015  0.0069  0.0000 </r>
        <r>  0.0001  0.0004  0.0000 </r>
        <r>  0.0006  0.0035  0.0000 </r>
        <r>  0.0026  0.0019  0.0000 </r>
        <r>  0.0009  0.0036  0.0000 </r>
        <r>  0.0000  0.0048  0.0000 </r>
        <r>  0.0004  0.0039  0.0000 </r>
        <r>  0.0000  0.0053  0.0000 </r>
        <r>  0.0002  0.0031  0.0000 </r>
        <r>  0.0011  0.0093  0.0000 </r>
        <r>  0.0013  0.0028  0.0000 </r>
        <r>  0.0006  0.0027  0.0000 </r>
        <r>  0.0004  0.0073  0.0000 </r>
        <r>  0.0009  0.0073  0.0000 </r>
        <r>  0.0008  0.0031  0.0000 </r>
        <r>  0.0013  0.0099  0.0000 </r>
        <r>  0.0003  0.0031  0.0000 </r>
        <r>  0.0010  0.0088  0.0000 </r>
        <r>  0.0009  0.0082  0.0000 </r>
        <r>  0.0027  0.0007  0.0000 </r>
        <r>  0.0008  0.0061  0.0000 </r>
        <r>  0.0001  0.0041  0.0000 </r>
        <r>  0.0013  0.0011  0.0000 </r>
        <r>  0.0001  0.0073  0.0000 </r>
        <r>  0.0005  0.0027  0.0000 </r>
        <r>  0.0006  0.0056  0.0000 </r>
        <r>  0.0010  0.0050  0.0000 </r>
        <r>  0.0025  0.0007  0.0000 </r>
        <r>  0.0001  0.0041  0.0000 </r>
        <r>  0.0011  0.0085  0.0000 </r>
        <r>  0.0009  0.0014  0.0000 </r>
        <r>  0.0014  0.0102  0.0000 </r>
       </set>
       <set comment="band 143">
        <r>  0.0020  0.0044  0.0000 </r>
        <r>  0.0014  0.0047  0.0000 </r>
        <r>  0.0017  0.0043  0.0000 </r>
        <r>  0.0011  0.0012  0.0000 </r>
        <r>  0.0013  0.0045  0.0000 </r>
        <r>  0.0001  0.0088  0.0000 </r>
        <r>  0.0002  0.0037  0.0000 </r>
        <r>  0.0007  0.0065  0.0000 </r>
        <r>  0.0022  0.0049  0.0000 </r>
        <r>  0.0005  0.0013  0.0000 </r>
        <r>  0.0014  0.0053  0.0000 </r>
        <r>  0.0025  0.0012  0.0000 </r>
        <r>  0.0031  0.0012  0.0000 </r>
        <r>  0.0020  0.0063  0.0000 </r>
        <r>  0.0002  0.0036  0.0000 </r>
        <r>  0.0008  0.0001  0.0000 </r>
        <r>  0.0005  0.0114  0.0000 </r>
        <r>  0.0009  0.0040  0.0000 </r>
        <r>  0.0005  0.0072  0.0000 </r>
        <r>  0.0009  0.0069  0.0000 </r>
        <r>  0.0011  0.0041  0.0000 </r>
        <r>  0.0009  0.0083  0.0000 </r>
        <r>  0.0007  0.0001  0.0000 </r>
        <r>  0.0003  0.0069  0.0000 </r>
        <r>  0.0002  0.0132  0.0000 </r>
        <r>  0.0001  0.0067  0.0000 </r>
        <r>  0.0000  0.0021  0.0000 </r>
        <r>  0.0017  0.0043  0.0000 </r>
        <r>  0.0021  0.0023  0.0000 </r>
        <r>  0.0021  0.0011  0.0000 </r>
        <r>  0.0030  0.0042  0.0000 </r>
        <r>  0.0007  0.0045  0.0000 </r>
        <r>  0.0016  0.0013  0.0000 </r>
        <r>  0.0016  0.0016  0.0000 </r>
        <r>  0.0037  0.0044  0.0000 </r>
        <r>  0.0011  0.0047  0.0000 </r>
        <r>  0.0025  0.0038  0.0000 </r>
        <r>  0.0020  0.0011  0.0000 </r>
        <r>  0.0027  0.0048  0.0000 </r>
        <r>  0.0029  0.0054  0.0000 </r>
        <r>  0.0002  0.0011  0.0000 </r>
        <r>  0.0011  0.0025  0.0000 </r>
        <r>  0.0000  0.0020  0.0000 </r>
        <r>  0.0018  0.0006  0.0000 </r>
        <r>  0.0017  0.0024  0.0000 </r>
        <r>  0.0018  0.0012  0.0000 </r>
        <r>  0.0040  0.0058  0.0000 </r>
        <r>  0.0008  0.0039  0.0000 </r>
        <r>  0.0008  0.0008  0.0000 </r>
        <r>  0.0000  0.0019  0.0000 </r>
        <r>  0.0034  0.0021  0.0000 </r>
        <r>  0.0027  0.0002  0.0000 </r>
        <r>  0.0031  0.0007  0.0000 </r>
       </set>
       <set comment="band 144">
        <r>  0.0034  0.0038  0.0000 </r>
        <r>  0.0005  0.0023  0.0000 </r>
        <r>  0.0006  0.0018  0.0000 </r>
        <r>  0.0002  0.0055  0.0000 </r>
        <r>  0.0021  0.0013  0.0000 </r>
        <r>  0.0004  0.0028  0.0000 </r>
        <r>  0.0037  0.0017  0.0000 </r>
        <r>  0.0005  0.0009  0.0000 </r>
        <r>  0.0055  0.0025  0.0000 </r>
        <r>  0.0005  0.0032  0.0000 </r>
        <r>  0.0002  0.0054  0.0000 </r>
        <r>  0.0003  0.0039  0.0000 </r>
        <r>  0.0009  0.0019  0.0000 </r>
        <r>  0.0032  0.0044  0.0000 </r>
        <r>  0.0036  0.0024  0.0000 </r>
        <r>  0.0015  0.0038  0.0000 </r>
        <r>  0.0047  0.0023  0.0000 </r>
        <r>  0.0012  0.0011  0.0000 </r>
        <r>  0.0017  0.0063  0.0000 </r>
        <r>  0.0008  0.0010  0.0000 </r>
        <r>  0.0011  0.0017  0.0000 </r>
        <r>  0.0042  0.0021  0.0000 </r>
        <r>  0.0020  0.0017  0.0000 </r>
        <r>  0.0001  0.0009  0.0000 </r>
        <r>  0.0065  0.0055  0.0000 </r>
        <r>  0.0007  0.0007  0.0000 </r>
        <r>  0.0000  0.0059  0.0000 </r>
        <r>  0.0009  0.0048  0.0000 </r>
        <r>  0.0021  0.0025  0.0000 </r>
        <r>  0.0007  0.0074  0.0000 </r>
        <r>  0.0007  0.0022  0.0000 </r>
        <r>  0.0021  0.0043  0.0000 </r>
        <r>  0.0006  0.0049  0.0000 </r>
        <r>  0.0017  0.0076  0.0000 </r>
        <r>  0.0004  0.0079  0.0000 </r>
        <r>  0.0020  0.0072  0.0000 </r>
        <r>  0.0003  0.0018  0.0000 </r>
        <r>  0.0020  0.0049  0.0000 </r>
        <r>  0.0017  0.0011  0.0000 </r>
        <r>  0.0001  0.0009  0.0000 </r>
        <r>  0.0003  0.0043  0.0000 </r>
        <r>  0.0016  0.0058  0.0000 </r>
        <r>  0.0001  0.0066  0.0000 </r>
        <r>  0.0014  0.0050  0.0000 </r>
        <r>  0.0011  0.0040  0.0000 </r>
        <r>  0.0019  0.0027  0.0000 </r>
        <r>  0.0004  0.0076  0.0000 </r>
        <r>  0.0001  0.0028  0.0000 </r>
        <r>  0.0013  0.0045  0.0000 </r>
        <r>  0.0004  0.0130  0.0000 </r>
        <r>  0.0003  0.0061  0.0000 </r>
        <r>  0.0003  0.0041  0.0000 </r>
        <r>  0.0006  0.0093  0.0000 </r>
       </set>
      </set>
     </set>
    </set>
   </array>
  </projected>
 </calculation>
 <structure name="finalpos" >
  <crystal>
   <varray name="basis" >
    <v>       9.97646553       0.00000000       5.75991507 </v>
    <v>       3.32548851       9.40590192       5.75991507 </v>
    <v>       0.00000000       0.00000000      11.51983014 </v>
   </varray>
   <i name="volume">   1080.99386112 </i>
   <varray name="rec_basis" >
    <v>       0.10023590      -0.03543874       0.00000000 </v>
    <v>       0.00000000       0.10631623       0.00000000 </v>
    <v>      -0.05011795      -0.03543874       0.08680684 </v>
   </varray>
  </crystal>
  <varray name="positions" >
   <v>       0.29166667       0.29166667       0.62500000 </v>
   <v>       0.29166667       0.29166667       0.95833333 </v>
   <v>       0.29166667       0.62500000       0.29166667 </v>
   <v>       0.29166667       0.62500000       0.62500000 </v>
   <v>       0.29166667       0.62500000       0.95833333 </v>
   <v>       0.29166667       0.95833333       0.29166667 </v>
   <v>       0.29166667       0.95833333       0.62500000 </v>
   <v>       0.29166667       0.95833333       0.95833333 </v>
   <v>       0.62500000       0.29166667       0.29166667 </v>
   <v>       0.62500000       0.29166667       0.62500000 </v>
   <v>       0.62500000       0.29166667       0.95833333 </v>
   <v>       0.62500000       0.62500000       0.29166667 </v>
   <v>       0.62500000       0.62500000       0.62500000 </v>
   <v>       0.62500000       0.62500000       0.95833333 </v>
   <v>       0.62500000       0.95833333       0.29166667 </v>
   <v>       0.62500000       0.95833333       0.62500000 </v>
   <v>       0.62500000       0.95833333       0.95833333 </v>
   <v>       0.95833333       0.29166667       0.29166667 </v>
   <v>       0.95833333       0.29166667       0.62500000 </v>
   <v>       0.95833333       0.29166667       0.95833333 </v>
   <v>       0.95833333       0.62500000       0.29166667 </v>
   <v>       0.95833333       0.62500000       0.62500000 </v>
   <v>       0.95833333       0.62500000       0.95833333 </v>
   <v>       0.95833333       0.95833333       0.29166667 </v>
   <v>       0.95833333       0.95833333       0.62500000 </v>
   <v>       0.95833333       0.95833333       0.95833333 </v>
   <v>       0.04166667       0.04166667       0.04166667 </v>
   <v>       0.04166667       0.04166667       0.37500000 </v>
   <v>       0.04166667       0.04166667       0.70833333 </v>
   <v>       0.04166667       0.37500000       0.04166667 </v>
   <v>       0.04166667       0.37500000       0.37500000 </v>
   <v>       0.04166667       0.37500000       0.70833333 </v>
   <v>       0.04166667       0.70833333       0.04166667 </v>
   <v>       0.04166667       0.70833333       0.37500000 </v>
   <v>       0.04166667       0.70833333       0.70833333 </v>
   <v>       0.37500000       0.04166667       0.04166667 </v>
   <v>       0.37500000       0.04166667       0.37500000 </v>
   <v>       0.37500000       0.04166667       0.70833333 </v>
   <v>       0.37500000       0.37500000       0.04166667 </v>
   <v>       0.37500000       0.37500000       0.37500000 </v>
   <v>       0.37500000       0.37500000       0.70833333 </v>
   <v>       0.37500000       0.70833333       0.04166667 </v>
   <v>       0.37500000       0.70833333       0.37500000 </v>
   <v>       0.37500000       0.70833333       0.70833333 </v>
   <v>       0.70833333       0.04166667       0.04166667 </v>
   <v>       0.70833333       0.04166667       0.37500000 </v>
   <v>       0.70833333       0.04166667       0.70833333 </v>
   <v>       0.70833333       0.37500000       0.04166667 </v>
   <v>       0.70833333       0.37500000       0.37500000 </v>
   <v>       0.70833333       0.37500000       0.70833333 </v>
   <v>       0.70833333       0.70833333       0.04166667 </v>
   <v>       0.70833333       0.70833333       0.37500000 </v>
   <v>       0.70833333       0.70833333       0.70833333 </v>
  </varray>
 </structure>
</modeling>
