 vasp.5.4.4.18Apr17-6-g9f103f2a35 (build Jun 19 2019 10:34:07) complex          
  
 executed on               LB-5.4 date 2023.05.15  18:42:42
 running on   96 total cores
 distrk:  each k-point on   24 cores,    4 groups
 distr:  one band on NCORES_PER_BAND=   1 cores,   24 groups


--------------------------------------------------------------------------------------------------------


 INCAR:
 POTCAR:    PAW_PBE Si 05Jan2001                  

 ----------------------------------------------------------------------------- 
|                                                                             |
|           W    W    AA    RRRRR   N    N  II  N    N   GGGG   !!!           |
|           W    W   A  A   R    R  NN   N  II  NN   N  G    G  !!!           |
|           W    W  A    A  R    R  N N  N  II  N N  N  G       !!!           |
|           W WW W  AAAAAA  RRRRR   N  N N  II  N  N N  G  GGG   !            |
|           WW  WW  A    A  R   R   N   NN  II  N   NN  G    G                |
|           W    W  A    A  R    R  N    N  II  N    N   GGGG   !!!           |
|                                                                             |
|      For optimal performance we recommend to set                            |
|        NCORE= 4 - approx SQRT( number of cores)                             |
|      NCORE specifies how many cores store one orbital (NPAR=cpu/NCORE).     |
|      This setting can  greatly improve the performance of VASP for DFT.     |
|      The default,   NCORE=1            might be grossly inefficient         |
|      on modern multi-core architectures or massively parallel machines.     |
|      Do your own testing !!!!                                               |
|      Unfortunately you need to use the default for GW and RPA calculations. |
|      (for HF NCORE is supported but not extensively tested yet)             |
|                                                                             |
 ----------------------------------------------------------------------------- 


 ----------------------------------------------------------------------------- 
|                                                                             |
|           W    W    AA    RRRRR   N    N  II  N    N   GGGG   !!!           |
|           W    W   A  A   R    R  NN   N  II  NN   N  G    G  !!!           |
|           W    W  A    A  R    R  N N  N  II  N N  N  G       !!!           |
|           W WW W  AAAAAA  RRRRR   N  N N  II  N  N N  G  GGG   !            |
|           WW  WW  A    A  R   R   N   NN  II  N   NN  G    G                |
|           W    W  A    A  R    R  N    N  II  N    N   GGGG   !!!           |
|                                                                             |
|      You have enabled k-point parallelism (KPAR>1).                         |
|      This developmental code was originally  written by Paul Kent at ORNL,  |
|      and carefully double checked in Vienna.                                |
|      GW as well as linear response parallelism added by Martijn Marsman     |
|      and Georg Kresse.                                                      |
|      Carefully verify results versus KPAR=1.                                |
|      Report problems to Paul Kent and Vienna.                               |
|                                                                             |
 ----------------------------------------------------------------------------- 

 POTCAR:    PAW_PBE Si 05Jan2001                  
   VRHFIN =Si: s2p2                                                             
   LEXCH  = PE                                                                  
   EATOM  =   103.0669 eV,    7.5752 Ry                                         
                                                                                
   TITEL  = PAW_PBE Si 05Jan2001                                                
   LULTRA =        F    use ultrasoft PP ?                                      
   IUNSCR =        1    unscreen: 0-lin 1-nonlin 2-no                           
   RPACOR =    1.500    partial core radius                                     
   POMASS =   28.085; ZVAL   =    4.000    mass and valenz                      
   RCORE  =    1.900    outmost cutoff radius                                   
   RWIGS  =    2.480; RWIGS  =    1.312    wigner-seitz radius (au A)           
   ENMAX  =  245.345; ENMIN  =  184.009 eV                                      
   ICORE  =        2    local potential                                         
   LCOR   =        T    correct aug charges                                     
   LPAW   =        T    paw PP                                                  
   EAUG   =  322.069                                                            
   DEXC   =    0.000                                                            
   RMAX   =    1.950    core radius for proj-oper                               
   RAUG   =    1.300    factor for augmentation sphere                          
   RDEP   =    1.993    radius for radial grids                                 
   RDEPT  =    1.837    core radius for aug-charge                              
                                                                                
   Atomic configuration                                                         
    6 entries                                                                   
     n  l   j            E        occ.                                          
     1  0  0.50     -1785.8828   2.0000                                         
     2  0  0.50      -139.4969   2.0000                                         
     2  1  1.50       -95.5546   6.0000                                         
     3  0  0.50       -10.8127   2.0000                                         
     3  1  0.50        -4.0811   2.0000                                         
     3  2  1.50        -4.0817   0.0000                                         
   Description                                                                  
     l       E           TYP  RCUT    TYP  RCUT                                 
     0    -10.8127223     23  1.900                                             
     0     -7.6451159     23  1.900                                             
     1     -4.0811372     23  1.900                                             
     1      2.4879257     23  1.900                                             
     2     -4.0817478      7  1.900                                             
  local pseudopotential read in
  partial core-charges read in
  partial kinetic energy density read in
  atomic valenz-charges read in
  non local Contribution for L=           0  read in
    real space projection operators read in
  non local Contribution for L=           0  read in
    real space projection operators read in
  non local Contribution for L=           1  read in
    real space projection operators read in
  non local Contribution for L=           1  read in
    real space projection operators read in
    PAW grid and wavefunctions read in
 
   number of l-projection  operators is LMAX  =           4
   number of lm-projection operators is LMMAX =           8
 

 ----------------------------------------------------------------------------- 
|                                                                             |
|  ADVICE TO THIS USER RUNNING 'VASP/VAMP'   (HEAR YOUR MASTER'S VOICE ...):  |
|                                                                             |
|      You have a (more or less) 'large supercell' and for larger cells       |
|      it might be more efficient to use real space projection opertators     |
|      So try LREAL= Auto  in the INCAR   file.                               |
|      Mind:          For very  accurate calculation you might also keep the  |
|      reciprocal projection scheme          (i.e. LREAL=.FALSE.)             |
|                                                                             |
 ----------------------------------------------------------------------------- 

  PAW_PBE Si 05Jan2001                  :
 energy of atom  1       EATOM= -103.0669
 kinetic energy error for atom=    0.0004 (will be added to EATOM!!)
 
 
 POSCAR: Si55                                    
  positions in direct lattice
  velocities in cartesian coordinates
 exchange correlation table for  LEXCH =        8
   RHO(1)=    0.500       N(1)  =     2000
   RHO(2)=  100.500       N(2)  =     4000
 


--------------------------------------------------------------------------------------------------------


 ion  position               nearest neighbor table
   1  0.292  0.292  0.292-  32 2.35  40 2.35  41 2.35  38 2.35
   2  0.292  0.292  0.625-  33 2.35  41 2.35  42 2.35  39 2.35
   3  0.292  0.292  0.958-  31 2.35  40 2.35  42 2.35  37 2.35
   4  0.292  0.625  0.292-  35 2.35  43 2.35  44 2.35  41 2.35
   5  0.292  0.625  0.625-  36 2.35  44 2.35  45 2.35  42 2.35
   6  0.292  0.625  0.958-  34 2.35  43 2.35  45 2.35  40 2.35
   7  0.292  0.958  0.292-  29 2.35  37 2.35  38 2.35  44 2.35
   8  0.292  0.958  0.625-  30 2.35  38 2.35  39 2.35  45 2.35
   9  0.292  0.958  0.958-  28 2.35  37 2.35  39 2.35  43 2.35
  10  0.625  0.292  0.292-  41 2.35  49 2.35  50 2.35  47 2.35
  11  0.625  0.292  0.625-  55 2.25  42 2.35  50 2.35  51 2.35  48 2.35
  12  0.625  0.292  0.958-  40 2.35  49 2.35  51 2.35  46 2.35
  13  0.625  0.625  0.292-  55 2.25  44 2.35  52 2.35  53 2.35  50 2.35
  14  0.625  0.625  0.625-  55 2.25  45 2.35  53 2.35  54 2.35  51 2.35
  15  0.625  0.625  0.958-  43 2.35  52 2.35  54 2.35  49 2.35
  16  0.625  0.958  0.292-  38 2.35  46 2.35  47 2.35  53 2.35
  17  0.625  0.958  0.625-  39 2.35  47 2.35  48 2.35  54 2.35
  18  0.625  0.958  0.958-  37 2.35  46 2.35  48 2.35  52 2.35
  19  0.958  0.292  0.292-  50 2.35  32 2.35  31 2.35  29 2.35
  20  0.958  0.292  0.625-  51 2.35  33 2.35  32 2.35  30 2.35
  21  0.958  0.292  0.958-  49 2.35  31 2.35  33 2.35  28 2.35
  22  0.958  0.625  0.292-  53 2.35  35 2.35  34 2.35  32 2.35
  23  0.958  0.625  0.625-  54 2.35  36 2.35  35 2.35  33 2.35
  24  0.958  0.625  0.958-  52 2.35  34 2.35  36 2.35  31 2.35
  25  0.958  0.958  0.292-  47 2.35  29 2.35  28 2.35  35 2.35
  26  0.958  0.958  0.625-  48 2.35  30 2.35  29 2.35  36 2.35
  27  0.958  0.958  0.958-  46 2.35  28 2.35  30 2.35  34 2.35
  28  0.042  0.042  0.042-   9 2.35  27 2.35  25 2.35  21 2.35
  29  0.042  0.042  0.375-   7 2.35  25 2.35  26 2.35  19 2.35
  30  0.042  0.042  0.708-   8 2.35  26 2.35  27 2.35  20 2.35
  31  0.042  0.375  0.042-   3 2.35  21 2.35  19 2.35  24 2.35
  32  0.042  0.375  0.375-   1 2.35  19 2.35  20 2.35  22 2.35
  33  0.042  0.375  0.708-   2 2.35  20 2.35  21 2.35  23 2.35
  34  0.042  0.708  0.042-   6 2.35  24 2.35  22 2.35  27 2.35
  35  0.042  0.708  0.375-   4 2.35  22 2.35  23 2.35  25 2.35
  36  0.042  0.708  0.708-   5 2.35  23 2.35  24 2.35  26 2.35
  37  0.375  0.042  0.042-  18 2.35   9 2.35   7 2.35   3 2.35
  38  0.375  0.042  0.375-  16 2.35   8 2.35   7 2.35   1 2.35
  39  0.375  0.042  0.708-  17 2.35   9 2.35   8 2.35   2 2.35
  40  0.375  0.375  0.042-  12 2.35   3 2.35   1 2.35   6 2.35
  41  0.375  0.375  0.375-  10 2.35   2 2.35   1 2.35   4 2.35
  42  0.375  0.375  0.708-  11 2.35   3 2.35   2 2.35   5 2.35
  43  0.375  0.708  0.042-  15 2.35   6 2.35   4 2.35   9 2.35
  44  0.375  0.708  0.375-  13 2.35   5 2.35   4 2.35   7 2.35
  45  0.375  0.708  0.708-  14 2.35   6 2.35   5 2.35   8 2.35
  46  0.708  0.042  0.042-  27 2.35  18 2.35  16 2.35  12 2.35
  47  0.708  0.042  0.375-  25 2.35  17 2.35  16 2.35  10 2.35
  48  0.708  0.042  0.708-  26 2.35  18 2.35  17 2.35  11 2.35
  49  0.708  0.375  0.042-  21 2.35  12 2.35  10 2.35  15 2.35
  50  0.708  0.375  0.375-  55 2.25  19 2.35  11 2.35  10 2.35  13 2.35
  51  0.708  0.375  0.708-  55 2.25  20 2.35  12 2.35  11 2.35  14 2.35
  52  0.708  0.708  0.042-  24 2.35  15 2.35  13 2.35  18 2.35
  53  0.708  0.708  0.375-  55 2.25  22 2.35  14 2.35  13 2.35  16 2.35
  54  0.708  0.708  0.708-  23 2.35  15 2.35  14 2.35  17 2.35
  55  0.667  0.500  0.500-  50 2.25  11 2.25  13 2.25  53 2.25  14 2.25  51 2.25
 
  LATTYP: Found a face centered cubic cell.
 ALAT       =    16.2915000202
  
  Lattice vectors:
  
 A1 = (   9.9764655300,   0.0000000000,   5.7599150700)
 A2 = (   3.3254885100,   9.4059019200,   5.7599150700)
 A3 = (   0.0000000000,   0.0000000000,  11.5198301400)


Analysis of symmetry for initial positions (statically):
=====================================================================
 Subroutine PRICEL returns:
 Original cell was already a primitive cell.
 

 Routine SETGRP: Setting up the symmetry group for a 
 face centered cubic supercell.


 Subroutine GETGRP returns: Found 12 space group operations
 (whereof  2 operations were pure point group operations)
 out of a pool of 48 trial point group operations.


The static configuration has the point symmetry C_1h.
 The point group associated with its full space group is D_3d.


Analysis of symmetry for dynamics (positions and initial velocities):
=====================================================================
 Subroutine PRICEL returns:
 Original cell was already a primitive cell.
 

 Routine SETGRP: Setting up the symmetry group for a 
 face centered cubic supercell.


 Subroutine GETGRP returns: Found 12 space group operations
 (whereof  2 operations were pure point group operations)
 out of a pool of 48 trial point group operations.


The dynamic configuration has the point symmetry C_1h.
 The point group associated with its full space group is D_3d.


 Subroutine INISYM returns: Found 12 space group operations
 (whereof  2 operations are pure point group operations),
 and found     1 'primitive' translations

 
 
 KPOINTS: Automatic kpoint scheme                 

Automatic generation of k-mesh.
Space group operators:
 irot       det(A)        alpha          n_x          n_y          n_z        tau_x        tau_y        tau_z
    1     1.000000     0.000000     1.000000     0.000000     0.000000     0.000000     0.000000     0.000000
    2    -1.000000   180.000000     0.288675     0.816497    -0.500000     0.000000     0.000000     0.000000
    3    -1.000000     0.000000     1.000000     0.000000     0.000000     0.333333     0.000000     0.000000
    4     1.000000   120.000000     0.942809    -0.333333     0.000000     0.000000     0.000000     0.166667
    5    -1.000000   120.000000     0.942809    -0.333333     0.000000     0.333333     0.000000     0.833333
    6     1.000000   180.000000     0.288675     0.816497     0.500000     0.333333     0.833333    -0.000000
    7    -1.000000   180.000000     0.288675     0.816497     0.500000    -0.000000     0.166667     0.000000
    8     1.000000   180.000000     0.000000    -0.000000     1.000000     0.333333     0.000000     0.833333
    9    -1.000000   180.000000     0.000000    -0.000000     1.000000     0.000000     0.000000     0.166667
   10     1.000000   120.000000    -0.942809     0.333333     0.000000     0.000000     0.166667    -0.000000
   11    -1.000000   120.000000    -0.942809     0.333333     0.000000     0.333333     0.833333    -0.000000
   12     1.000000   180.000000     0.288675     0.816497    -0.500000     0.333333     0.000000     0.000000
 
 Subroutine IBZKPT returns following result:
 ===========================================
 
 Found     13 irreducible k-points:
 
 Following reciprocal coordinates:
            Coordinates               Weight
  0.000000  0.000000  0.000000      1.000000
  0.250000  0.000000  0.000000      2.000000
  0.500000  0.000000  0.000000      1.000000
  0.000000  0.250000  0.000000      6.000000
  0.250000  0.250000  0.000000      6.000000
  0.500000  0.250000  0.000000      6.000000
 -0.250000  0.250000  0.000000      6.000000
  0.000000  0.500000  0.000000      3.000000
  0.250000  0.500000  0.000000      6.000000
  0.500000  0.500000  0.000000      3.000000
  0.000000  0.500000  0.250000     12.000000
  0.250000  0.500000  0.250000      6.000000
 -0.250000  0.500000  0.250000      6.000000
 
 Following cartesian coordinates:
            Coordinates               Weight
  0.000000  0.000000  0.000000      1.000000
  0.025059 -0.008860  0.000000      2.000000
  0.050118 -0.017719  0.000000      1.000000
  0.000000  0.026579  0.000000      6.000000
  0.025059  0.017719  0.000000      6.000000
  0.050118  0.008860  0.000000      6.000000
 -0.025059  0.035439  0.000000      6.000000
  0.000000  0.053158  0.000000      3.000000
  0.025059  0.044298  0.000000      6.000000
  0.050118  0.035439  0.000000      3.000000
 -0.012529  0.044298  0.021702     12.000000
  0.012529  0.035439  0.021702      6.000000
 -0.037588  0.053158  0.021702      6.000000
 


--------------------------------------------------------------------------------------------------------




 Dimension of arrays:
   k-points           NKPTS =     13   k-points in BZ     NKDIM =     13   number of bands    NBANDS=    144
   number of dos      NEDOS =    301   number of ions     NIONS =     55
   non local maximal  LDIM  =      4   non local SUM 2l+1 LMDIM =      8
   total plane-waves  NPLWV = 343000
   max r-space proj   IRMAX =      1   max aug-charges    IRDMAX=  10807
   dimension x,y,z NGX =    70 NGY =   70 NGZ =   70
   dimension x,y,z NGXF=   140 NGYF=  140 NGZF=  140
   support grid    NGXF=   140 NGYF=  140 NGZF=  140
   ions per type =              55
   NGX,Y,Z   is equivalent  to a cutoff of  10.10, 10.10, 10.10 a.u.
   NGXF,Y,Z  is equivalent  to a cutoff of  20.20, 20.20, 20.20 a.u.

 SYSTEM =  Si                                      
 POSCAR =  Si55                                    

 Startparameter for this run:
   NWRITE =      2    write-flag & timer
   PREC   = normal    normal or accurate (medium, high low for compatibility)
   ISTART =      1    job   : 0-new  1-cont  2-samecut
   ICHARG =      0    charge: 1-file 2-atom 10-const
   ISPIN  =      1    spin polarized calculation?
   LNONCOLLINEAR =      F non collinear calculations
   LSORBIT =      F    spin-orbit coupling
   INIWAV =      1    electr: 0-lowe 1-rand  2-diag
   LASPH  =      F    aspherical Exc in radial PAW
   METAGGA=      F    non-selfconsistent MetaGGA calc.

 Electronic Relaxation 1
   ENCUT  =  550.0 eV  40.42 Ry    6.36 a.u.  22.03 22.03 22.03*2*pi/ulx,y,z
   ENINI  =  550.0     initial cutoff
   ENAUG  =  322.1 eV  augmentation charge cutoff
   NELM   =    200;   NELMIN=  2; NELMDL=  0     # of ELM steps 
   EDIFF  = 0.1E-04   stopping-criterion for ELM
   LREAL  =      F    real-space projection
   NLSPLINE    = F    spline interpolate recip. space projectors
   LCOMPAT=      F    compatible to vasp.4.4
   GGA_COMPAT  = T    GGA compatible to vasp.4.4-vasp.4.6
   LMAXPAW     = -100 max onsite density
   LMAXMIX     =    2 max onsite mixed and CHGCAR
   VOSKOWN=      0    Vosko Wilk Nusair interpolation
   ROPT   =    0.00000
 Ionic relaxation
   EDIFFG = -.5E-01   stopping-criterion for IOM
   NSW    =    100    number of steps for IOM
   NBLOCK =      1;   KBLOCK =    100    inner block; outer block 
   IBRION =      2    ionic relax: 0-MD 1-quasi-New 2-CG
   NFREE  =      1    steps in history (QN), initial steepest desc. (CG)
   ISIF   =      2    stress and relaxation
   IWAVPR =     11    prediction:  0-non 1-charg 2-wave 3-comb
   ISYM   =      2    0-nonsym 1-usesym 2-fastsym
   LCORR  =      T    Harris-Foulkes like correction to forces

   POTIM  = 0.5000    time-step for ionic-motion
   TEIN   =    0.0    initial temperature
   TEBEG  =    0.0;   TEEND  =   0.0 temperature during run
   SMASS  =  -3.00    Nose mass-parameter (am)
   estimated Nose-frequenzy (Omega)   =  0.10E-29 period in steps =****** mass=  -0.303E-26a.u.
   SCALEE = 1.0000    scale energy and forces
   NPACO  =    256;   APACO  = 16.0  distance and # of slots for P.C.
   PSTRESS=    0.0 pullay stress

  Mass of Ions in am
   POMASS =  28.09
  Ionic Valenz
   ZVAL   =   4.00
  Atomic Wigner-Seitz radii
   RWIGS  =  -1.00
  virtual crystal weights 
   VCA    =   1.00
   NELECT =     220.0000    total number of electrons
   NUPDOWN=      -1.0000    fix difference up-down

 DOS related values:
   EMIN   =  10.00;   EMAX   =-10.00  energy-range for DOS
   EFERMI =   0.00
   ISMEAR =     0;   SIGMA  =   0.05  broadening in eV -4-tet -1-fermi 0-gaus

 Electronic relaxation 2 (details)
   IALGO  =     38    algorithm
   LDIAG  =      T    sub-space diagonalisation (order eigenvalues)
   LSUBROT=      F    optimize rotation matrix (better conditioning)
   TURBO    =      0    0=normal 1=particle mesh
   IRESTART =      0    0=no restart 2=restart with 2 vectors
   NREBOOT  =      0    no. of reboots
   NMIN     =      0    reboot dimension
   EREF     =   0.00    reference energy to select bands
   IMIX   =      4    mixing-type and parameters
     AMIX     =   0.20;   BMIX     =  1.00
     AMIX_MAG =   0.80;   BMIX_MAG =  1.00
     AMIN     =   0.10
     WC   =   100.;   INIMIX=   1;  MIXPRE=   1;  MAXMIX= -45

 Intra band minimization:
   WEIMIN = 0.0010     energy-eigenvalue tresh-hold
   EBREAK =  0.17E-07  absolut break condition
   DEPER  =   0.30     relativ break condition  

   TIME   =   0.40     timestep for ELM

  volume/ion in A,a.u.               =      19.65       132.63
  Fermi-wavevector in a.u.,A,eV,Ry     =   0.962959  1.819729 12.616558  0.927291
  Thomas-Fermi vector in A             =   2.092463
 
 Write flags
   LWAVE        =      T    write WAVECAR
   LDOWNSAMPLE  =      F    k-point downsampling of WAVECAR
   LCHARG       =      T    write CHGCAR
   LVTOT        =      F    write LOCPOT, total local potential
   LVHAR        =      F    write LOCPOT, Hartree potential only
   LELF         =      F    write electronic localiz. function (ELF)
   LORBIT       =     10    0 simple, 1 ext, 2 COOP (PROOUT), +10 PAW based schemes


 Dipole corrections
   LMONO  =      F    monopole corrections only (constant potential shift)
   LDIPOL =      F    correct potential (dipole corrections)
   IDIPOL =      0    1-x, 2-y, 3-z, 4-all directions 
   EPSILON=  1.0000000 bulk dielectric constant

 Exchange correlation treatment:
   GGA     =    --    GGA type
   LEXCH   =     8    internal setting for exchange type
   VOSKOWN=      0    Vosko Wilk Nusair interpolation
   LHFCALC =     F    Hartree Fock is set to
   LHFONE  =     F    Hartree Fock one center treatment
   AEXX    =    0.0000 exact exchange contribution

 Linear response parameters
   LEPSILON=     F    determine dielectric tensor
   LRPA    =     F    only Hartree local field effects (RPA)
   LNABLA  =     F    use nabla operator in PAW spheres
   LVEL    =     F    velocity operator in full k-point grid
   LINTERFAST=   F  fast interpolation
   KINTER  =     0    interpolate to denser k-point grid
   CSHIFT  =0.1000    complex shift for real part using Kramers Kronig
   OMEGAMAX=  -1.0    maximum frequency
   DEG_THRESHOLD= 0.2000000E-02 threshold for treating states as degnerate
   RTIME   =   -0.100 relaxation time in fs
  (WPLASMAI=    0.000 imaginary part of plasma frequency in eV, 0.658/RTIME)
   DFIELD  = 0.0000000 0.0000000 0.0000000 field for delta impulse in time
 
 Orbital magnetization related:
   ORBITALMAG=     F  switch on orbital magnetization
   LCHIMAG   =     F  perturbation theory with respect to B field
   DQ        =  0.001000  dq finite difference perturbation B field
   LLRAUG    =     F  two centre corrections for induced B field



--------------------------------------------------------------------------------------------------------


 conjugate gradient relaxation of ions
 charge density and potential will be updated during run
 non-spin polarized calculation
 Variant of blocked Davidson
 Davidson routine will perform the subspace rotation
 perform sub-space diagonalisation
    after iterative eigenvector-optimisation
 modified Broyden-mixing scheme, WC =      100.0
 initial mixing is a Kerker type mixing with AMIX =  0.2000 and BMIX =      1.0000
 Hartree-type preconditioning will be used
 using additional bands           34
 reciprocal scheme for non local part
 use partial core corrections
 calculate Harris-corrections to forces 
   (improved forces if not selfconsistent)
 use gradient corrections 
 use of overlap-Matrix (Vanderbilt PP)
 Gauss-broadening in eV      SIGMA  =   0.05


--------------------------------------------------------------------------------------------------------


  energy-cutoff  :      550.00
  volume of cell :     1080.99
      direct lattice vectors                 reciprocal lattice vectors
     9.976465530  0.000000000  5.759915070     0.100235900 -0.035438742  0.000000000
     3.325488510  9.405901920  5.759915070     0.000000000  0.106316227  0.000000000
     0.000000000  0.000000000 11.519830140    -0.050117950 -0.035438742  0.086806836

  length of vectors
    11.519830124 11.519830136 11.519830140     0.106316227  0.106316227  0.106316227


 
 old parameters found on file WAVECAR:
  energy-cutoff  :      550.00
  volume of cell :     1080.99
      direct lattice vectors                 reciprocal lattice vectors
     9.976465530  0.000000000  5.759915070     0.100235900 -0.035438742  0.000000000
     3.325488510  9.405901920  5.759915070     0.000000000  0.106316227  0.000000000
     0.000000000  0.000000000 11.519830140    -0.050117950 -0.035438742  0.086806836

  length of vectors

 
 k-points in units of 2pi/SCALE and weight: Automatic kpoint scheme                 
   0.00000000  0.00000000  0.00000000       0.016
   0.02505897 -0.00885969  0.00000000       0.031
   0.05011795 -0.01771937  0.00000000       0.016
   0.00000000  0.02657906  0.00000000       0.094
   0.02505897  0.01771937  0.00000000       0.094
   0.05011795  0.00885969  0.00000000       0.094
  -0.02505897  0.03543874  0.00000000       0.094
   0.00000000  0.05315811  0.00000000       0.047
   0.02505897  0.04429843  0.00000000       0.094
   0.05011795  0.03543874  0.00000000       0.047
  -0.01252949  0.04429843  0.02170171       0.188
   0.01252949  0.03543874  0.02170171       0.094
  -0.03758846  0.05315811  0.02170171       0.094
 
 k-points in reciprocal lattice and weights: Automatic kpoint scheme                 
   0.00000000  0.00000000  0.00000000       0.016
   0.25000000  0.00000000  0.00000000       0.031
   0.50000000  0.00000000  0.00000000       0.016
   0.00000000  0.25000000  0.00000000       0.094
   0.25000000  0.25000000  0.00000000       0.094
   0.50000000  0.25000000  0.00000000       0.094
  -0.25000000  0.25000000  0.00000000       0.094
   0.00000000  0.50000000  0.00000000       0.047
   0.25000000  0.50000000  0.00000000       0.094
   0.50000000  0.50000000  0.00000000       0.047
   0.00000000  0.50000000  0.25000000       0.188
   0.25000000  0.50000000  0.25000000       0.094
  -0.25000000  0.50000000  0.25000000       0.094
 
 position of ions in fractional coordinates (direct lattice) 
   0.29166667  0.29166667  0.29166667
   0.29166667  0.29166667  0.62500000
   0.29166667  0.29166667  0.95833333
   0.29166667  0.62500000  0.29166667
   0.29166667  0.62500000  0.62500000
   0.29166667  0.62500000  0.95833333
   0.29166667  0.95833333  0.29166667
   0.29166667  0.95833333  0.62500000
   0.29166667  0.95833333  0.95833333
   0.62500000  0.29166667  0.29166667
   0.62500000  0.29166667  0.62500000
   0.62500000  0.29166667  0.95833333
   0.62500000  0.62500000  0.29166667
   0.62500000  0.62500000  0.62500000
   0.62500000  0.62500000  0.95833333
   0.62500000  0.95833333  0.29166667
   0.62500000  0.95833333  0.62500000
   0.62500000  0.95833333  0.95833333
   0.95833333  0.29166667  0.29166667
   0.95833333  0.29166667  0.62500000
   0.95833333  0.29166667  0.95833333
   0.95833333  0.62500000  0.29166667
   0.95833333  0.62500000  0.62500000
   0.95833333  0.62500000  0.95833333
   0.95833333  0.95833333  0.29166667
   0.95833333  0.95833333  0.62500000
   0.95833333  0.95833333  0.95833333
   0.04166667  0.04166667  0.04166667
   0.04166667  0.04166667  0.37500000
   0.04166667  0.04166667  0.70833333
   0.04166667  0.37500000  0.04166667
   0.04166667  0.37500000  0.37500000
   0.04166667  0.37500000  0.70833333
   0.04166667  0.70833333  0.04166667
   0.04166667  0.70833333  0.37500000
   0.04166667  0.70833333  0.70833333
   0.37500000  0.04166667  0.04166667
   0.37500000  0.04166667  0.37500000
   0.37500000  0.04166667  0.70833333
   0.37500000  0.37500000  0.04166667
   0.37500000  0.37500000  0.37500000
   0.37500000  0.37500000  0.70833333
   0.37500000  0.70833333  0.04166667
   0.37500000  0.70833333  0.37500000
   0.37500000  0.70833333  0.70833333
   0.70833333  0.04166667  0.04166667
   0.70833333  0.04166667  0.37500000
   0.70833333  0.04166667  0.70833333
   0.70833333  0.37500000  0.04166667
   0.70833333  0.37500000  0.37500000
   0.70833333  0.37500000  0.70833333
   0.70833333  0.70833333  0.04166667
   0.70833333  0.70833333  0.37500000
   0.70833333  0.70833333  0.70833333
   0.66666667  0.50000000  0.50000000
 
 position of ions in cartesian coordinates  (Angst):
   3.87973659  2.74338806  6.71990091
   3.87973659  2.74338806 10.55984429
   3.87973659  2.74338806 14.39978767
   4.98823276  5.87868870  8.63987260
   4.98823276  5.87868870 12.47981598
   4.98823276  5.87868870 16.31975937
   6.09672893  9.01398934 10.55984429
   6.09672893  9.01398934 14.39978767
   6.09672893  9.01398934 18.23973106
   7.20522510  2.74338806  8.63987260
   7.20522510  2.74338806 12.47981598
   7.20522510  2.74338806 16.31975937
   8.31372128  5.87868870 10.55984429
   8.31372128  5.87868870 14.39978767
   8.31372128  5.87868870 18.23973106
   9.42221745  9.01398934 12.47981598
   9.42221745  9.01398934 16.31975937
   9.42221745  9.01398934 20.15970275
  10.53071362  2.74338806 10.55984429
  10.53071362  2.74338806 14.39978767
  10.53071362  2.74338806 18.23973106
  11.63920979  5.87868870 12.47981598
  11.63920979  5.87868870 16.31975937
  11.63920979  5.87868870 20.15970275
  12.74770596  9.01398934 14.39978767
  12.74770596  9.01398934 18.23973106
  12.74770596  9.01398934 22.07967444
   0.55424808  0.39191258  0.95998584
   0.55424808  0.39191258  4.79992922
   0.55424808  0.39191258  8.63987260
   1.66274425  3.52721322  2.87995753
   1.66274425  3.52721322  6.71990091
   1.66274425  3.52721322 10.55984430
   2.77124042  6.66251386  4.79992922
   2.77124042  6.66251386  8.63987261
   2.77124042  6.66251386 12.47981599
   3.87973659  0.39191258  2.87995753
   3.87973659  0.39191258  6.71990091
   3.87973659  0.39191258 10.55984430
   4.98823277  3.52721322  4.79992922
   4.98823277  3.52721322  8.63987261
   4.98823277  3.52721322 12.47981599
   6.09672894  6.66251386  6.71990091
   6.09672894  6.66251386 10.55984430
   6.09672894  6.66251386 14.39978768
   7.20522511  0.39191258  4.79992922
   7.20522511  0.39191258  8.63987261
   7.20522511  0.39191258 12.47981599
   8.31372128  3.52721322  6.71990091
   8.31372128  3.52721322 10.55984430
   8.31372128  3.52721322 14.39978768
   9.42221745  6.66251386  8.63987260
   9.42221745  6.66251386 12.47981599
   9.42221745  6.66251386 16.31975937
   8.31372127  4.70295096 12.47981598
 


--------------------------------------------------------------------------------------------------------


 k-point  1 :   0.0000 0.0000 0.0000  plane waves:   31415
 k-point  2 :   0.2500 0.0000 0.0000  plane waves:   31608
 k-point  3 :   0.5000 0.0000 0.0000  plane waves:   31638
 k-point  4 :   0.0000 0.2500 0.0000  plane waves:   31608
 k-point  5 :   0.2500 0.2500 0.0000  plane waves:   31695
 k-point  6 :   0.5000 0.2500 0.0000  plane waves:   31649
 k-point  7 :  -0.2500 0.2500 0.0000  plane waves:   31674
 k-point  8 :   0.0000 0.5000 0.0000  plane waves:   31638
 k-point  9 :   0.2500 0.5000 0.0000  plane waves:   31649
 k-point 10 :   0.5000 0.5000 0.0000  plane waves:   31716
 k-point 11 :   0.0000 0.5000 0.2500  plane waves:   31649
 k-point 12 :   0.2500 0.5000 0.2500  plane waves:   31674
 k-point 13 :  -0.2500 0.5000 0.2500  plane waves:   31684

 maximum and minimum number of plane-waves per node :     31716    31415

 maximum number of plane-waves:     31716
 maximum index in each direction: 
   IXMAX=   22   IYMAX=   22   IZMAX=   22
   IXMIN=  -22   IYMIN=  -22   IZMIN=  -22


 serial   3D FFT for wavefunctions
 parallel 3D FFT for charge:
    minimum data exchange during FFTs selected (reduces bandwidth)


 total amount of memory used by VASP MPI-rank0   149529. kBytes
=======================================================================

   base      :      30000. kBytes
   nonl-proj :      54318. kBytes
   fftplans  :       5382. kBytes
   grid      :      19496. kBytes
   one-center:        168. kBytes
   wavefun   :      40165. kBytes
 
     INWAV:  cpu time   13.8622: real time   14.4655
 Broyden mixing: mesh for mixing (old mesh)
   NGX = 45   NGY = 45   NGZ = 45
  (NGX  =140   NGY  =140   NGZ  =140)
  gives a total of  91125 points

 charge density for first step will be calculated from the start-wavefunctions


--------------------------------------------------------------------------------------------------------


 Maximum index for augmentation-charges          505 (set IRDMAX)


--------------------------------------------------------------------------------------------------------


 initial charge from wavefunction
 First call to EWALD:  gamma=   0.173
 Maximum number of real-space cells 3x 3x 3
 Maximum number of reciprocal cells 3x 3x 3

    FEWALD:  cpu time    0.0124: real time    0.0125


--------------------------------------- Iteration      1(   1)  ---------------------------------------


    POTLOK:  cpu time    0.1641: real time    0.1747
    SETDIJ:  cpu time    0.0041: real time    0.0045
     EDDAV:  cpu time    5.9072: real time    5.9595
       DOS:  cpu time    0.0111: real time    0.0122
    CHARGE:  cpu time    0.2185: real time    0.2200
    MIXING:  cpu time    0.0047: real time    0.0052
    --------------------------------------------
      LOOP:  cpu time    6.3098: real time    6.3761

 eigenvalue-minimisations  :  3792
 total energy-change (2. order) :-0.2935519E+03  (-0.4713676E-05)
 number of electron     220.0000000 magnetization 
 augmentation part      -12.6767557 magnetization 

 Broyden mixing:
  rms(total) = 0.64114E-03    rms(broyden)= 0.64114E-03
  rms(prec ) = 0.20254E-02
  weight for this iteration     100.00

 Free energy of the ion-electron system (eV)
  ---------------------------------------------------
  alpha Z        PSCENC =        94.20124788
  Ewald energy   TEWEN  =     -6273.82433833
  -Hartree energ DENC   =      -445.16816107
  -exchange      EXHF   =         0.00000000
  -V(xc)+E(xc)   XCENC  =      -491.85346266
  PAW double counting   =     24566.06920279   -23604.66367592
  entropy T*S    EENTRO =        -0.00001951
  eigenvalues    EBANDS =       193.03151696
  atomic energy  EATOM  =      5668.65580356
  Solvation  Ediel_sol  =         0.00000000
  ---------------------------------------------------
  free energy    TOTEN  =      -293.55188630 eV

  energy without entropy =     -293.55186679  energy(sigma->0) =     -293.55187654


--------------------------------------------------------------------------------------------------------




--------------------------------------- Iteration      1(   2)  ---------------------------------------


    POTLOK:  cpu time    0.0754: real time    0.0763
    SETDIJ:  cpu time    0.0093: real time    0.0094
     EDDAV:  cpu time    5.1739: real time    5.2289
       DOS:  cpu time    0.2965: real time    0.2982
    --------------------------------------------
      LOOP:  cpu time    5.5550: real time    5.6127

 eigenvalue-minimisations  :  3144
 total energy-change (2. order) : 0.5285092E-05  (-0.1330859E-05)
 number of electron     220.0000000 magnetization 
 augmentation part      -12.6767557 magnetization 

 Free energy of the ion-electron system (eV)
  ---------------------------------------------------
  alpha Z        PSCENC =        94.20124788
  Ewald energy   TEWEN  =     -6273.82433833
  -Hartree energ DENC   =      -445.16097229
  -exchange      EXHF   =         0.00000000
  -V(xc)+E(xc)   XCENC  =      -491.85352346
  PAW double counting   =     24566.08258689   -23604.67702629
  entropy T*S    EENTRO =        -0.00001896
  eigenvalues    EBANDS =       193.02435999
  atomic energy  EATOM  =      5668.65580356
  Solvation  Ediel_sol  =         0.00000000
  ---------------------------------------------------
  free energy    TOTEN  =      -293.55188101 eV

  energy without entropy =     -293.55186206  energy(sigma->0) =     -293.55187153


--------------------------------------------------------------------------------------------------------




 average (electrostatic) potential at core
  the test charge radii are     0.9892
  (the norm of the test charge is              1.0000)
       1 -83.0387       2 -83.0536       3 -83.0536       4 -83.0536       5 -83.0207
       6 -83.0536       7 -83.0536       8 -83.0536       9 -83.0572      10 -83.1586
      11 -83.4381      12 -83.1586      13 -83.4381      14 -83.4381      15 -83.1388
      16 -83.1586      17 -83.1388      18 -83.1388      19 -83.0528      20 -83.0528
      21 -83.0507      22 -83.0528      23 -83.0398      24 -83.0398      25 -83.0507
      26 -83.0398      27 -83.0507      28 -83.0572      29 -83.0536      30 -83.0536
      31 -83.0536      32 -83.0207      33 -83.0536      34 -83.0536      35 -83.0536
      36 -83.0387      37 -83.0507      38 -83.0398      39 -83.0507      40 -83.0398
      41 -83.0398      42 -83.0528      43 -83.0507      44 -83.0528      45 -83.0528
      46 -83.1388      47 -83.1388      48 -83.1586      49 -83.1388      50 -83.4381
      51 -83.4381      52 -83.1586      53 -83.4381      54 -83.1586      55 -83.0504
 
 
 
 E-fermi :   6.4306     XC(G=0):  -9.4856     alpha+bet :-12.2031


 k-point     1 :       0.0000    0.0000    0.0000
  band No.  band energies     occupation 
      1      -7.0322      2.00000
      2      -5.6701      2.00000
      3      -5.0191      2.00000
      4      -5.0191      2.00000
      5      -4.6011      2.00000
      6      -4.5973      2.00000
      7      -4.5874      2.00000
      8      -4.5874      2.00000
      9      -4.5659      2.00000
     10      -4.2399      2.00000
     11      -4.1936      2.00000
     12      -4.1936      2.00000
     13      -4.0749      2.00000
     14      -4.0749      2.00000
     15      -4.0712      2.00000
     16      -3.2306      2.00000
     17      -3.2306      2.00000
     18      -2.9880      2.00000
     19      -2.7966      2.00000
     20      -2.7966      2.00000
     21      -2.7257      2.00000
     22      -2.7057      2.00000
     23      -2.7057      2.00000
     24      -2.7000      2.00000
     25      -2.7000      2.00000
     26      -2.6615      2.00000
     27      -2.6605      2.00000
     28      -1.4605      2.00000
     29      -1.1675      2.00000
     30      -1.1675      2.00000
     31      -0.9869      2.00000
     32      -0.9869      2.00000
     33      -0.8639      2.00000
     34      -0.7986      2.00000
     35      -0.7986      2.00000
     36      -0.7775      2.00000
     37      -0.7775      2.00000
     38      -0.7434      2.00000
     39      -0.7377      2.00000
     40      -0.2024      2.00000
     41       0.4272      2.00000
     42       0.4272      2.00000
     43       0.4325      2.00000
     44       0.4840      2.00000
     45       0.4840      2.00000
     46       0.6248      2.00000
     47       0.6539      2.00000
     48       0.8634      2.00000
     49       0.8634      2.00000
     50       0.9051      2.00000
     51       0.9051      2.00000
     52       0.9433      2.00000
     53       0.9554      2.00000
     54       1.0268      2.00000
     55       1.2535      2.00000
     56       1.4275      2.00000
     57       1.4899      2.00000
     58       1.4899      2.00000
     59       1.4958      2.00000
     60       1.4958      2.00000
     61       1.5915      2.00000
     62       1.6038      2.00000
     63       1.6038      2.00000
     64       1.6126      2.00000
     65       1.6126      2.00000
     66       2.7203      2.00000
     67       2.7203      2.00000
     68       3.2221      2.00000
     69       3.3898      2.00000
     70       3.3898      2.00000
     71       3.3980      2.00000
     72       3.5316      2.00000
     73       3.5316      2.00000
     74       3.5500      2.00000
     75       3.5782      2.00000
     76       3.5809      2.00000
     77       3.5809      2.00000
     78       3.7610      2.00000
     79       3.7610      2.00000
     80       3.8048      2.00000
     81       3.8048      2.00000
     82       3.8091      2.00000
     83       3.8170      2.00000
     84       3.8480      2.00000
     85       3.8480      2.00000
     86       3.8598      2.00000
     87       3.8598      2.00000
     88       3.8897      2.00000
     89       3.9000      2.00000
     90       4.6562      2.00000
     91       4.6562      2.00000
     92       4.7278      2.00000
     93       4.7278      2.00000
     94       4.8131      2.00000
     95       4.9078      2.00000
     96       4.9099      2.00000
     97       4.9416      2.00000
     98       4.9416      2.00000
     99       4.9963      2.00000
    100       4.9963      2.00000
    101       4.9997      2.00000
    102       5.0020      2.00000
    103       5.0020      2.00000
    104       5.0311      2.00000
    105       5.0311      2.00000
    106       5.2602      2.00000
    107       5.4308      2.00000
    108       5.9023      2.00000
    109       5.9023      2.00000
    110       5.9638      2.00000
    111       6.5387      0.00224
    112       6.5387      0.00224
    113       6.6206      0.00000
    114       6.6206      0.00000
    115       6.9531      0.00000
    116       7.0020      0.00000
    117       7.2607      0.00000
    118       7.2607      0.00000
    119       7.3360      0.00000
    120       7.3360      0.00000
    121       7.4005      0.00000
    122       7.4005      0.00000
    123       7.4927      0.00000
    124       7.5279      0.00000
    125       7.5383      0.00000
    126       7.5383      0.00000
    127       7.6415      0.00000
    128       7.6831      0.00000
    129       7.6831      0.00000
    130       7.6834      0.00000
    131       7.7128      0.00000
    132       7.7196      0.00000
    133       7.7196      0.00000
    134       7.7903      0.00000
    135       7.8533      0.00000
    136       7.8993      0.00000
    137       7.9233      0.00000
    138       7.9233      0.00000
    139       7.9353      0.00000
    140       7.9353      0.00000
    141       8.2181      0.00000
    142       8.2181      0.00000
    143       8.5035      0.00000
    144       8.9849      0.00000

 k-point     2 :       0.2500    0.0000    0.0000
  band No.  band energies     occupation 
      1      -7.0239      2.00000
      2      -5.6369      2.00000
      3      -5.0536      2.00000
      4      -5.0388      2.00000
      5      -5.0388      2.00000
      6      -4.6038      2.00000
      7      -4.5807      2.00000
      8      -4.5807      2.00000
      9      -4.3410      2.00000
     10      -4.3294      2.00000
     11      -4.3294      2.00000
     12      -4.0549      2.00000
     13      -3.7070      2.00000
     14      -3.7069      2.00000
     15      -3.7069      2.00000
     16      -3.3914      2.00000
     17      -3.3914      2.00000
     18      -3.3747      2.00000
     19      -2.9784      2.00000
     20      -2.9784      2.00000
     21      -2.7924      2.00000
     22      -2.7924      2.00000
     23      -2.6721      2.00000
     24      -2.6561      2.00000
     25      -2.6180      2.00000
     26      -2.4807      2.00000
     27      -2.4807      2.00000
     28      -1.3567      2.00000
     29      -1.2738      2.00000
     30      -1.2738      2.00000
     31      -1.0854      2.00000
     32      -1.0854      2.00000
     33      -0.9812      2.00000
     34      -0.9032      2.00000
     35      -0.9032      2.00000
     36      -0.7800      2.00000
     37      -0.7221      2.00000
     38      -0.5575      2.00000
     39      -0.4016      2.00000
     40      -0.4016      2.00000
     41      -0.0471      2.00000
     42       0.0771      2.00000
     43       0.0771      2.00000
     44       0.1610      2.00000
     45       0.1610      2.00000
     46       0.1791      2.00000
     47       0.6188      2.00000
     48       0.9783      2.00000
     49       0.9783      2.00000
     50       1.2194      2.00000
     51       1.3174      2.00000
     52       1.3174      2.00000
     53       1.4074      2.00000
     54       1.5611      2.00000
     55       1.5950      2.00000
     56       1.7315      2.00000
     57       1.7315      2.00000
     58       1.7504      2.00000
     59       1.7504      2.00000
     60       1.7893      2.00000
     61       1.7893      2.00000
     62       1.8881      2.00000
     63       1.8985      2.00000
     64       1.8985      2.00000
     65       2.0450      2.00000
     66       2.7108      2.00000
     67       2.7108      2.00000
     68       2.8239      2.00000
     69       3.0343      2.00000
     70       3.0343      2.00000
     71       3.3252      2.00000
     72       3.4068      2.00000
     73       3.4130      2.00000
     74       3.4130      2.00000
     75       3.4666      2.00000
     76       3.4666      2.00000
     77       3.5332      2.00000
     78       3.5363      2.00000
     79       3.5363      2.00000
     80       3.5938      2.00000
     81       3.6024      2.00000
     82       3.6251      2.00000
     83       3.6251      2.00000
     84       3.7935      2.00000
     85       3.7935      2.00000
     86       3.8344      2.00000
     87       4.0384      2.00000
     88       4.0541      2.00000
     89       4.0541      2.00000
     90       4.1370      2.00000
     91       4.1370      2.00000
     92       4.2278      2.00000
     93       4.5727      2.00000
     94       4.5727      2.00000
     95       4.5876      2.00000
     96       4.5889      2.00000
     97       4.5889      2.00000
     98       4.6451      2.00000
     99       4.7288      2.00000
    100       4.7288      2.00000
    101       4.9124      2.00000
    102       4.9124      2.00000
    103       4.9667      2.00000
    104       5.0548      2.00000
    105       5.1729      2.00000
    106       5.1729      2.00000
    107       5.3761      2.00000
    108       5.7692      2.00000
    109       5.7692      2.00000
    110       5.8880      2.00000
    111       6.7014      0.00000
    112       6.7014      0.00000
    113       6.8954      0.00000
    114       6.8954      0.00000
    115       7.1327      0.00000
    116       7.2441      0.00000
    117       7.2443      0.00000
    118       7.2443      0.00000
    119       7.5025      0.00000
    120       7.6647      0.00000
    121       7.6647      0.00000
    122       7.6680      0.00000
    123       7.7843      0.00000
    124       7.7843      0.00000
    125       7.9304      0.00000
    126       7.9304      0.00000
    127       7.9546      0.00000
    128       8.0002      0.00000
    129       8.0573      0.00000
    130       8.0573      0.00000
    131       8.0957      0.00000
    132       8.1272      0.00000
    133       8.1272      0.00000
    134       8.1372      0.00000
    135       8.2029      0.00000
    136       8.2029      0.00000
    137       8.2514      0.00000
    138       8.4416      0.00000
    139       8.4416      0.00000
    140       8.5361      0.00000
    141       8.5739      0.00000
    142       8.7274      0.00000
    143       8.7274      0.00000
    144       9.0591      0.00000

 k-point     3 :       0.5000    0.0000    0.0000
  band No.  band energies     occupation 
      1      -7.0155      2.00000
      2      -5.5722      2.00000
      3      -5.2836      2.00000
      4      -5.0482      2.00000
      5      -5.0482      2.00000
      6      -4.6707      2.00000
      7      -4.6707      2.00000
      8      -4.6621      2.00000
      9      -4.1715      2.00000
     10      -4.1139      2.00000
     11      -4.1139      2.00000
     12      -3.8963      2.00000
     13      -3.8558      2.00000
     14      -3.8558      2.00000
     15      -3.6846      2.00000
     16      -3.1918      2.00000
     17      -3.1873      2.00000
     18      -3.1873      2.00000
     19      -2.9371      2.00000
     20      -2.9371      2.00000
     21      -2.9238      2.00000
     22      -2.8184      2.00000
     23      -2.8184      2.00000
     24      -2.7668      2.00000
     25      -2.7668      2.00000
     26      -2.6506      2.00000
     27      -2.6500      2.00000
     28      -1.2889      2.00000
     29      -1.2889      2.00000
     30      -1.2600      2.00000
     31      -1.0790      2.00000
     32      -0.9660      2.00000
     33      -0.9660      2.00000
     34      -0.8198      2.00000
     35      -0.6820      2.00000
     36      -0.6820      2.00000
     37      -0.6717      2.00000
     38      -0.6280      2.00000
     39      -0.6280      2.00000
     40      -0.6265      2.00000
     41      -0.5347      2.00000
     42      -0.1234      2.00000
     43      -0.1234      2.00000
     44      -0.0608      2.00000
     45      -0.0608      2.00000
     46      -0.0295      2.00000
     47       0.7076      2.00000
     48       1.2879      2.00000
     49       1.2879      2.00000
     50       1.3995      2.00000
     51       1.3995      2.00000
     52       1.5043      2.00000
     53       1.6440      2.00000
     54       1.7987      2.00000
     55       1.8006      2.00000
     56       1.9908      2.00000
     57       1.9908      2.00000
     58       2.0130      2.00000
     59       2.0130      2.00000
     60       2.2571      2.00000
     61       2.2571      2.00000
     62       2.2609      2.00000
     63       2.2609      2.00000
     64       2.3074      2.00000
     65       2.5961      2.00000
     66       2.5961      2.00000
     67       2.7890      2.00000
     68       2.8878      2.00000
     69       2.8931      2.00000
     70       2.8931      2.00000
     71       3.0375      2.00000
     72       3.0375      2.00000
     73       3.1394      2.00000
     74       3.1394      2.00000
     75       3.1984      2.00000
     76       3.2304      2.00000
     77       3.2304      2.00000
     78       3.2603      2.00000
     79       3.3074      2.00000
     80       3.3616      2.00000
     81       3.3616      2.00000
     82       3.4457      2.00000
     83       3.5301      2.00000
     84       3.5622      2.00000
     85       3.8272      2.00000
     86       3.9375      2.00000
     87       3.9375      2.00000
     88       3.9503      2.00000
     89       3.9503      2.00000
     90       3.9791      2.00000
     91       3.9791      2.00000
     92       3.9940      2.00000
     93       4.1456      2.00000
     94       4.1708      2.00000
     95       4.1708      2.00000
     96       4.2482      2.00000
     97       4.5453      2.00000
     98       4.5453      2.00000
     99       4.5865      2.00000
    100       4.5865      2.00000
    101       4.6357      2.00000
    102       4.7041      2.00000
    103       4.7513      2.00000
    104       4.7513      2.00000
    105       5.3606      2.00000
    106       5.3606      2.00000
    107       5.3888      2.00000
    108       5.5605      2.00000
    109       5.5605      2.00000
    110       6.3320      1.99475
    111       6.8243      0.00000
    112       6.8243      0.00000
    113       6.8841      0.00000
    114       6.8841      0.00000
    115       7.1425      0.00000
    116       7.5172      0.00000
    117       7.6119      0.00000
    118       7.6694      0.00000
    119       7.6694      0.00000
    120       7.7846      0.00000
    121       7.7846      0.00000
    122       7.9253      0.00000
    123       8.2263      0.00000
    124       8.2341      0.00000
    125       8.2604      0.00000
    126       8.2604      0.00000
    127       8.3062      0.00000
    128       8.3062      0.00000
    129       8.3546      0.00000
    130       8.4490      0.00000
    131       8.5772      0.00000
    132       8.5772      0.00000
    133       8.5913      0.00000
    134       8.5913      0.00000
    135       8.6748      0.00000
    136       8.7055      0.00000
    137       8.7055      0.00000
    138       8.9669      0.00000
    139       9.0847      0.00000
    140       9.0847      0.00000
    141       9.2284      0.00000
    142       9.2301      0.00000
    143       9.3048      0.00000
    144       9.3291      0.00000

 k-point     4 :       0.0000    0.2500    0.0000
  band No.  band energies     occupation 
      1      -7.0213      2.00000
      2      -5.6739      2.00000
      3      -5.1574      2.00000
      4      -5.0486      2.00000
      5      -4.7912      2.00000
      6      -4.6059      2.00000
      7      -4.5618      2.00000
      8      -4.5346      2.00000
      9      -4.4504      2.00000
     10      -4.3680      2.00000
     11      -4.3110      2.00000
     12      -4.1161      2.00000
     13      -3.7082      2.00000
     14      -3.6657      2.00000
     15      -3.6396      2.00000
     16      -3.5380      2.00000
     17      -3.4445      2.00000
     18      -3.3157      2.00000
     19      -3.0256      2.00000
     20      -2.8670      2.00000
     21      -2.8184      2.00000
     22      -2.7431      2.00000
     23      -2.6947      2.00000
     24      -2.6926      2.00000
     25      -2.5934      2.00000
     26      -2.4764      2.00000
     27      -2.4424      2.00000
     28      -1.6033      2.00000
     29      -1.3351      2.00000
     30      -1.1618      2.00000
     31      -1.1207      2.00000
     32      -1.0118      2.00000
     33      -0.9971      2.00000
     34      -0.8608      2.00000
     35      -0.8290      2.00000
     36      -0.8242      2.00000
     37      -0.6164      2.00000
     38      -0.4537      2.00000
     39      -0.4284      2.00000
     40      -0.3830      2.00000
     41      -0.0393      2.00000
     42      -0.0353      2.00000
     43       0.0911      2.00000
     44       0.1602      2.00000
     45       0.1989      2.00000
     46       0.2583      2.00000
     47       0.5140      2.00000
     48       0.9445      2.00000
     49       1.0094      2.00000
     50       1.1737      2.00000
     51       1.2833      2.00000
     52       1.4470      2.00000
     53       1.4877      2.00000
     54       1.5012      2.00000
     55       1.6341      2.00000
     56       1.6674      2.00000
     57       1.6890      2.00000
     58       1.7034      2.00000
     59       1.7192      2.00000
     60       1.7820      2.00000
     61       1.7960      2.00000
     62       1.8486      2.00000
     63       1.9443      2.00000
     64       1.9479      2.00000
     65       2.0519      2.00000
     66       2.4215      2.00000
     67       2.5762      2.00000
     68       2.9924      2.00000
     69       3.0342      2.00000
     70       3.1871      2.00000
     71       3.3375      2.00000
     72       3.3414      2.00000
     73       3.3754      2.00000
     74       3.4183      2.00000
     75       3.4392      2.00000
     76       3.5183      2.00000
     77       3.5501      2.00000
     78       3.5529      2.00000
     79       3.5681      2.00000
     80       3.5937      2.00000
     81       3.6147      2.00000
     82       3.6392      2.00000
     83       3.6520      2.00000
     84       3.7097      2.00000
     85       3.7551      2.00000
     86       3.8271      2.00000
     87       3.9467      2.00000
     88       4.0962      2.00000
     89       4.1120      2.00000
     90       4.1695      2.00000
     91       4.1711      2.00000
     92       4.2479      2.00000
     93       4.4110      2.00000
     94       4.5491      2.00000
     95       4.6050      2.00000
     96       4.6309      2.00000
     97       4.6480      2.00000
     98       4.6631      2.00000
     99       4.7787      2.00000
    100       4.7936      2.00000
    101       4.9126      2.00000
    102       4.9251      2.00000
    103       4.9855      2.00000
    104       5.0717      2.00000
    105       5.1537      2.00000
    106       5.1692      2.00000
    107       5.6057      2.00000
    108       5.6267      2.00000
    109       5.7649      2.00000
    110       5.8537      2.00000
    111       6.6637      0.00000
    112       6.7354      0.00000
    113       6.9519      0.00000
    114       7.0640      0.00000
    115       7.1107      0.00000
    116       7.1275      0.00000
    117       7.1998      0.00000
    118       7.3989      0.00000
    119       7.4441      0.00000
    120       7.5118      0.00000
    121       7.5559      0.00000
    122       7.6722      0.00000
    123       7.8350      0.00000
    124       7.8396      0.00000
    125       7.8762      0.00000
    126       7.9362      0.00000
    127       7.9858      0.00000
    128       8.0124      0.00000
    129       8.0206      0.00000
    130       8.0411      0.00000
    131       8.0601      0.00000
    132       8.0964      0.00000
    133       8.1401      0.00000
    134       8.1835      0.00000
    135       8.2245      0.00000
    136       8.2454      0.00000
    137       8.2481      0.00000
    138       8.3713      0.00000
    139       8.4662      0.00000
    140       8.5794      0.00000
    141       8.6792      0.00000
    142       8.7158      0.00000
    143       8.7185      0.00000
    144       8.8868      0.00000

 k-point     5 :       0.2500    0.2500    0.0000
  band No.  band energies     occupation 
      1      -7.0187      2.00000
      2      -5.6507      2.00000
      3      -5.1433      2.00000
      4      -5.0714      2.00000
      5      -4.9055      2.00000
      6      -4.8625      2.00000
      7      -4.6633      2.00000
      8      -4.4171      2.00000
      9      -4.2175      2.00000
     10      -4.0854      2.00000
     11      -4.0391      2.00000
     12      -4.0138      2.00000
     13      -3.9789      2.00000
     14      -3.9694      2.00000
     15      -3.6156      2.00000
     16      -3.4573      2.00000
     17      -3.3117      2.00000
     18      -3.2532      2.00000
     19      -3.1600      2.00000
     20      -3.0303      2.00000
     21      -3.0170      2.00000
     22      -2.9604      2.00000
     23      -2.9333      2.00000
     24      -2.3552      2.00000
     25      -2.3407      2.00000
     26      -2.2595      2.00000
     27      -2.2008      2.00000
     28      -1.6417      2.00000
     29      -1.4788      2.00000
     30      -1.4247      2.00000
     31      -1.3078      2.00000
     32      -1.1325      2.00000
     33      -0.9773      2.00000
     34      -0.8987      2.00000
     35      -0.8646      2.00000
     36      -0.5891      2.00000
     37      -0.5293      2.00000
     38      -0.4277      2.00000
     39      -0.3186      2.00000
     40      -0.2982      2.00000
     41      -0.2528      2.00000
     42      -0.1889      2.00000
     43      -0.1770      2.00000
     44      -0.1404      2.00000
     45       0.5201      2.00000
     46       0.6200      2.00000
     47       0.6984      2.00000
     48       0.6992      2.00000
     49       0.7923      2.00000
     50       1.3164      2.00000
     51       1.4126      2.00000
     52       1.4753      2.00000
     53       1.5264      2.00000
     54       1.6411      2.00000
     55       1.6515      2.00000
     56       1.6603      2.00000
     57       1.7633      2.00000
     58       1.7710      2.00000
     59       1.7858      2.00000
     60       1.8323      2.00000
     61       1.8813      2.00000
     62       2.0382      2.00000
     63       2.0518      2.00000
     64       2.0784      2.00000
     65       2.3076      2.00000
     66       2.4712      2.00000
     67       2.6161      2.00000
     68       2.9606      2.00000
     69       3.0483      2.00000
     70       3.0586      2.00000
     71       3.1343      2.00000
     72       3.1777      2.00000
     73       3.1917      2.00000
     74       3.2063      2.00000
     75       3.2254      2.00000
     76       3.4080      2.00000
     77       3.4194      2.00000
     78       3.4929      2.00000
     79       3.5512      2.00000
     80       3.6827      2.00000
     81       3.7736      2.00000
     82       3.7765      2.00000
     83       3.7911      2.00000
     84       3.8812      2.00000
     85       3.8900      2.00000
     86       3.9239      2.00000
     87       3.9450      2.00000
     88       4.0174      2.00000
     89       4.0602      2.00000
     90       4.0907      2.00000
     91       4.1927      2.00000
     92       4.2309      2.00000
     93       4.2388      2.00000
     94       4.3540      2.00000
     95       4.3804      2.00000
     96       4.3827      2.00000
     97       4.4124      2.00000
     98       4.4436      2.00000
     99       4.5270      2.00000
    100       4.5368      2.00000
    101       4.5649      2.00000
    102       5.1401      2.00000
    103       5.1940      2.00000
    104       5.2079      2.00000
    105       5.2624      2.00000
    106       5.2893      2.00000
    107       5.4867      2.00000
    108       5.5146      2.00000
    109       5.6594      2.00000
    110       5.7868      2.00000
    111       6.5660      0.00013
    112       7.0331      0.00000
    113       7.0720      0.00000
    114       7.1339      0.00000
    115       7.2811      0.00000
    116       7.3057      0.00000
    117       7.4843      0.00000
    118       7.4936      0.00000
    119       7.5536      0.00000
    120       7.6077      0.00000
    121       7.6339      0.00000
    122       7.6633      0.00000
    123       7.7032      0.00000
    124       7.8584      0.00000
    125       7.9067      0.00000
    126       7.9843      0.00000
    127       8.0368      0.00000
    128       8.0768      0.00000
    129       8.1375      0.00000
    130       8.1726      0.00000
    131       8.2244      0.00000
    132       8.3015      0.00000
    133       8.3509      0.00000
    134       8.3793      0.00000
    135       8.4021      0.00000
    136       8.4042      0.00000
    137       8.4683      0.00000
    138       8.4868      0.00000
    139       8.5139      0.00000
    140       8.5159      0.00000
    141       8.6560      0.00000
    142       8.6989      0.00000
    143       8.9402      0.00000
    144       9.0177      0.00000

 k-point     6 :       0.5000    0.2500    0.0000
  band No.  band energies     occupation 
      1      -7.0104      2.00000
      2      -5.5347      2.00000
      3      -5.3658      2.00000
      4      -5.1562      2.00000
      5      -5.0718      2.00000
      6      -4.7252      2.00000
      7      -4.6197      2.00000
      8      -4.4607      2.00000
      9      -4.1489      2.00000
     10      -4.0814      2.00000
     11      -4.0319      2.00000
     12      -3.8392      2.00000
     13      -3.7772      2.00000
     14      -3.6757      2.00000
     15      -3.5858      2.00000
     16      -3.4662      2.00000
     17      -3.4357      2.00000
     18      -3.3311      2.00000
     19      -3.2373      2.00000
     20      -3.2050      2.00000
     21      -3.0722      2.00000
     22      -3.0592      2.00000
     23      -2.6321      2.00000
     24      -2.5034      2.00000
     25      -2.4164      2.00000
     26      -2.2782      2.00000
     27      -2.2736      2.00000
     28      -1.6209      2.00000
     29      -1.4235      2.00000
     30      -1.2820      2.00000
     31      -1.2178      2.00000
     32      -1.1575      2.00000
     33      -1.0902      2.00000
     34      -0.9680      2.00000
     35      -0.9081      2.00000
     36      -0.8614      2.00000
     37      -0.5920      2.00000
     38      -0.5715      2.00000
     39      -0.4929      2.00000
     40      -0.4454      2.00000
     41      -0.4314      2.00000
     42      -0.1335      2.00000
     43      -0.1142      2.00000
     44       0.0357      2.00000
     45       0.2134      2.00000
     46       0.2653      2.00000
     47       0.6998      2.00000
     48       0.8202      2.00000
     49       0.9564      2.00000
     50       1.2278      2.00000
     51       1.7185      2.00000
     52       1.7754      2.00000
     53       1.8284      2.00000
     54       1.8355      2.00000
     55       2.0161      2.00000
     56       2.0459      2.00000
     57       2.1157      2.00000
     58       2.1299      2.00000
     59       2.2564      2.00000
     60       2.2961      2.00000
     61       2.3632      2.00000
     62       2.4909      2.00000
     63       2.4936      2.00000
     64       2.5156      2.00000
     65       2.5169      2.00000
     66       2.6283      2.00000
     67       2.6409      2.00000
     68       2.7447      2.00000
     69       2.7979      2.00000
     70       2.8227      2.00000
     71       2.9377      2.00000
     72       2.9648      2.00000
     73       3.0249      2.00000
     74       3.0429      2.00000
     75       3.0934      2.00000
     76       3.0938      2.00000
     77       3.2223      2.00000
     78       3.2463      2.00000
     79       3.2629      2.00000
     80       3.2972      2.00000
     81       3.3851      2.00000
     82       3.4043      2.00000
     83       3.5065      2.00000
     84       3.5966      2.00000
     85       3.7239      2.00000
     86       3.7322      2.00000
     87       3.7734      2.00000
     88       3.8139      2.00000
     89       3.8992      2.00000
     90       3.9956      2.00000
     91       4.0178      2.00000
     92       4.0290      2.00000
     93       4.0355      2.00000
     94       4.2407      2.00000
     95       4.2555      2.00000
     96       4.3294      2.00000
     97       4.3633      2.00000
     98       4.3641      2.00000
     99       4.3965      2.00000
    100       4.4215      2.00000
    101       4.5277      2.00000
    102       4.5609      2.00000
    103       4.9248      2.00000
    104       4.9504      2.00000
    105       5.0023      2.00000
    106       5.1107      2.00000
    107       5.3140      2.00000
    108       5.5766      2.00000
    109       5.7325      2.00000
    110       6.2099      2.00000
    111       6.7116      0.00000
    112       7.1753      0.00000
    113       7.2455      0.00000
    114       7.4198      0.00000
    115       7.5272      0.00000
    116       7.5501      0.00000
    117       7.6645      0.00000
    118       7.7134      0.00000
    119       7.9195      0.00000
    120       7.9500      0.00000
    121       8.0005      0.00000
    122       8.1167      0.00000
    123       8.1265      0.00000
    124       8.1607      0.00000
    125       8.2879      0.00000
    126       8.3384      0.00000
    127       8.4066      0.00000
    128       8.4822      0.00000
    129       8.5268      0.00000
    130       8.5926      0.00000
    131       8.6089      0.00000
    132       8.6709      0.00000
    133       8.6787      0.00000
    134       8.7348      0.00000
    135       8.7707      0.00000
    136       8.8328      0.00000
    137       8.8637      0.00000
    138       8.9091      0.00000
    139       8.9641      0.00000
    140       9.0027      0.00000
    141       9.0474      0.00000
    142       9.1386      0.00000
    143       9.1527      0.00000
    144       9.1827      0.00000

 k-point     7 :      -0.2500    0.2500    0.0000
  band No.  band energies     occupation 
      1      -7.0131      2.00000
      2      -5.5964      2.00000
      3      -5.3183      2.00000
      4      -5.0687      2.00000
      5      -5.0282      2.00000
      6      -4.7016      2.00000
      7      -4.5487      2.00000
      8      -4.5015      2.00000
      9      -4.3481      2.00000
     10      -4.1792      2.00000
     11      -4.0919      2.00000
     12      -3.8830      2.00000
     13      -3.7869      2.00000
     14      -3.7336      2.00000
     15      -3.6066      2.00000
     16      -3.4324      2.00000
     17      -3.3495      2.00000
     18      -3.2687      2.00000
     19      -3.0917      2.00000
     20      -3.0189      2.00000
     21      -2.9772      2.00000
     22      -2.8662      2.00000
     23      -2.8014      2.00000
     24      -2.7787      2.00000
     25      -2.5649      2.00000
     26      -2.4964      2.00000
     27      -2.0942      2.00000
     28      -1.7708      2.00000
     29      -1.3403      2.00000
     30      -1.1623      2.00000
     31      -1.0956      2.00000
     32      -1.0203      2.00000
     33      -0.8666      2.00000
     34      -0.8448      2.00000
     35      -0.8031      2.00000
     36      -0.7362      2.00000
     37      -0.7107      2.00000
     38      -0.6689      2.00000
     39      -0.5965      2.00000
     40      -0.5804      2.00000
     41      -0.5163      2.00000
     42      -0.5097      2.00000
     43       0.0672      2.00000
     44       0.3661      2.00000
     45       0.4211      2.00000
     46       0.5479      2.00000
     47       0.5748      2.00000
     48       0.6132      2.00000
     49       0.6607      2.00000
     50       1.0963      2.00000
     51       1.6201      2.00000
     52       1.7029      2.00000
     53       1.7148      2.00000
     54       1.8096      2.00000
     55       1.9035      2.00000
     56       2.0081      2.00000
     57       2.0752      2.00000
     58       2.0807      2.00000
     59       2.1129      2.00000
     60       2.1659      2.00000
     61       2.2127      2.00000
     62       2.3264      2.00000
     63       2.3880      2.00000
     64       2.4749      2.00000
     65       2.5192      2.00000
     66       2.5514      2.00000
     67       2.5756      2.00000
     68       2.6890      2.00000
     69       2.8229      2.00000
     70       2.8492      2.00000
     71       2.9548      2.00000
     72       2.9655      2.00000
     73       2.9842      2.00000
     74       3.0176      2.00000
     75       3.2033      2.00000
     76       3.2871      2.00000
     77       3.3164      2.00000
     78       3.3241      2.00000
     79       3.4250      2.00000
     80       3.4775      2.00000
     81       3.4944      2.00000
     82       3.5377      2.00000
     83       3.5779      2.00000
     84       3.5978      2.00000
     85       3.6471      2.00000
     86       3.7171      2.00000
     87       3.7968      2.00000
     88       3.9208      2.00000
     89       3.9510      2.00000
     90       3.9995      2.00000
     91       4.0401      2.00000
     92       4.0869      2.00000
     93       4.2755      2.00000
     94       4.2868      2.00000
     95       4.3427      2.00000
     96       4.4167      2.00000
     97       4.4968      2.00000
     98       4.5355      2.00000
     99       4.6245      2.00000
    100       4.6343      2.00000
    101       4.6996      2.00000
    102       4.7449      2.00000
    103       4.8570      2.00000
    104       4.8772      2.00000
    105       4.9216      2.00000
    106       5.0084      2.00000
    107       5.1128      2.00000
    108       5.7344      2.00000
    109       5.7898      2.00000
    110       6.0834      2.00000
    111       6.7735      0.00000
    112       6.9887      0.00000
    113       7.1689      0.00000
    114       7.2905      0.00000
    115       7.5288      0.00000
    116       7.5344      0.00000
    117       7.6023      0.00000
    118       7.6969      0.00000
    119       7.7731      0.00000
    120       7.8246      0.00000
    121       7.8335      0.00000
    122       7.8505      0.00000
    123       7.8817      0.00000
    124       8.0800      0.00000
    125       8.0807      0.00000
    126       8.1380      0.00000
    127       8.2715      0.00000
    128       8.3564      0.00000
    129       8.4159      0.00000
    130       8.4634      0.00000
    131       8.4900      0.00000
    132       8.5471      0.00000
    133       8.5830      0.00000
    134       8.6069      0.00000
    135       8.6592      0.00000
    136       8.6642      0.00000
    137       8.6952      0.00000
    138       8.8472      0.00000
    139       8.9012      0.00000
    140       9.0223      0.00000
    141       9.0449      0.00000
    142       9.0840      0.00000
    143       9.1402      0.00000
    144       9.1744      0.00000

 k-point     8 :       0.0000    0.5000    0.0000
  band No.  band energies     occupation 
      1      -7.0101      2.00000
      2      -5.6701      2.00000
      3      -5.2962      2.00000
      4      -5.0664      2.00000
      5      -4.7841      2.00000
      6      -4.6791      2.00000
      7      -4.6355      2.00000
      8      -4.6313      2.00000
      9      -4.3571      2.00000
     10      -4.1402      2.00000
     11      -4.1046      2.00000
     12      -3.8899      2.00000
     13      -3.8711      2.00000
     14      -3.8597      2.00000
     15      -3.7075      2.00000
     16      -3.2076      2.00000
     17      -3.1963      2.00000
     18      -3.1702      2.00000
     19      -2.9646      2.00000
     20      -2.9282      2.00000
     21      -2.9042      2.00000
     22      -2.8370      2.00000
     23      -2.7729      2.00000
     24      -2.7278      2.00000
     25      -2.7261      2.00000
     26      -2.6894      2.00000
     27      -2.6876      2.00000
     28      -1.6214      2.00000
     29      -1.1276      2.00000
     30      -1.0755      2.00000
     31      -1.0720      2.00000
     32      -1.0454      2.00000
     33      -0.9032      2.00000
     34      -0.8641      2.00000
     35      -0.8108      2.00000
     36      -0.7155      2.00000
     37      -0.6192      2.00000
     38      -0.5905      2.00000
     39      -0.5896      2.00000
     40      -0.5865      2.00000
     41      -0.2708      2.00000
     42      -0.1632      2.00000
     43      -0.1223      2.00000
     44      -0.0801      2.00000
     45      -0.0426      2.00000
     46      -0.0220      2.00000
     47       0.8977      2.00000
     48       0.9105      2.00000
     49       1.3191      2.00000
     50       1.4077      2.00000
     51       1.5046      2.00000
     52       1.5505      2.00000
     53       1.6368      2.00000
     54       1.7376      2.00000
     55       1.8392      2.00000
     56       1.9280      2.00000
     57       1.9602      2.00000
     58       1.9836      2.00000
     59       1.9859      2.00000
     60       2.0440      2.00000
     61       2.1737      2.00000
     62       2.3309      2.00000
     63       2.3362      2.00000
     64       2.3468      2.00000
     65       2.4246      2.00000
     66       2.6667      2.00000
     67       2.6945      2.00000
     68       2.7498      2.00000
     69       2.9190      2.00000
     70       2.9268      2.00000
     71       2.9385      2.00000
     72       3.0869      2.00000
     73       3.1339      2.00000
     74       3.1866      2.00000
     75       3.1927      2.00000
     76       3.1947      2.00000
     77       3.2457      2.00000
     78       3.3175      2.00000
     79       3.3455      2.00000
     80       3.4225      2.00000
     81       3.4499      2.00000
     82       3.4801      2.00000
     83       3.5023      2.00000
     84       3.5403      2.00000
     85       3.7585      2.00000
     86       3.8194      2.00000
     87       3.9259      2.00000
     88       3.9531      2.00000
     89       3.9605      2.00000
     90       4.0216      2.00000
     91       4.0413      2.00000
     92       4.1351      2.00000
     93       4.1422      2.00000
     94       4.1567      2.00000
     95       4.2168      2.00000
     96       4.2213      2.00000
     97       4.5313      2.00000
     98       4.5727      2.00000
     99       4.5806      2.00000
    100       4.6704      2.00000
    101       4.6806      2.00000
    102       4.6852      2.00000
    103       4.7628      2.00000
    104       4.7633      2.00000
    105       5.4439      2.00000
    106       5.4543      2.00000
    107       5.4648      2.00000
    108       5.4733      2.00000
    109       5.7582      2.00000
    110       6.0575      2.00000
    111       6.9564      0.00000
    112       6.9714      0.00000
    113       7.0067      0.00000
    114       7.0090      0.00000
    115       7.1003      0.00000
    116       7.2589      0.00000
    117       7.3667      0.00000
    118       7.5783      0.00000
    119       7.8159      0.00000
    120       7.8570      0.00000
    121       7.9389      0.00000
    122       8.0973      0.00000
    123       8.1314      0.00000
    124       8.1723      0.00000
    125       8.1876      0.00000
    126       8.1989      0.00000
    127       8.2057      0.00000
    128       8.3252      0.00000
    129       8.4072      0.00000
    130       8.4227      0.00000
    131       8.4307      0.00000
    132       8.4612      0.00000
    133       8.5063      0.00000
    134       8.6096      0.00000
    135       8.6831      0.00000
    136       8.8455      0.00000
    137       8.9459      0.00000
    138       8.9715      0.00000
    139       9.0036      0.00000
    140       9.1050      0.00000
    141       9.1362      0.00000
    142       9.1751      0.00000
    143       9.1795      0.00000
    144       9.2506      0.00000

 k-point     9 :       0.2500    0.5000    0.0000
  band No.  band energies     occupation 
      1      -7.0077      2.00000
      2      -5.6194      2.00000
      3      -5.2723      2.00000
      4      -5.1608      2.00000
      5      -5.0975      2.00000
      6      -4.7208      2.00000
      7      -4.4428      2.00000
      8      -4.4191      2.00000
      9      -4.3233      2.00000
     10      -4.1183      2.00000
     11      -4.0137      2.00000
     12      -3.8865      2.00000
     13      -3.8251      2.00000
     14      -3.6756      2.00000
     15      -3.5350      2.00000
     16      -3.4405      2.00000
     17      -3.4364      2.00000
     18      -3.3032      2.00000
     19      -3.2642      2.00000
     20      -3.1712      2.00000
     21      -3.1265      2.00000
     22      -3.0691      2.00000
     23      -2.5734      2.00000
     24      -2.4804      2.00000
     25      -2.4414      2.00000
     26      -2.3179      2.00000
     27      -2.2508      2.00000
     28      -1.6710      2.00000
     29      -1.4094      2.00000
     30      -1.3938      2.00000
     31      -1.2167      2.00000
     32      -1.1890      2.00000
     33      -1.0380      2.00000
     34      -0.8998      2.00000
     35      -0.8686      2.00000
     36      -0.8058      2.00000
     37      -0.6076      2.00000
     38      -0.6076      2.00000
     39      -0.4689      2.00000
     40      -0.4412      2.00000
     41      -0.4347      2.00000
     42      -0.1573      2.00000
     43      -0.0644      2.00000
     44       0.1840      2.00000
     45       0.1930      2.00000
     46       0.2309      2.00000
     47       0.7066      2.00000
     48       0.9114      2.00000
     49       0.9302      2.00000
     50       1.1295      2.00000
     51       1.4729      2.00000
     52       1.8010      2.00000
     53       1.8099      2.00000
     54       1.8128      2.00000
[...]
tot         41.585  51.545   0.000  93.129
 
    CHARGE:  cpu time    0.2141: real time    0.2156
    FORLOC:  cpu time    0.0323: real time    0.0325
    FORNL :  cpu time    3.0963: real time    3.1197
    STRESS:  cpu time    8.8068: real time    8.8751
    FORCOR:  cpu time    0.1075: real time    0.1082
    FORHAR:  cpu time    0.0479: real time    0.0481
    MIXING:  cpu time    0.0040: real time    0.0040
    OFIELD:  cpu time    0.0001: real time    0.0001

  FORCE on cell =-STRESS in cart. coord.  units (eV):
  Direction    XX          YY          ZZ          XY          YZ          ZX
  --------------------------------------------------------------------------------------
  Alpha Z    94.20125    94.20125    94.20125
  Ewald   -2137.13342 -2086.97741 -2079.81227    20.26609     0.00000     0.00000
  Hartree   135.05589   142.03913   143.03674     2.82166     0.00000     0.00000
  E(xc)    -699.32297  -699.01643  -698.97266     0.12386    -0.00001    -0.00001
  Local    -773.54280  -816.23932  -822.33829   -17.25181     0.00026     0.00036
  n-local  2147.03145  2136.44914  2151.28550    -3.76825    -2.69185     1.11999
  augment  -322.67842  -321.64671  -321.49983     0.41658    -0.00013    -0.00047
  Kinetic  1574.15795  1546.31240  1582.70766    -8.99078    -5.91635     2.27081
  Fock        0.00000     0.00000     0.00000     0.00000     0.00000     0.00000
  -------------------------------------------------------------------------------------
  Total      19.47024    20.91147    21.11736     0.58234     0.00000     0.00000
  in kB      28.85750    30.99359    31.29875     0.86311     0.00000     0.00000
  external pressure =       30.38 kB  Pullay stress =        0.00 kB


 VOLUME and BASIS-vectors are now :
 -----------------------------------------------------------------------------
  energy-cutoff  :      550.00
  volume of cell :     1080.99
      direct lattice vectors                 reciprocal lattice vectors
     9.976465530  0.000000000  5.759915070     0.100235900 -0.035438742  0.000000000
     3.325488510  9.405901920  5.759915070     0.000000000  0.106316227  0.000000000
     0.000000000  0.000000000 11.519830140    -0.050117950 -0.035438742  0.086806836

  length of vectors
    11.519830124 11.519830136 11.519830140     0.106316227  0.106316227  0.106316227


 FORCES acting on ions
    electron-ion (+dipol)            ewald-force                    non-local-force                 convergence-correction
 -----------------------------------------------------------------------------------------------
   -.135E+00 0.479E-01 0.658E-06   -.277E+00 0.978E-01 -.269E-11   0.427E+00 -.151E+00 -.694E-17   -.429E-02 0.152E-02 0.113E-07
   0.113E+01 0.150E+01 0.131E+01   -.135E+01 -.140E+01 -.112E+01   0.217E+00 -.108E+00 -.172E+00   0.411E-02 0.148E-02 -.163E-02
   0.113E+01 0.150E+01 -.131E+01   -.135E+01 -.140E+01 0.112E+01   0.217E+00 -.108E+00 0.172E+00   0.411E-02 0.148E-02 0.163E-02
   0.607E+00 0.350E-01 0.220E+01   -.784E+00 0.185E+00 -.210E+01   0.182E+00 -.206E+00 -.111E+00   0.226E-02 -.376E-02 0.158E-02
   0.915E+01 -.324E+01 -.122E-05   -.955E+01 0.338E+01 0.729E-08   0.391E+00 -.138E+00 0.139E-16   0.307E-02 -.109E-02 0.180E-07
   0.607E+00 0.350E-01 -.220E+01   -.784E+00 0.185E+00 0.210E+01   0.182E+00 -.206E+00 0.111E+00   0.226E-02 -.376E-02 -.158E-02
   -.147E+00 -.210E+01 0.898E+00   -.135E+00 0.202E+01 -.973E+00   0.281E+00 0.737E-01 0.603E-01   0.320E-02 -.110E-02 0.321E-02
   -.147E+00 -.210E+01 -.898E+00   -.135E+00 0.202E+01 0.973E+00   0.281E+00 0.737E-01 -.603E-01   0.320E-02 -.110E-02 -.321E-02
   0.286E+00 -.101E+00 0.811E-06   -.301E+00 0.106E+00 -.150E-08   0.301E-01 -.106E-01 0.208E-16   0.571E-02 -.202E-02 0.275E-08
   0.344E+01 0.147E+01 0.438E+01   -.299E+01 -.144E+01 -.408E+01   -.463E+00 -.295E-01 -.316E+00   0.197E-02 0.115E-03 0.133E-02
   0.104E+02 0.250E+02 0.245E-05   -.118E+02 -.253E+02 0.241E-07   0.137E+01 0.304E+00 0.434E-17   -.542E-02 -.386E-02 -.513E-07
   0.344E+01 0.147E+01 -.438E+01   -.299E+01 -.144E+01 0.408E+01   -.463E+00 -.295E-01 0.316E+00   0.197E-02 0.115E-03 -.133E-02
   -.307E+01 -.132E+02 0.234E+02   0.208E+01 0.140E+02 -.240E+02   0.995E+00 -.746E+00 0.643E+00   -.270E-02 0.384E-02 -.471E-02
   -.307E+01 -.132E+02 -.234E+02   0.208E+01 0.140E+02 0.240E+02   0.995E+00 -.746E+00 -.643E+00   -.270E-02 0.384E-02 0.471E-02
   0.214E+01 0.215E+00 0.954E-06   -.187E+01 -.961E-01 -.643E-08   -.267E+00 -.118E+00 -.694E-17   0.156E-03 -.335E-02 0.799E-09
   0.910E+00 -.569E+01 -.134E-06   -.632E+00 0.522E+01 0.189E-08   -.281E+00 0.486E+00 0.867E-18   0.121E-02 -.205E-02 0.308E-07
   0.168E+01 -.108E+01 0.793E+00   -.151E+01 0.914E+00 -.619E+00   -.167E+00 0.165E+00 -.173E+00   0.171E-02 0.104E-02 -.269E-02
   0.168E+01 -.108E+01 -.793E+00   -.151E+01 0.914E+00 0.619E+00   -.167E+00 0.165E+00 0.173E+00   0.171E-02 0.104E-02 0.269E-02
   -.750E+01 0.586E+01 0.524E+01   0.728E+01 -.596E+01 -.553E+01   0.212E+00 0.102E+00 0.289E+00   -.276E-02 0.270E-02 0.281E-02
   -.750E+01 0.586E+01 -.524E+01   0.728E+01 -.596E+01 0.553E+01   0.212E+00 0.102E+00 -.289E+00   -.276E-02 0.270E-02 -.281E-02
   0.474E-02 0.102E+01 -.205E-06   0.235E+00 -.956E+00 -.353E-08   -.266E+00 -.342E-01 -.625E-16   -.259E-02 0.536E-02 0.434E-07
   -.105E+02 -.270E+01 0.669E-07   0.105E+02 0.307E+01 0.604E-08   0.448E-01 -.370E+00 -.694E-17   -.439E-02 -.189E-02 -.371E-07
   -.113E+01 -.474E+00 -.143E+01   0.124E+01 0.495E+00 0.152E+01   -.101E+00 -.176E-01 -.872E-01   -.408E-03 -.242E-02 -.419E-02
   -.113E+01 -.474E+00 0.143E+01   0.124E+01 0.495E+00 -.152E+01   -.101E+00 -.176E-01 0.872E-01   -.408E-03 -.242E-02 0.419E-02
   -.475E+00 -.341E+00 0.830E+00   0.647E+00 0.208E+00 -.712E+00   -.205E+00 0.137E+00 -.105E+00   -.469E-02 -.563E-03 0.363E-02
   -.304E+00 0.185E+01 0.167E-05   0.358E+00 -.199E+01 0.139E-08   -.509E-01 0.125E+00 0.000E+00   0.201E-02 0.442E-02 0.222E-08
   -.475E+00 -.341E+00 -.830E+00   0.647E+00 0.208E+00 0.712E+00   -.205E+00 0.137E+00 0.105E+00   -.469E-02 -.563E-03 -.363E-02
   -.286E+00 0.101E+00 0.962E-06   0.301E+00 -.106E+00 -.149E-08   -.301E-01 0.106E-01 -.486E-16   -.571E-02 0.202E-02 0.134E-07
   0.147E+00 0.210E+01 0.898E+00   0.135E+00 -.202E+01 -.973E+00   -.281E+00 -.737E-01 0.603E-01   -.320E-02 0.110E-02 0.321E-02
   0.147E+00 0.210E+01 -.898E+00   0.135E+00 -.202E+01 0.973E+00   -.281E+00 -.737E-01 -.603E-01   -.320E-02 0.110E-02 -.321E-02
   -.607E+00 -.350E-01 0.220E+01   0.784E+00 -.185E+00 -.210E+01   -.182E+00 0.206E+00 -.111E+00   -.226E-02 0.376E-02 0.158E-02
   -.915E+01 0.324E+01 0.404E-06   0.955E+01 -.338E+01 0.729E-08   -.391E+00 0.138E+00 -.694E-17   -.307E-02 0.109E-02 0.633E-08
   -.607E+00 -.350E-01 -.220E+01   0.784E+00 -.185E+00 0.210E+01   -.182E+00 0.206E+00 0.111E+00   -.226E-02 0.376E-02 -.158E-02
   -.113E+01 -.150E+01 0.131E+01   0.135E+01 0.140E+01 -.112E+01   -.217E+00 0.108E+00 -.172E+00   -.411E-02 -.148E-02 -.163E-02
   -.113E+01 -.150E+01 -.131E+01   0.135E+01 0.140E+01 0.112E+01   -.217E+00 0.108E+00 0.172E+00   -.411E-02 -.148E-02 0.163E-02
   0.135E+00 -.479E-01 0.555E-06   0.277E+00 -.978E-01 -.575E-11   -.427E+00 0.151E+00 -.243E-16   0.429E-02 -.152E-02 0.490E-07
   0.475E+00 0.341E+00 0.830E+00   -.647E+00 -.208E+00 -.712E+00   0.205E+00 -.137E+00 -.105E+00   0.469E-02 0.563E-03 0.363E-02
   0.304E+00 -.185E+01 -.139E-05   -.358E+00 0.199E+01 0.140E-08   0.509E-01 -.125E+00 -.208E-16   -.201E-02 -.442E-02 0.311E-07
   0.475E+00 0.341E+00 -.830E+00   -.647E+00 -.208E+00 0.712E+00   0.205E+00 -.137E+00 0.105E+00   0.469E-02 0.563E-03 -.363E-02
   0.113E+01 0.474E+00 -.143E+01   -.124E+01 -.495E+00 0.152E+01   0.101E+00 0.176E-01 -.872E-01   0.408E-03 0.242E-02 -.419E-02
   0.113E+01 0.474E+00 0.143E+01   -.124E+01 -.495E+00 -.152E+01   0.101E+00 0.176E-01 0.872E-01   0.408E-03 0.242E-02 0.419E-02
   0.105E+02 0.270E+01 -.603E-06   -.105E+02 -.307E+01 0.603E-08   -.448E-01 0.370E+00 0.139E-16   0.439E-02 0.189E-02 -.167E-08
   -.474E-02 -.102E+01 0.185E-05   -.235E+00 0.956E+00 -.352E-08   0.266E+00 0.342E-01 0.347E-16   0.259E-02 -.536E-02 -.259E-07
   0.750E+01 -.586E+01 0.524E+01   -.728E+01 0.596E+01 -.553E+01   -.212E+00 -.102E+00 0.289E+00   0.276E-02 -.270E-02 0.281E-02
   0.750E+01 -.586E+01 -.524E+01   -.728E+01 0.596E+01 0.553E+01   -.212E+00 -.102E+00 -.289E+00   0.276E-02 -.270E-02 -.281E-02
   -.168E+01 0.108E+01 0.793E+00   0.151E+01 -.914E+00 -.619E+00   0.167E+00 -.165E+00 -.173E+00   -.171E-02 -.104E-02 -.269E-02
   -.168E+01 0.108E+01 -.793E+00   0.151E+01 -.914E+00 0.619E+00   0.167E+00 -.165E+00 0.173E+00   -.171E-02 -.104E-02 0.269E-02
   -.910E+00 0.569E+01 -.665E-06   0.632E+00 -.522E+01 0.190E-08   0.281E+00 -.486E+00 0.147E-16   -.121E-02 0.205E-02 -.251E-07
   -.214E+01 -.215E+00 0.799E-06   0.187E+01 0.961E-01 -.642E-08   0.267E+00 0.118E+00 0.000E+00   -.156E-03 0.335E-02 0.475E-07
   0.307E+01 0.132E+02 0.234E+02   -.208E+01 -.140E+02 -.240E+02   -.995E+00 0.746E+00 0.643E+00   0.270E-02 -.384E-02 -.471E-02
   0.307E+01 0.132E+02 -.234E+02   -.208E+01 -.140E+02 0.240E+02   -.995E+00 0.746E+00 -.643E+00   0.270E-02 -.384E-02 0.471E-02
   -.344E+01 -.147E+01 0.438E+01   0.299E+01 0.144E+01 -.408E+01   0.463E+00 0.295E-01 -.316E+00   -.197E-02 -.115E-03 0.133E-02
   -.104E+02 -.250E+02 -.200E-05   0.118E+02 0.253E+02 0.241E-07   -.137E+01 -.304E+00 -.364E-16   0.542E-02 0.386E-02 -.665E-08
   -.344E+01 -.147E+01 -.438E+01   0.299E+01 0.144E+01 0.408E+01   0.463E+00 0.295E-01 0.316E+00   -.197E-02 -.115E-03 -.133E-02
   -.740E-06 0.214E-06 -.233E-07   -.112E-10 0.507E-11 0.115E-06   -.328E-21 -.265E-22 -.122E-20   -.205E-06 0.532E-07 -.314E-07
 -----------------------------------------------------------------------------------------------
   0.778E-05 0.142E-05 0.698E-05   0.512E-14 -.511E-13 -.231E-13   0.167E-15 0.472E-15 -.111E-15   -.244E-06 0.661E-07 -.331E-07
 
 
 POSITION                                       TOTAL-FORCE (eV/Angst)
 -----------------------------------------------------------------------------------
      3.78685      2.77623      6.71990         0.010249     -0.003624      0.000000
      3.87264      2.74039     10.55593         0.001260     -0.008170      0.010073
      3.87264      2.74039     14.40370         0.001260     -0.008170     -0.010073
      4.98260      5.87984      8.63342         0.007809      0.010354     -0.001271
      5.09742      5.84009     12.47982        -0.006140      0.002171      0.000000
      4.98260      5.87984     16.32621         0.007809      0.010354      0.001271
      6.09336      9.02153     10.55730         0.001993     -0.006095     -0.011344
      6.09336      9.02153     14.40233         0.001993     -0.006095      0.011344
      6.09483      9.01466     18.23973         0.020511     -0.007252     -0.000000
      7.14295      2.72641      8.57620        -0.006759     -0.003500     -0.009617
      7.13297      2.64045     12.47982        -0.001761     -0.005828      0.000000
      7.14295      2.72641     16.38343        -0.006759     -0.003500      0.009617
      8.30203      5.94706     10.45494         0.001280      0.002773     -0.005267
      8.30203      5.94706     14.50469         0.001280      0.002773      0.005267
      8.30358      5.87600     18.23973         0.004080     -0.002615      0.000000
      9.39670      9.10100     12.47982        -0.001206      0.012205      0.000000
      9.41503      9.01967     16.31464         0.004633     -0.001052     -0.000958
      9.41503      9.01967     20.16483         0.004633     -0.001052      0.000958
     10.53492      2.72344     10.52970        -0.012041      0.008007      0.006124
     10.53492      2.72344     14.42993        -0.012041      0.008007     -0.006124
     10.53723      2.73916     18.23973        -0.028192      0.030881     -0.000000
     11.66082      5.90797     12.47982        -0.015577     -0.001993      0.000000
     11.68516      5.87366     16.33807         0.008713      0.000600      0.006011
     11.68516      5.87366     20.14139         0.008713      0.000600     -0.006011
     12.75513      9.01233     14.39821        -0.038051      0.002996      0.017076
     12.78308      8.97906     18.23973         0.005243     -0.009216     -0.000000
     12.75513      9.01233     22.08125        -0.038051      0.002996     -0.017076
      0.55615      0.39124      0.95999        -0.020511      0.007252      0.000000
      0.55762      0.38437      4.79739        -0.001993      0.006095     -0.011344
      0.55762      0.38437      8.64241        -0.001993      0.006095      0.011344
      1.66837      3.52606      2.87350        -0.007809     -0.010354     -0.001271
      1.55356      3.56582      6.71990         0.006140     -0.002171      0.000000
      1.66837      3.52606     10.56630        -0.007809     -0.010354      0.001271
      2.77834      6.66551      4.79602        -0.001260      0.008170      0.010073
      2.77834      6.66551      8.64379        -0.001260      0.008170     -0.010073
      2.86412      6.62967     12.47982        -0.010249      0.003624      0.000000
      3.87231      0.39357      2.87838         0.038051     -0.002996      0.017076
      3.84436      0.42684      6.71990        -0.005243      0.009216      0.000000
      3.87231      0.39357     10.56142         0.038051     -0.002996     -0.017076
      4.94228      3.53225      4.81824        -0.008713     -0.000600      0.006011
      4.94228      3.53225      8.62156        -0.008713     -0.000600     -0.006011
      4.96663      3.49793     12.47982         0.015577      0.001993     -0.000000
      6.09021      6.66675      6.71990         0.028192     -0.030881      0.000000
      6.09253      6.68246     10.52970         0.012041     -0.008007      0.006124
      6.09253      6.68246     14.42993         0.012041     -0.008007     -0.006124
      7.21241      0.38624      4.79481        -0.004633      0.001052     -0.000958
      7.21241      0.38624      8.64500        -0.004633      0.001052      0.000958
      7.23074      0.30491     12.47982         0.001206     -0.012205     -0.000000
      8.32386      3.52990      6.71990        -0.004080      0.002615      0.000000
      8.32541      3.45884     10.45494        -0.001280     -0.002773     -0.005267
      8.32541      3.45884     14.50469        -0.001280     -0.002773      0.005267
      9.48449      6.67949      8.57620         0.006759      0.003500     -0.009617
      9.49448      6.76545     12.47982         0.001761      0.005828      0.000000
      9.48449      6.67949     16.38343         0.006759      0.003500      0.009617
      8.31372      4.70295     12.47982        -0.000000      0.000000      0.000000
 -----------------------------------------------------------------------------------
    total drift:                                0.000008      0.000001      0.000007


--------------------------------------------------------------------------------------------------------



  FREE ENERGIE OF THE ION-ELECTRON SYSTEM (eV)
  ---------------------------------------------------
  free  energy   TOTEN  =      -294.39911574 eV

  energy  without entropy=     -294.39788938  energy(sigma->0) =     -294.39850256
 
 d Force = 0.3616578E-02[ 0.125E-02, 0.598E-02]  d Energy = 0.3621188E-02-0.461E-05
 d Force = 0.4128882E-01[ 0.333E-01, 0.493E-01]  d Ewald  = 0.4129241E-01-0.359E-05


--------------------------------------------------------------------------------------------------------


    POTLOK:  cpu time    0.0832: real time    0.0865


--------------------------------------------------------------------------------------------------------


 Conjugate gradient step on ions:
 trial-energy change:   -0.003621  1 .order   -0.003617   -0.005983   -0.001251
  (g-gl).g = 0.528E-02      g.g   = 0.503E-02  gl.gl    = 0.948E-02
 g(Force)  = 0.503E-02   g(Stress)= 0.000E+00 ortho     = 0.356E-04
 gamma     =   0.55660
 trial     =   1.18394
 opt step  =   1.49686  (harmonic =   1.49686) maximal distance =0.01400623
 next E    =  -294.399276   (d E  =  -0.00378)


--------------------------------------------------------------------------------------------------------


  
 reached required accuracy - stopping structural energy minimisation
 writing wavefunctions
     LOOP+:  cpu time   49.3598: real time   49.8729
    4ORBIT:  cpu time    0.0000: real time    0.0000
 


 total charge     
 
# of ion       s       p       d       tot
------------------------------------------
    1        0.753   0.938   0.000   1.691
    2        0.752   0.945   0.000   1.697
    3        0.751   0.945   0.000   1.696
    4        0.752   0.947   0.000   1.699
    5        0.755   0.928   0.000   1.684
    6        0.751   0.946   0.000   1.697
    7        0.751   0.947   0.000   1.698
    8        0.751   0.946   0.000   1.697
    9        0.751   0.944   0.000   1.695
   10        0.760   0.941   0.000   1.701
   11        0.760   0.895   0.000   1.655
   12        0.761   0.943   0.000   1.704
   13        0.770   0.905   0.000   1.675
   14        0.765   0.904   0.000   1.669
   15        0.753   0.945   0.000   1.698
   16        0.756   0.938   0.000   1.694
   17        0.750   0.941   0.000   1.691
   18        0.751   0.943   0.000   1.694
   19        0.753   0.944   0.000   1.698
   20        0.755   0.946   0.000   1.700
   21        0.752   0.943   0.000   1.695
   22        0.754   0.945   0.000   1.699
   23        0.752   0.943   0.000   1.695
   24        0.752   0.943   0.000   1.695
   25        0.751   0.943   0.000   1.694
   26        0.752   0.943   0.000   1.695
   27        0.751   0.943   0.000   1.695
   28        0.751   0.944   0.000   1.695
   29        0.751   0.946   0.000   1.697
   30        0.751   0.947   0.000   1.698
   31        0.751   0.946   0.000   1.697
   32        0.755   0.928   0.000   1.684
   33        0.752   0.947   0.000   1.699
   34        0.751   0.945   0.000   1.696
   35        0.752   0.945   0.000   1.697
   36        0.753   0.938   0.000   1.691
   37        0.751   0.943   0.000   1.695
   38        0.752   0.943   0.000   1.695
   39        0.751   0.943   0.000   1.694
   40        0.752   0.943   0.000   1.695
   41        0.752   0.943   0.000   1.695
   42        0.754   0.945   0.000   1.699
   43        0.752   0.943   0.000   1.695
   44        0.755   0.946   0.000   1.700
   45        0.753   0.944   0.000   1.698
   46        0.751   0.943   0.000   1.694
   47        0.750   0.941   0.000   1.691
   48        0.756   0.938   0.000   1.694
   49        0.753   0.945   0.000   1.698
   50        0.765   0.904   0.000   1.669
   51        0.770   0.905   0.000   1.675
   52        0.761   0.943   0.000   1.704
   53        0.760   0.895   0.000   1.655
   54        0.760   0.941   0.000   1.701
   55        0.853   0.874   0.000   1.727
--------------------------------------------------
tot         41.585  51.545   0.000  93.129
 

 total amount of memory used by VASP MPI-rank0   149529. kBytes
=======================================================================

   base      :      30000. kBytes
   nonl-proj :      54318. kBytes
   fftplans  :       5382. kBytes
   grid      :      19496. kBytes
   one-center:        168. kBytes
   wavefun   :      40165. kBytes
 
  
  
 General timing and accounting informations for this job:
 ========================================================
  
                  Total CPU time used (sec):      722.830
                            User time (sec):      714.910
                          System time (sec):        7.920
                         Elapsed time (sec):      733.411
  
                   Maximum memory used (kb):      485752.
                   Average memory used (kb):           0.
  
                          Minor page faults:        41478
                          Major page faults:            0
                 Voluntary context switches:         8360
