 vasp.6.3.0 20Jan22 (build Mar 07 2022 09:35:52) complex                        
  
 executed on             LinuxIFC date 2025.06.26  16:12:44
 running on   96 total cores
 distrk:  each k-point on   96 cores,    1 groups
 distr:  one band on NCORE=   1 cores,   96 groups


--------------------------------------------------------------------------------------------------------


 INCAR:
   ALGO = Normal
   AMIX = 0.2
   EDIFF = 1e-06
   EDIFFG = -0.05
   ENCUT = 550.0
   IBRION = 2
   ISIF = 2
   ISMEAR = 0
   ISPIN = 1
   ISYM = 2
   LCHARG = True
   LORBIT = 11
   LREAL = False
   LVTOT = True
   LWAVE = True
   NELECT = 385.0
   NELM = 200
   NSW = 0
   SIGMA = 0.05
   SYSTEM = SiO2

 POTCAR:    PAW_PBE Si 05Jan2001                  
 POTCAR:    PAW_PBE O 08Apr2002                   
 WARNING: For LVTOT=.TRUE., VASP.5.x writes the TOTAL local potential to the
     file LOCPOT. If you want only the Hartree contributions, use LVHAR=.TRUE.
     instead. 

 -----------------------------------------------------------------------------
|                                                                             |
|           W    W    AA    RRRRR   N    N  II  N    N   GGGG   !!!           |
|           W    W   A  A   R    R  NN   N  II  NN   N  G    G  !!!           |
|           W    W  A    A  R    R  N N  N  II  N N  N  G       !!!           |
|           W WW W  AAAAAA  RRRRR   N  N N  II  N  N N  G  GGG   !            |
|           WW  WW  A    A  R   R   N   NN  II  N   NN  G    G                |
|           W    W  A    A  R    R  N    N  II  N    N   GGGG   !!!           |
|                                                                             |
|     For optimal performance we recommend to set                             |
|       NCORE = 2 up to number-of-cores-per-socket                            |
|     NCORE specifies how many cores store one orbital (NPAR=cpu/NCORE).      |
|     This setting can greatly improve the performance of VASP for DFT.       |
|     The default, NCORE=1 might be grossly inefficient on modern             |
|     multi-core architectures or massively parallel machines. Do your        |
|     own testing! More info at https://www.vasp.at/wiki/index.php/NCORE      |
|     Unfortunately you need to use the default for GW and RPA                |
|     calculations (for HF NCORE is supported but not extensively tested      |
|     yet).                                                                   |
|                                                                             |
 -----------------------------------------------------------------------------

 POTCAR:    PAW_PBE Si 05Jan2001                  
   VRHFIN =Si: s2p2                                                                                 
   LEXCH  = PE                                                                                      
   EATOM  =   103.0669 eV,    7.5752 Ry                                                             
                                                                                                    
   TITEL  = PAW_PBE Si 05Jan2001                                                                    
   LULTRA =        F    use ultrasoft PP ?                                                          
   IUNSCR =        1    unscreen: 0-lin 1-nonlin 2-no                                               
   RPACOR =    1.500    partial core radius                                                         
   POMASS =   28.085; ZVAL   =    4.000    mass and valenz                                          
   RCORE  =    1.900    outmost cutoff radius                                                       
   RWIGS  =    2.480; RWIGS  =    1.312    wigner-seitz radius (au A)                               
   ENMAX  =  245.345; ENMIN  =  184.009 eV                                                          
   ICORE  =        2    local potential                                                             
   LCOR   =        T    correct aug charges                                                         
   LPAW   =        T    paw PP                                                                      
   EAUG   =  322.069                                                                                
   DEXC   =    0.000                                                                                
   RMAX   =    1.950    core radius for proj-oper                                                   
   RAUG   =    1.300    factor for augmentation sphere                                              
   RDEP   =    1.993    radius for radial grids                                                     
   RDEPT  =    1.837    core radius for aug-charge                                                  
                                                                                                    
   Atomic configuration                                                                             
    6 entries                                                                                       
     n  l   j            E        occ.                                                              
     1  0  0.50     -1785.8828   2.0000                                                             
     2  0  0.50      -139.4969   2.0000                                                             
     2  1  1.50       -95.5546   6.0000                                                             
     3  0  0.50       -10.8127   2.0000                                                             
     3  1  0.50        -4.0811   2.0000                                                             
     3  2  1.50        -4.0817   0.0000                                                             
   Description                                                                                      
     l       E           TYP  RCUT    TYP  RCUT                                                     
     0    -10.8127223     23  1.900                                                                 
     0     -7.6451159     23  1.900                                                                 
     1     -4.0811372     23  1.900                                                                 
     1      2.4879257     23  1.900                                                                 
     2     -4.0817478      7  1.900                                                                 
  local pseudopotential read in
  partial core-charges read in
  partial kinetic energy density read in
  atomic valenz-charges read in
  non local Contribution for L=           0  read in
    real space projection operators read in
  non local Contribution for L=           0  read in
    real space projection operators read in
  non local Contribution for L=           1  read in
    real space projection operators read in
  non local Contribution for L=           1  read in
    real space projection operators read in
    PAW grid and wavefunctions read in
 
   number of l-projection  operators is LMAX  =           4
   number of lm-projection operators is LMMAX =           8
 
 POTCAR:    PAW_PBE O 08Apr2002                   
   VRHFIN =O: s2p4                                                                                  
   LEXCH  = PE                                                                                      
   EATOM  =   432.3788 eV,   31.7789 Ry                                                             
                                                                                                    
   TITEL  = PAW_PBE O 08Apr2002                                                                     
   LULTRA =        F    use ultrasoft PP ?                                                          
   IUNSCR =        1    unscreen: 0-lin 1-nonlin 2-no                                               
   RPACOR =    1.200    partial core radius                                                         
   POMASS =   16.000; ZVAL   =    6.000    mass and valenz                                          
   RCORE  =    1.520    outmost cutoff radius                                                       
   RWIGS  =    1.550; RWIGS  =    0.820    wigner-seitz radius (au A)                               
   ENMAX  =  400.000; ENMIN  =  300.000 eV                                                          
   ICORE  =        2    local potential                                                             
   LCOR   =        T    correct aug charges                                                         
   LPAW   =        T    paw PP                                                                      
   EAUG   =  605.392                                                                                
   DEXC   =    0.000                                                                                
   RMAX   =    1.553    core radius for proj-oper                                                   
   RAUG   =    1.300    factor for augmentation sphere                                              
   RDEP   =    1.550    radius for radial grids                                                     
   RDEPT  =    1.329    core radius for aug-charge                                                  
                                                                                                    
   Atomic configuration                                                                             
    4 entries                                                                                       
     n  l   j            E        occ.                                                              
     1  0  0.50      -514.6923   2.0000                                                             
     2  0  0.50       -23.9615   2.0000                                                             
     2  1  0.50        -9.0305   4.0000                                                             
     3  2  1.50        -9.5241   0.0000                                                             
   Description                                                                                      
     l       E           TYP  RCUT    TYP  RCUT                                                     
     0    -23.9615318     23  1.200                                                                 
     0     -9.5240782     23  1.200                                                                 
     1     -9.0304911     23  1.520                                                                 
     1      8.1634956     23  1.520                                                                 
     2     -9.5240782      7  1.500                                                                 
  local pseudopotential read in
  partial core-charges read in
  partial kinetic energy density read in
  kinetic energy density of atom read in
  atomic valenz-charges read in
  non local Contribution for L=           0  read in
    real space projection operators read in
  non local Contribution for L=           0  read in
    real space projection operators read in
  non local Contribution for L=           1  read in
    real space projection operators read in
  non local Contribution for L=           1  read in
    real space projection operators read in
    PAW grid and wavefunctions read in
 
   number of l-projection  operators is LMAX  =           4
   number of lm-projection operators is LMMAX =           8
 
 -----------------------------------------------------------------------------
|                                                                             |
|               ----> ADVICE to this user running VASP <----                  |
|                                                                             |
|     You have a (more or less) 'large supercell' and for larger cells it     |
|     might be more efficient to use real-space projection operators.         |
|     Therefore, try LREAL= Auto in the INCAR file.                           |
|     Mind: For very accurate calculation, you might also keep the            |
|     reciprocal projection scheme (i.e. LREAL=.FALSE.).                      |
|                                                                             |
 -----------------------------------------------------------------------------

  PAW_PBE Si 05Jan2001                  :
 energy of atom  1       EATOM= -103.0669
 kinetic energy error for atom=    0.0004 (will be added to EATOM!!)
  PAW_PBE O 08Apr2002                   :
 energy of atom  2       EATOM= -432.3788
 kinetic energy error for atom=    0.0194 (will be added to EATOM!!)
 
 
 POSCAR: Si23 O48
  positions in direct lattice
  No initial velocities read in
 exchange correlation table for  LEXCH =        8
   RHO(1)=    0.500       N(1)  =     2000
   RHO(2)=  100.500       N(2)  =     4000

 VTST: version 4.2, (08/11/21)

 CHAIN: initializing optimizer
 
 OPT: Using VASP Conjugate-Gradient optimizer
 CHAIN: Read ICHAIN            0
 
 POSCAR: Si23 O48
  positions in direct lattice
  No initial velocities read in
 


--------------------------------------------------------------------------------------------------------


 ion  position               nearest neighbor table
   1  0.266  0.266  0.500-  64 1.61  33 1.61  49 1.62  24 1.62  12 3.06  19 3.06  17 3.06   8 3.06

   2  0.266  0.766  0.000-  67 1.61  34 1.61  50 1.62  27 1.62  15 3.06  16 3.06  11 3.06  18 3.06

   3  0.266  0.766  0.500-  66 1.61  35 1.61  51 1.62  26 1.62  14 3.06  17 3.06  10 3.06  19 3.06

   4  0.766  0.266  0.000-  69 1.61  36 1.61  52 1.62  29 1.62   9 3.06  22 3.06  20 3.06  13 3.06

   5  0.766  0.266  0.500-  68 1.61  37 1.61  53 1.62  28 1.62   8 3.06  23 3.06  21 3.06  12 3.06

   6  0.766  0.766  0.000-  71 1.61  38 1.61  54 1.62  31 1.62  11 3.06  20 3.06  15 3.06  22 3.06

   7  0.766  0.766  0.500-  70 1.61  39 1.61  55 1.62  30 1.62  10 3.06  21 3.06  14 3.06  23 3.06

   8  0.000  0.234  0.333-  24 1.61  60 1.61  40 1.62  68 1.62   5 3.06   1 3.06  18 3.06  20 3.06

   9  0.000  0.234  0.833-  25 1.61  61 1.61  41 1.62  69 1.62   4 3.06  19 3.06  21 3.06
  10  0.000  0.734  0.333-  26 1.61  62 1.61  42 1.62  70 1.62   7 3.06   3 3.06  16 3.06  22 3.06

  11  0.000  0.734  0.833-  27 1.61  63 1.61  43 1.62  71 1.62   6 3.06   2 3.06  17 3.06  23 3.06

  12  0.500  0.234  0.333-  28 1.61  56 1.61  44 1.62  64 1.62   1 3.06   5 3.06  16 3.06  22 3.06

  13  0.500  0.234  0.833-  29 1.61  57 1.61  45 1.62  65 1.62   4 3.06  17 3.06  23 3.06
  14  0.500  0.734  0.333-  30 1.61  58 1.61  46 1.62  66 1.62   3 3.06   7 3.06  18 3.06  20 3.06

  15  0.500  0.734  0.833-  31 1.61  59 1.61  47 1.62  67 1.62   2 3.06   6 3.06  19 3.06  21 3.06

  16  0.234  0.000  0.167-  48 1.61  42 1.61  34 1.62  56 1.62   2 3.06  10 3.06  12 3.06
  17  0.234  0.000  0.667-  49 1.61  43 1.61  35 1.62  57 1.62   3 3.06   1 3.06  11 3.06  13 3.06

  18  0.234  0.500  0.167-  50 1.61  40 1.61  32 1.62  58 1.62   2 3.06   8 3.06  14 3.06
  19  0.234  0.500  0.667-  51 1.61  41 1.61  33 1.62  59 1.62   1 3.06   3 3.06   9 3.06  15 3.06

  20  0.734  0.000  0.167-  52 1.61  46 1.61  38 1.62  60 1.62   6 3.06   4 3.06   8 3.06  14 3.06

  21  0.734  0.000  0.667-  53 1.61  47 1.61  39 1.62  61 1.62   7 3.06   5 3.06   9 3.06  15 3.06

  22  0.734  0.500  0.167-  54 1.61  44 1.61  36 1.62  62 1.62   4 3.06   6 3.06  10 3.06  12 3.06

  23  0.734  0.500  0.667-  55 1.61  45 1.61  37 1.62  63 1.62   5 3.06   7 3.06  11 3.06  13 3.06

  24  0.135  0.207  0.392-   8 1.61   1 1.62
  25  0.135  0.207  0.892-   9 1.61
  26  0.135  0.707  0.392-  10 1.61   3 1.62
  27  0.135  0.707  0.892-  11 1.61   2 1.62
  28  0.635  0.207  0.392-  12 1.61   5 1.62
  29  0.635  0.207  0.892-  13 1.61   4 1.62
  30  0.635  0.707  0.392-  14 1.61   7 1.62
  31  0.635  0.707  0.892-  15 1.61   6 1.62
  32  0.293  0.428  0.059-  18 1.62
  33  0.293  0.428  0.559-   1 1.61  19 1.62
  34  0.293  0.928  0.059-   2 1.61  16 1.62
  35  0.293  0.928  0.559-   3 1.61  17 1.62
  36  0.793  0.428  0.059-   4 1.61  22 1.62
  37  0.793  0.428  0.559-   5 1.61  23 1.62
  38  0.793  0.928  0.059-   6 1.61  20 1.62
  39  0.793  0.928  0.559-   7 1.61  21 1.62
  40  0.072  0.365  0.226-  18 1.61   8 1.62
  41  0.072  0.365  0.726-  19 1.61   9 1.62
  42  0.072  0.865  0.226-  16 1.61  10 1.62
  43  0.072  0.865  0.726-  17 1.61  11 1.62
  44  0.572  0.365  0.226-  22 1.61  12 1.62
  45  0.572  0.365  0.726-  23 1.61  13 1.62
  46  0.572  0.865  0.226-  20 1.61  14 1.62
  47  0.572  0.865  0.726-  21 1.61  15 1.62
  48  0.207  0.135  0.108-  16 1.61
  49  0.207  0.135  0.608-  17 1.61   1 1.62
  50  0.207  0.635  0.108-  18 1.61   2 1.62
  51  0.207  0.635  0.608-  19 1.61   3 1.62
  52  0.707  0.135  0.108-  20 1.61   4 1.62
  53  0.707  0.135  0.608-  21 1.61   5 1.62
  54  0.707  0.635  0.108-  22 1.61   6 1.62
  55  0.707  0.635  0.608-  23 1.61   7 1.62
  56  0.365  0.072  0.274-  12 1.61  16 1.62
  57  0.365  0.072  0.774-  13 1.61  17 1.62
  58  0.365  0.572  0.274-  14 1.61  18 1.62
  59  0.365  0.572  0.774-  15 1.61  19 1.62
  60  0.865  0.072  0.274-   8 1.61  20 1.62
  61  0.865  0.072  0.774-   9 1.61  21 1.62
  62  0.865  0.572  0.274-  10 1.61  22 1.62
  63  0.865  0.572  0.774-  11 1.61  23 1.62
  64  0.428  0.293  0.441-   1 1.61  12 1.62
  65  0.428  0.293  0.941-  13 1.62
  66  0.428  0.793  0.441-   3 1.61  14 1.62
  67  0.428  0.793  0.941-   2 1.61  15 1.62
  68  0.928  0.293  0.441-   5 1.61   8 1.62
  69  0.928  0.293  0.941-   4 1.61   9 1.62
  70  0.928  0.793  0.441-   7 1.61  10 1.62
  71  0.928  0.793  0.941-   6 1.61  11 1.62
 
  LATTYP: Found a hexagonal cell.
 ALAT       =     9.8299323535
 C/A-ratio  =     1.1050536148
  
  Lattice vectors:
  
 A1 = (   4.9149661767,  -8.5129711356,   0.0000000000)
 A2 = (   4.9149661767,   8.5129711356,   0.0000000000)
 A3 = (   0.0000000000,   0.0000000000,  10.8626022800)


Analysis of symmetry for initial positions (statically):
=====================================================================
 Subroutine PRICEL returns:
 Original cell was already a primitive cell.
 

 Routine SETGRP: Setting up the symmetry group for a 
 hexagonal supercell.


 Subroutine GETGRP returns: Found  2 space group operations
 (whereof  2 operations were pure point group operations)
 out of a pool of 24 trial point group operations.


The static configuration has the point symmetry C_2 .


Analysis of symmetry for dynamics (positions and initial velocities):
=====================================================================
 Subroutine PRICEL returns:
 Original cell was already a primitive cell.
 

 Routine SETGRP: Setting up the symmetry group for a 
 hexagonal supercell.


 Subroutine GETGRP returns: Found  2 space group operations
 (whereof  2 operations were pure point group operations)
 out of a pool of 24 trial point group operations.


The dynamic configuration has the point symmetry C_2 .


 Subroutine INISYM returns: Found  2 space group operations
 (whereof  2 operations are pure point group operations),
 and found     1 'primitive' translations


----------------------------------------------------------------------------------------

                                     Primitive cell                                     

  volume of cell :     909.0035

  direct lattice vectors                    reciprocal lattice vectors
     4.914966177 -8.512971136  0.000000000     0.101730100 -0.058733901  0.000000000
     4.914966177  8.512971136  0.000000000     0.101730100  0.058733901  0.000000000
     0.000000000  0.000000000 10.862602280     0.000000000  0.000000000  0.092058972

  length of vectors
     9.829932353  9.829932353 10.862602280     0.117467801  0.117467801  0.092058972

  position of ions in fractional coordinates (direct lattice)
     0.265544295  0.265544295  0.500000000
     0.265544295  0.765544295  0.000000000
     0.265544295  0.765544295  0.500000000
     0.765544295  0.265544295  0.000000000
     0.765544295  0.265544295  0.500000000
     0.765544295  0.765544295  0.000000000
     0.765544295  0.765544295  0.500000000
     1.000000000  0.234455705  0.333333333
     1.000000000  0.234455705  0.833333333
     1.000000000  0.734455705  0.333333333
     1.000000000  0.734455705  0.833333333
     0.500000000  0.234455705  0.333333333
     0.500000000  0.234455705  0.833333333
     0.500000000  0.734455705  0.333333333
     0.500000000  0.734455705  0.833333333
     0.234455705  1.000000000  0.166666667
     0.234455705  1.000000000  0.666666667
     0.234455705  0.500000000  0.166666667
     0.234455705  0.500000000  0.666666667
     0.734455705  1.000000000  0.166666667
     0.734455705  1.000000000  0.666666667
     0.734455705  0.500000000  0.166666667
     0.734455705  0.500000000  0.666666667
     0.134611555  0.206697145  0.392445490
     0.134611555  0.206697145  0.892445490
     0.134611555  0.706697145  0.392445490
     0.134611555  0.706697145  0.892445490
     0.634611555  0.206697145  0.392445490
     0.634611555  0.206697145  0.892445490
     0.634611555  0.706697145  0.392445490
     0.634611555  0.706697145  0.892445490
     0.293302855  0.427914410  0.059112157
     0.293302855  0.427914410  0.559112157
     0.293302855  0.927914410  0.059112157
     0.293302855  0.927914410  0.559112157
     0.793302855  0.427914410  0.059112157
     0.793302855  0.427914410  0.559112157
     0.793302855  0.927914410  0.059112157
     0.793302855  0.927914410  0.559112157
     0.072085590  0.365388445  0.225778823
     0.072085590  0.365388445  0.725778823
     0.072085590  0.865388445  0.225778823
     0.072085590  0.865388445  0.725778823
     0.572085590  0.365388445  0.225778823
     0.572085590  0.365388445  0.725778823
     0.572085590  0.865388445  0.225778823
     0.572085590  0.865388445  0.725778823
     0.206697145  0.134611555  0.107554510
     0.206697145  0.134611555  0.607554510
     0.206697145  0.634611555  0.107554510
     0.206697145  0.634611555  0.607554510
     0.706697145  0.134611555  0.107554510
     0.706697145  0.134611555  0.607554510
     0.706697145  0.634611555  0.107554510
     0.706697145  0.634611555  0.607554510
     0.365388445  0.072085590  0.274221177
     0.365388445  0.072085590  0.774221177
     0.365388445  0.572085590  0.274221177
     0.365388445  0.572085590  0.774221177
     0.865388445  0.072085590  0.274221177
     0.865388445  0.072085590  0.774221177
     0.865388445  0.572085590  0.274221177
     0.865388445  0.572085590  0.774221177
     0.427914410  0.293302855  0.440887843
     0.427914410  0.293302855  0.940887843
     0.427914410  0.793302855  0.440887843
     0.427914410  0.793302855  0.940887843
     0.927914410  0.293302855  0.440887843
     0.927914410  0.293302855  0.940887843
     0.927914410  0.793302855  0.440887843
     0.927914410  0.793302855  0.940887843

  ion indices of the primitive-cell ions
   primitive index   ion index
                 1           1
                 2           2
                 3           3
                 4           4
                 5           5
                 6           6
                 7           7
                 8           8
                 9           9
                10          10
                11          11
                12          12
                13          13
                14          14
                15          15
                16          16
                17          17
                18          18
                19          19
                20          20
                21          21
                22          22
                23          23
                24          24
                25          25
                26          26
                27          27
                28          28
                29          29
                30          30
                31          31
                32          32
                33          33
                34          34
                35          35
                36          36
                37          37
                38          38
                39          39
                40          40
                41          41
                42          42
                43          43
                44          44
                45          45
                46          46
                47          47
                48          48
                49          49
                50          50
                51          51
                52          52
                53          53
                54          54
                55          55
                56          56
                57          57
                58          58
                59          59
                60          60
                61          61
                62          62
                63          63
                64          64
                65          65
                66          66
                67          67
                68          68
                69          69
                70          70
                71          71

----------------------------------------------------------------------------------------

 
 
 KPOINTS: pymatgen with grid density = 1000 / numb

Automatic generation of k-mesh.
 Grid dimensions read from file:
 generate k-points for:    2    2    2

 Generating k-lattice:

  Cartesian coordinates                     Fractional coordinates (reciprocal lattice)
     0.050865050 -0.029366950  0.000000000     0.500000000 -0.000000000  0.000000000
     0.050865050  0.029366950  0.000000000    -0.000000000  0.500000000  0.000000000
     0.000000000  0.000000000  0.046029486     0.000000000  0.000000000  0.500000000

  Length of vectors
     0.058733901  0.058733901  0.046029486

  Shift w.r.t. Gamma in fractional coordinates (k-lattice)
     0.000000000  0.000000000  0.000000000

 
 Subroutine IBZKPT returns following result:
 ===========================================
 
 Found      6 irreducible k-points:
 
 Following reciprocal coordinates:
            Coordinates               Weight
  0.000000  0.000000  0.000000      1.000000
  0.500000  0.000000  0.000000      2.000000
  0.500000  0.500000  0.000000      1.000000
  0.000000  0.000000  0.500000      1.000000
  0.500000  0.000000  0.500000      2.000000
  0.500000  0.500000  0.500000      1.000000
 
 Following cartesian coordinates:
            Coordinates               Weight
  0.000000  0.000000  0.000000      1.000000
  0.050865 -0.029367  0.000000      2.000000
  0.101730  0.000000  0.000000      1.000000
  0.000000  0.000000  0.046029      1.000000
  0.050865 -0.029367  0.046029      2.000000
  0.101730  0.000000  0.046029      1.000000
 


--------------------------------------------------------------------------------------------------------




 Dimension of arrays:
   k-points           NKPTS =      6   k-points in BZ     NKDIM =      6   number of bands    NBANDS=    288
   number of dos      NEDOS =    301   number of ions     NIONS =     71
   non local maximal  LDIM  =      4   non local SUM 2l+1 LMDIM =      8
   total plane-waves  NPLWV = 200704
   max r-space proj   IRMAX =      1   max aug-charges    IRDMAX=   7581
   dimension x,y,z NGX =    56 NGY =   56 NGZ =   64
   dimension x,y,z NGXF=   112 NGYF=  112 NGZF=  128
   support grid    NGXF=   112 NGYF=  112 NGZF=  128
   ions per type =              23  48
   NGX,Y,Z   is equivalent  to a cutoff of   9.47,  9.47,  9.79 a.u.
   NGXF,Y,Z  is equivalent  to a cutoff of  18.94, 18.94, 19.59 a.u.

 SYSTEM =  SiO2                                    
 POSCAR =  Si23 O48                                

 Startparameter for this run:
   NWRITE =      2    write-flag & timer
   PREC   = normal    normal or accurate (medium, high low for compatibility)
   ISTART =      0    job   : 0-new  1-cont  2-samecut
   ICHARG =      2    charge: 1-file 2-atom 10-const
   ISPIN  =      1    spin polarized calculation?
   LNONCOLLINEAR =      F non collinear calculations
   LSORBIT =      F    spin-orbit coupling
   INIWAV =      1    electr: 0-lowe 1-rand  2-diag
   LASPH  =      F    aspherical Exc in radial PAW
 Electronic Relaxation 1
   ENCUT  =  550.0 eV  40.42 Ry    6.36 a.u.  18.80 18.80 20.77*2*pi/ulx,y,z
   ENINI  =  550.0     initial cutoff
   ENAUG  =  605.4 eV  augmentation charge cutoff
   NELM   =    200;   NELMIN=  2; NELMDL= -5     # of ELM steps 
   EDIFF  = 0.1E-05   stopping-criterion for ELM
   LREAL  =      F    real-space projection
   NLSPLINE    = F    spline interpolate recip. space projectors
   LCOMPAT=      F    compatible to vasp.4.4
   GGA_COMPAT  = T    GGA compatible to vasp.4.4-vasp.4.6
   LMAXPAW     = -100 max onsite density
   LMAXMIX     =    2 max onsite mixed and CHGCAR
   VOSKOWN=      0    Vosko Wilk Nusair interpolation
   ROPT   =    0.00000   0.00000
 Ionic relaxation
   EDIFFG = -.5E-01   stopping-criterion for IOM
   NSW    =      0    number of steps for IOM
   NBLOCK =      1;   KBLOCK =      1    inner block; outer block 
   IBRION =     -1    ionic relax: 0-MD 1-quasi-New 2-CG
   NFREE  =      1    steps in history (QN), initial steepest desc. (CG)
   ISIF   =      2    stress and relaxation
   IWAVPR =     10    prediction:  0-non 1-charg 2-wave 3-comb
   ISYM   =      2    0-nonsym 1-usesym 2-fastsym
   LCORR  =      T    Harris-Foulkes like correction to forces

   POTIM  = 0.5000    time-step for ionic-motion
   TEIN   =    0.0    initial temperature
   TEBEG  =    0.0;   TEEND  =   0.0 temperature during run
   SMASS  =  -3.00    Nose mass-parameter (am)
   estimated Nose-frequenzy (Omega)   =  0.10E-29 period in steps = 0.13E+47 mass=  -0.221E-26a.u.
   SCALEE = 1.0000    scale energy and forces
   NPACO  =    256;   APACO  = 10.0  distance and # of slots for P.C.
   PSTRESS=    0.0 pullay stress

  Mass of Ions in am
   POMASS =  28.09 16.00
  Ionic Valenz
   ZVAL   =   4.00  6.00
  Atomic Wigner-Seitz radii
   RWIGS  =  -1.00 -1.00
  virtual crystal weights 
   VCA    =   1.00  1.00
   NELECT =     385.0000    total number of electrons
   NUPDOWN=      -1.0000    fix difference up-down

 DOS related values:
   EMIN   =  10.00;   EMAX   =-10.00  energy-range for DOS
   EFERMI =   0.00
   ISMEAR =     0;   SIGMA  =   0.05  broadening in eV -4-tet -1-fermi 0-gaus

 Electronic relaxation 2 (details)
   IALGO  =     38    algorithm
   LDIAG  =      T    sub-space diagonalisation (order eigenvalues)
   LSUBROT=      F    optimize rotation matrix (better conditioning)
   TURBO    =      0    0=normal 1=particle mesh
   IRESTART =      0    0=no restart 2=restart with 2 vectors
   NREBOOT  =      0    no. of reboots
   NMIN     =      0    reboot dimension
   EREF     =   0.00    reference energy to select bands
   IMIX   =      4    mixing-type and parameters
     AMIX     =   0.20;   BMIX     =  1.00
     AMIX_MAG =   0.80;   BMIX_MAG =  1.00
     AMIN     =   0.10
     WC   =   100.;   INIMIX=   1;  MIXPRE=   1;  MAXMIX= -45

 Intra band minimization:
   WEIMIN = 0.0000     energy-eigenvalue tresh-hold
   EBREAK =  0.87E-09  absolut break condition
   DEPER  =   0.30     relativ break condition  

   TIME   =   0.40     timestep for ELM

  volume/ion in A,a.u.               =      12.80        86.40
  Fermi-wavevector in a.u.,A,eV,Ry     =   1.229438  2.323301 20.565440  1.511517
  Thomas-Fermi vector in A             =   2.364325
 
 Write flags
   LWAVE        =      T    write WAVECAR
   LDOWNSAMPLE  =      F    k-point downsampling of WAVECAR
   LCHARG       =      T    write CHGCAR
   LVTOT        =      T    write LOCPOT, total local potential
   LVHAR        =      F    write LOCPOT, Hartree potential only
   LELF         =      F    write electronic localiz. function (ELF)
   LORBIT       =     11    0 simple, 1 ext, 2 COOP (PROOUT), +10 PAW based schemes


 Dipole corrections
   LMONO  =      F    monopole corrections only (constant potential shift)
   LDIPOL =      F    correct potential (dipole corrections)
   IDIPOL =      0    1-x, 2-y, 3-z, 4-all directions 
   EPSILON=  1.0000000 bulk dielectric constant

 Exchange correlation treatment:
   GGA     =    --    GGA type
   LEXCH   =     8    internal setting for exchange type
   LIBXC   =     F    Libxc                    
   VOSKOWN =     0    Vosko Wilk Nusair interpolation
   LHFCALC =     F    Hartree Fock is set to
   LHFONE  =     F    Hartree Fock one center treatment
   AEXX    =    0.0000 exact exchange contribution

 Linear response parameters
   LEPSILON=     F    determine dielectric tensor
   LRPA    =     F    only Hartree local field effects (RPA)
   LNABLA  =     F    use nabla operator in PAW spheres
   LVEL    =     F    velocity operator in full k-point grid
   CSHIFT  =0.1000    complex shift for real part using Kramers Kronig
   OMEGAMAX=  -1.0    maximum frequency
   DEG_THRESHOLD= 0.2000000E-02 threshold for treating states as degnerate
   RTIME   =   -0.100 relaxation time in fs
  (WPLASMAI=    0.000 imaginary part of plasma frequency in eV, 0.658/RTIME)
   DFIELD  = 0.0000000 0.0000000 0.0000000 field for delta impulse in time
 
  Optional k-point grid parameters
   LKPOINTS_OPT  =     F    use optional k-point grid
   KPOINTS_OPT_MODE=     1    mode for optional k-point grid
 
 Orbital magnetization related:
   ORBITALMAG=     F  switch on orbital magnetization
   LCHIMAG   =     F  perturbation theory with respect to B field
   DQ        =  0.001000  dq finite difference perturbation B field
   LLRAUG    =     F  two centre corrections for induced B field



--------------------------------------------------------------------------------------------------------


 Static calculation
 charge density and potential will be updated during run
 non-spin polarized calculation
 Variant of blocked Davidson
 Davidson routine will perform the subspace rotation
 perform sub-space diagonalisation
    after iterative eigenvector-optimisation
 modified Broyden-mixing scheme, WC =      100.0
 initial mixing is a Kerker type mixing with AMIX =  0.2000 and BMIX =      1.0000
 Hartree-type preconditioning will be used
 using additional bands           95
 reciprocal scheme for non local part
 use partial core corrections
 calculate Harris-corrections to forces 
   (improved forces if not selfconsistent)
 use gradient corrections 
 use of overlap-Matrix (Vanderbilt PP)
 Gauss-broadening in eV      SIGMA  =   0.05


--------------------------------------------------------------------------------------------------------


  energy-cutoff  :      550.00
  volume of cell :      909.00
      direct lattice vectors                 reciprocal lattice vectors
     4.914966177 -8.512971136  0.000000000     0.101730100 -0.058733901  0.000000000
     4.914966177  8.512971136  0.000000000     0.101730100  0.058733901  0.000000000
     0.000000000  0.000000000 10.862602280     0.000000000  0.000000000  0.092058972

  length of vectors
     9.829932353  9.829932353 10.862602280     0.117467801  0.117467801  0.092058972


 
 k-points in units of 2pi/SCALE and weight: pymatgen with grid density = 1000 / numb
   0.00000000  0.00000000  0.00000000       0.125
   0.05086505 -0.02936695  0.00000000       0.250
   0.10173010  0.00000000  0.00000000       0.125
   0.00000000  0.00000000  0.04602949       0.125
   0.05086505 -0.02936695  0.04602949       0.250
   0.10173010  0.00000000  0.04602949       0.125
 
 k-points in reciprocal lattice and weights: pymatgen with grid density = 1000 / numb
   0.00000000  0.00000000  0.00000000       0.125
   0.50000000  0.00000000  0.00000000       0.250
   0.50000000  0.50000000  0.00000000       0.125
   0.00000000  0.00000000  0.50000000       0.125
   0.50000000  0.00000000  0.50000000       0.250
   0.50000000  0.50000000  0.50000000       0.125
 
 position of ions in fractional coordinates (direct lattice) 
   0.26554429  0.26554429  0.50000000
   0.26554429  0.76554429  0.00000000
   0.26554429  0.76554429  0.50000000
   0.76554429  0.26554429  0.00000000
   0.76554429  0.26554429  0.50000000
   0.76554429  0.76554429  0.00000000
   0.76554429  0.76554429  0.50000000
   0.00000000  0.23445571  0.33333333
   0.00000000  0.23445571  0.83333333
   0.00000000  0.73445571  0.33333333
   0.00000000  0.73445571  0.83333333
   0.50000000  0.23445571  0.33333333
   0.50000000  0.23445571  0.83333333
   0.50000000  0.73445571  0.33333333
   0.50000000  0.73445571  0.83333333
   0.23445571  0.00000000  0.16666667
   0.23445571  0.00000000  0.66666667
   0.23445571  0.50000000  0.16666667
   0.23445571  0.50000000  0.66666667
   0.73445571  0.00000000  0.16666667
   0.73445571  0.00000000  0.66666667
   0.73445571  0.50000000  0.16666667
   0.73445571  0.50000000  0.66666667
   0.13461155  0.20669714  0.39244549
   0.13461155  0.20669714  0.89244549
   0.13461155  0.70669714  0.39244549
   0.13461155  0.70669714  0.89244549
   0.63461155  0.20669714  0.39244549
   0.63461155  0.20669714  0.89244549
   0.63461155  0.70669714  0.39244549
   0.63461155  0.70669714  0.89244549
   0.29330286  0.42791441  0.05911216
   0.29330286  0.42791441  0.55911216
   0.29330286  0.92791441  0.05911216
   0.29330286  0.92791441  0.55911216
   0.79330286  0.42791441  0.05911216
   0.79330286  0.42791441  0.55911216
   0.79330286  0.92791441  0.05911216
   0.79330286  0.92791441  0.55911216
   0.07208559  0.36538845  0.22577882
   0.07208559  0.36538845  0.72577882
   0.07208559  0.86538845  0.22577882
   0.07208559  0.86538845  0.72577882
   0.57208559  0.36538845  0.22577882
   0.57208559  0.36538845  0.72577882
   0.57208559  0.86538845  0.22577882
   0.57208559  0.86538845  0.72577882
   0.20669714  0.13461155  0.10755451
   0.20669714  0.13461155  0.60755451
   0.20669714  0.63461155  0.10755451
   0.20669714  0.63461155  0.60755451
   0.70669714  0.13461155  0.10755451
   0.70669714  0.13461155  0.60755451
   0.70669714  0.63461155  0.10755451
   0.70669714  0.63461155  0.60755451
   0.36538845  0.07208559  0.27422118
   0.36538845  0.07208559  0.77422118
   0.36538845  0.57208559  0.27422118
   0.36538845  0.57208559  0.77422118
   0.86538845  0.07208559  0.27422118
   0.86538845  0.07208559  0.77422118
   0.86538845  0.57208559  0.27422118
   0.86538845  0.57208559  0.77422118
   0.42791441  0.29330286  0.44088784
   0.42791441  0.29330286  0.94088784
   0.42791441  0.79330286  0.44088784
   0.42791441  0.79330286  0.94088784
   0.92791441  0.29330286  0.44088784
   0.92791441  0.29330286  0.94088784
   0.92791441  0.79330286  0.44088784
   0.92791441  0.79330286  0.94088784
 
 position of ions in cartesian coordinates  (Angst):
   2.61028246 -0.00000000  5.43130114
   5.06776555  4.25648557  0.00000000
   5.06776555  4.25648557  5.43130114
   5.06776555 -4.25648557  0.00000000
   5.06776555 -4.25648557  5.43130114
   7.52524863  0.00000000  0.00000000
   7.52524863  0.00000000  5.43130114
   1.15234186  1.99591465  3.62086743
   1.15234186  1.99591465  9.05216857
   3.60982495  6.25240022  3.62086743
   3.60982495  6.25240022  9.05216857
   3.60982495 -2.26057092  3.62086743
   3.60982495 -2.26057092  9.05216857
   6.06730804  1.99591465  3.62086743
   6.06730804  1.99591465  9.05216857
   1.15234186 -1.99591465  1.81043371
   1.15234186 -1.99591465  7.24173485
   3.60982495  2.26057092  1.81043371
   3.60982495  2.26057092  7.24173485
   3.60982495 -6.25240022  1.81043371
   3.60982495 -6.25240022  7.24173485
   6.06730804 -1.99591465  1.81043371
   6.06730804 -1.99591465  7.24173485
   1.67752072  0.61366255  4.26297927
   1.67752072  0.61366255  9.69428041
   4.13500380  4.87014811  4.26297927
   4.13500380  4.87014811  9.69428041
   4.13500380 -3.64282302  4.26297927
   4.13500380 -3.64282302  9.69428041
   6.59248689  0.61366255  4.26297927
   6.59248689  0.61366255  9.69428041
   3.54475846  1.14594428  0.64211185
   3.54475846  1.14594428  6.07341299
   6.00224155  5.40242985  0.64211185
   6.00224155  5.40242985  6.07341299
   6.00224155 -3.11054129  0.64211185
   6.00224155 -3.11054129  6.07341299
   8.45972464  1.14594428  0.64211185
   8.45972464  1.14594428  6.07341299
   2.15017009  2.49687874  2.45254556
   2.15017009  2.49687874  7.88384670
   4.60765317  6.75336431  2.45254556
   4.60765317  6.75336431  7.88384670
   4.60765317 -1.75960683  2.45254556
   4.60765317 -1.75960683  7.88384670
   7.06513626  2.49687874  2.45254556
   7.06513626  2.49687874  7.88384670
   1.67752072 -0.61366255  1.16832187
   1.67752072 -0.61366255  6.59962301
   4.13500380  3.64282302  1.16832187
   4.13500380  3.64282302  6.59962301
   4.13500380 -4.87014811  1.16832187
   4.13500380 -4.87014811  6.59962301
   6.59248689 -0.61366255  1.16832187
   6.59248689 -0.61366255  6.59962301
   2.15017009 -2.49687874  2.97875558
   2.15017009 -2.49687874  8.41005672
   4.60765317  1.75960683  2.97875558
   4.60765317  1.75960683  8.41005672
   4.60765317 -6.75336431  2.97875558
   4.60765317 -6.75336431  8.41005672
   7.06513626 -2.49687874  2.97875558
   7.06513626 -2.49687874  8.41005672
   3.54475846 -1.14594428  4.78918929
   3.54475846 -1.14594428 10.22049043
   6.00224155  3.11054129  4.78918929
   6.00224155  3.11054129 10.22049043
   6.00224155 -5.40242985  4.78918929
   6.00224155 -5.40242985 10.22049043
   8.45972464 -1.14594428  4.78918929
   8.45972464 -1.14594428 10.22049043
 


--------------------------------------------------------------------------------------------------------


 k-point   1 :   0.0000 0.0000 0.0000  plane waves:   26579
 k-point   2 :   0.5000 0.0000 0.0000  plane waves:   26614
 k-point   3 :   0.5000 0.5000 0.0000  plane waves:   26614
 k-point   4 :   0.0000 0.0000 0.5000  plane waves:   26718
 k-point   5 :   0.5000 0.0000 0.5000  plane waves:   26636
 k-point   6 :   0.5000 0.5000 0.5000  plane waves:   26636

 maximum and minimum number of plane-waves per node :     26718    26579

 maximum number of plane-waves:     26718
 maximum index in each direction: 
   IXMAX=   18   IYMAX=   18   IZMAX=   20
   IXMIN=  -19   IYMIN=  -19   IZMIN=  -21


 serial   3D FFT for wavefunctions
 parallel 3D FFT for charge:
    minimum data exchange during FFTs selected (reduces bandwidth)


 total amount of memory used by VASP MPI-rank0   100515. kBytes
=======================================================================

   base      :      30000. kBytes
   nonl-proj :      50996. kBytes
   fftplans  :       1721. kBytes
   grid      :       9701. kBytes
   one-center:        218. kBytes
   wavefun   :       7879. kBytes
 
     INWAV:  cpu time      0.0000: real time      0.0003
 Broyden mixing: mesh for mixing (old mesh)
   NGX = 37   NGY = 37   NGZ = 41
  (NGX  =112   NGY  =112   NGZ  =128)
  gives a total of  56129 points

 initial charge density was supplied:
 charge density of overlapping atoms calculated
 number of electron     380.0000000 magnetization 
 keeping initial charge density in first step


--------------------------------------------------------------------------------------------------------


 Maximum index for augmentation-charges          412 (set IRDMAX)


--------------------------------------------------------------------------------------------------------


 First call to EWALD:  gamma=   0.183
 Maximum number of real-space cells 3x 3x 3
 Maximum number of reciprocal cells 3x 3x 3

    FEWALD:  cpu time      0.0027: real time      0.0027


--------------------------------------- Iteration      1(   1)  ---------------------------------------


    POTLOK:  cpu time      0.0175: real time      0.0183
    SETDIJ:  cpu time      0.0026: real time      0.0029
     EDDAV:  cpu time      3.3901: real time      3.4205
       DOS:  cpu time      0.0019: real time      0.0020
    --------------------------------------------
      LOOP:  cpu time      3.4121: real time      3.4437

 eigenvalue-minimisations  :  3456
 total energy-change (2. order) : 0.2031593E+04  (-0.2085098E+05)
 number of electron     380.0000000 magnetization 
 augmentation part      380.0000000 magnetization 

 Free energy of the ion-electron system (eV)
  ---------------------------------------------------
  alpha Z        PSCENC =       545.62548092
  Ewald energy   TEWEN  =    -14981.32895706
  -Hartree energ DENC   =     -7465.62279534
  -exchange      EXHF   =         0.00000000
  -V(xc)+E(xc)   XCENC  =      1137.16167966
  PAW double counting   =     18661.22228188   -18342.91299187
  entropy T*S    EENTRO =        -0.00899754
  eigenvalues    EBANDS =      -646.32395449
  atomic energy  EATOM  =     23123.78097148
  Solvation  Ediel_sol  =         0.00000000
  ---------------------------------------------------
  free energy    TOTEN  =      2031.59271763 eV

  energy without entropy =     2031.60171517  energy(sigma->0) =     2031.59721640


--------------------------------------------------------------------------------------------------------




--------------------------------------- Iteration      1(   2)  ---------------------------------------


     EDDAV:  cpu time      4.7022: real time      4.7344
       DOS:  cpu time      0.0013: real time      0.0013
    --------------------------------------------
      LOOP:  cpu time      4.7034: real time      4.7356

 eigenvalue-minimisations  :  4704
 total energy-change (2. order) :-0.2528021E+04  (-0.2439849E+04)
 number of electron     380.0000000 magnetization 
 augmentation part      380.0000000 magnetization 

 Free energy of the ion-electron system (eV)
  ---------------------------------------------------
  alpha Z        PSCENC =       545.62548092
  Ewald energy   TEWEN  =    -14981.32895706
  -Hartree energ DENC   =     -7465.62279534
  -exchange      EXHF   =         0.00000000
  -V(xc)+E(xc)   XCENC  =      1137.16167966
  PAW double counting   =     18661.22228188   -18342.91299187
  entropy T*S    EENTRO =        -0.00459774
  eigenvalues    EBANDS =     -3174.34942724
  atomic energy  EATOM  =     23123.78097148
  Solvation  Ediel_sol  =         0.00000000
  ---------------------------------------------------
  free energy    TOTEN  =      -496.42835531 eV

  energy without entropy =     -496.42375758  energy(sigma->0) =     -496.42605644


--------------------------------------------------------------------------------------------------------




--------------------------------------- Iteration      1(   3)  ---------------------------------------


     EDDAV:  cpu time      4.7794: real time      4.8125
       DOS:  cpu time      0.0014: real time      0.0015
    --------------------------------------------
      LOOP:  cpu time      4.7809: real time      4.8139

 eigenvalue-minimisations  :  4608
 total energy-change (2. order) :-0.1163608E+03  (-0.1159235E+03)
 number of electron     380.0000000 magnetization 
 augmentation part      380.0000000 magnetization 

 Free energy of the ion-electron system (eV)
  ---------------------------------------------------
  alpha Z        PSCENC =       545.62548092
  Ewald energy   TEWEN  =    -14981.32895706
  -Hartree energ DENC   =     -7465.62279534
  -exchange      EXHF   =         0.00000000
  -V(xc)+E(xc)   XCENC  =      1137.16167966
  PAW double counting   =     18661.22228188   -18342.91299187
  entropy T*S    EENTRO =        -0.00988659
  eigenvalues    EBANDS =     -3290.70495426
  atomic energy  EATOM  =     23123.78097148
  Solvation  Ediel_sol  =         0.00000000
  ---------------------------------------------------
  free energy    TOTEN  =      -612.78917119 eV

  energy without entropy =     -612.77928459  energy(sigma->0) =     -612.78422789


--------------------------------------------------------------------------------------------------------




--------------------------------------- Iteration      1(   4)  ---------------------------------------


     EDDAV:  cpu time      3.8311: real time      3.8620
       DOS:  cpu time      0.0012: real time      0.0012
    --------------------------------------------
      LOOP:  cpu time      3.8323: real time      3.8632

 eigenvalue-minimisations  :  3936
 total energy-change (2. order) :-0.1008460E+01  (-0.1008312E+01)
 number of electron     380.0000000 magnetization 
 augmentation part      380.0000000 magnetization 

 Free energy of the ion-electron system (eV)
  ---------------------------------------------------
  alpha Z        PSCENC =       545.62548092
  Ewald energy   TEWEN  =    -14981.32895706
  -Hartree energ DENC   =     -7465.62279534
  -exchange      EXHF   =         0.00000000
  -V(xc)+E(xc)   XCENC  =      1137.16167966
  PAW double counting   =     18661.22228188   -18342.91299187
  entropy T*S    EENTRO =        -0.00985902
  eigenvalues    EBANDS =     -3291.71344228
  atomic energy  EATOM  =     23123.78097148
  Solvation  Ediel_sol  =         0.00000000
  ---------------------------------------------------
  free energy    TOTEN  =      -613.79763164 eV

  energy without entropy =     -613.78777262  energy(sigma->0) =     -613.79270213


--------------------------------------------------------------------------------------------------------




--------------------------------------- Iteration      1(   5)  ---------------------------------------


     EDDAV:  cpu time      4.8810: real time      4.9374
       DOS:  cpu time      0.0014: real time      0.0014
    CHARGE:  cpu time      0.0444: real time      0.0448
    MIXING:  cpu time      0.0060: real time      0.0097
    --------------------------------------------
      LOOP:  cpu time      4.9328: real time      4.9933

 eigenvalue-minimisations  :  4608
 total energy-change (2. order) :-0.1132891E-01  (-0.1132773E-01)
 number of electron     385.0000060 magnetization 
 augmentation part       35.8451815 magnetization 

 Broyden mixing:
  rms(total) = 0.72380E+01    rms(broyden)= 0.72353E+01
  rms(prec ) = 0.84777E+01
  weight for this iteration     100.00

 Free energy of the ion-electron system (eV)
  ---------------------------------------------------
  alpha Z        PSCENC =       545.62548092
  Ewald energy   TEWEN  =    -14981.32895706
  -Hartree energ DENC   =     -7465.62279534
  -exchange      EXHF   =         0.00000000
  -V(xc)+E(xc)   XCENC  =      1137.16167966
  PAW double counting   =     18661.22228188   -18342.91299187
  entropy T*S    EENTRO =        -0.00985687
  eigenvalues    EBANDS =     -3291.72477334
  atomic energy  EATOM  =     23123.78097148
  Solvation  Ediel_sol  =         0.00000000
  ---------------------------------------------------
  free energy    TOTEN  =      -613.80896055 eV

  energy without entropy =     -613.79910368  energy(sigma->0) =     -613.80403212


--------------------------------------------------------------------------------------------------------




--------------------------------------- Iteration      1(   6)  ---------------------------------------


    POTLOK:  cpu time      0.0126: real time      0.0128
    SETDIJ:  cpu time      0.0015: real time      0.0016
     EDDAV:  cpu time      4.7261: real time      4.7579
       DOS:  cpu time      0.0008: real time      0.0008
    CHARGE:  cpu time      0.0438: real time      0.0441
    MIXING:  cpu time      0.0009: real time      0.0010
    --------------------------------------------
      LOOP:  cpu time      4.7858: real time      4.8181

 eigenvalue-minimisations  :  4512
 total energy-change (2. order) : 0.6498839E+02  (-0.6883726E+01)
 number of electron     385.0000054 magnetization 
 augmentation part       32.1678743 magnetization 

 Broyden mixing:
  rms(total) = 0.49229E+01    rms(broyden)= 0.49228E+01
  rms(prec ) = 0.55170E+01
  weight for this iteration     100.00

 eigenvalues of (default mixing * dielectric matrix)
  average eigenvalue GAMMA=   2.2181
  2.2181

 Free energy of the ion-electron system (eV)
  ---------------------------------------------------
  alpha Z        PSCENC =       545.62548092
  Ewald energy   TEWEN  =    -14981.32895706
  -Hartree energ DENC   =     -7898.61422079
  -exchange      EXHF   =         0.00000000
  -V(xc)+E(xc)   XCENC  =      1181.86532189
  PAW double counting   =     24560.47766607   -24250.76709544
  entropy T*S    EENTRO =        -0.01185074
  eigenvalues    EBANDS =     -2829.84788901
  atomic energy  EATOM  =     23123.78097148
  Solvation  Ediel_sol  =         0.00000000
  ---------------------------------------------------
  free energy    TOTEN  =      -548.82057269 eV

  energy without entropy =     -548.80872195  energy(sigma->0) =     -548.81464732


--------------------------------------------------------------------------------------------------------




--------------------------------------- Iteration      1(   7)  ---------------------------------------


    POTLOK:  cpu time      0.0120: real time      0.0124
    SETDIJ:  cpu time      0.0016: real time      0.0016
     EDDAV:  cpu time      4.7786: real time      4.8105
       DOS:  cpu time      0.0010: real time      0.0010
    CHARGE:  cpu time      0.0442: real time      0.0445
    MIXING:  cpu time      0.0005: real time      0.0005
    --------------------------------------------
      LOOP:  cpu time      4.8378: real time      4.8704

 eigenvalue-minimisations  :  4608
 total energy-change (2. order) : 0.2331012E+02  (-0.9748019E+01)
 number of electron     385.0000046 magnetization 
 augmentation part       27.8629763 magnetization 

 Broyden mixing:
  rms(total) = 0.21919E+01    rms(broyden)= 0.21913E+01
  rms(prec ) = 0.23142E+01
  weight for this iteration     100.00

 eigenvalues of (default mixing * dielectric matrix)
  average eigenvalue GAMMA=   2.2544
  2.2544  2.2544

 Free energy of the ion-electron system (eV)
  ---------------------------------------------------
  alpha Z        PSCENC =       545.62548092
  Ewald energy   TEWEN  =    -14981.32895706
  -Hartree energ DENC   =     -8432.79849095
  -exchange      EXHF   =         0.00000000
  -V(xc)+E(xc)   XCENC  =      1217.97734668
  PAW double counting   =     41505.77252599   -41205.66343802
  entropy T*S    EENTRO =        -0.00666407
  eigenvalues    EBANDS =     -2298.86923212
  atomic energy  EATOM  =     23123.78097148
  Solvation  Ediel_sol  =         0.00000000
  ---------------------------------------------------
  free energy    TOTEN  =      -525.51045716 eV

  energy without entropy =     -525.50379309  energy(sigma->0) =     -525.50712512


--------------------------------------------------------------------------------------------------------




--------------------------------------- Iteration      1(   8)  ---------------------------------------


    POTLOK:  cpu time      0.0131: real time      0.0136
    SETDIJ:  cpu time      0.0019: real time      0.0019
     EDDAV:  cpu time      4.5068: real time      4.5370
       DOS:  cpu time      0.0010: real time      0.0010
    CHARGE:  cpu time      0.0444: real time      0.0446
    MIXING:  cpu time      0.0005: real time      0.0008
    --------------------------------------------
      LOOP:  cpu time      4.5677: real time      4.5989

 eigenvalue-minimisations  :  4416
 total energy-change (2. order) : 0.7224286E+00  (-0.5671552E+00)
 number of electron     385.0000048 magnetization 
 augmentation part       28.4056072 magnetization 

 Broyden mixing:
  rms(total) = 0.91075E+00    rms(broyden)= 0.91073E+00
  rms(prec ) = 0.10273E+01
  weight for this iteration     100.00

 eigenvalues of (default mixing * dielectric matrix)
  average eigenvalue GAMMA=   2.3127
  1.1068  3.7473  2.0840

 Free energy of the ion-electron system (eV)
  ---------------------------------------------------
  alpha Z        PSCENC =       545.62548092
  Ewald energy   TEWEN  =    -14981.32895706
  -Hartree energ DENC   =     -8409.37266711
  -exchange      EXHF   =         0.00000000
  -V(xc)+E(xc)   XCENC  =      1216.59067890
  PAW double counting   =     51715.91437136   -51414.13061284
  entropy T*S    EENTRO =        -0.00501178
  eigenvalues    EBANDS =     -2321.86228239
  atomic energy  EATOM  =     23123.78097148
  Solvation  Ediel_sol  =         0.00000000
  ---------------------------------------------------
  free energy    TOTEN  =      -524.78802852 eV

  energy without entropy =     -524.78301674  energy(sigma->0) =     -524.78552263


--------------------------------------------------------------------------------------------------------




--------------------------------------- Iteration      1(   9)  ---------------------------------------


    POTLOK:  cpu time      0.0119: real time      0.0123
    SETDIJ:  cpu time      0.0014: real time      0.0014
     EDDAV:  cpu time      4.7825: real time      4.8141
       DOS:  cpu time      0.0007: real time      0.0007
    CHARGE:  cpu time      0.0444: real time      0.0447
    MIXING:  cpu time      0.0005: real time      0.0005
    --------------------------------------------
      LOOP:  cpu time      4.8414: real time      4.8738

 eigenvalue-minimisations  :  4608
 total energy-change (2. order) : 0.3951913E+00  (-0.6858270E-01)
 number of electron     385.0000048 magnetization 
 augmentation part       28.2210087 magnetization 

 Broyden mixing:
  rms(total) = 0.33235E+00    rms(broyden)= 0.33234E+00
  rms(prec ) = 0.39436E+00
  weight for this iteration     100.00

 eigenvalues of (default mixing * dielectric matrix)
  average eigenvalue GAMMA=   2.4056
  4.9927  0.9587  1.8356  1.8356

 Free energy of the ion-electron system (eV)
  ---------------------------------------------------
  alpha Z        PSCENC =       545.62548092
  Ewald energy   TEWEN  =    -14981.32895706
  -Hartree energ DENC   =     -8470.99016410
  -exchange      EXHF   =         0.00000000
  -V(xc)+E(xc)   XCENC  =      1221.02463591
  PAW double counting   =     60308.44817444   -60007.26632647
  entropy T*S    EENTRO =        -0.00461905
  eigenvalues    EBANDS =     -2263.68203330
  atomic energy  EATOM  =     23123.78097148
  Solvation  Ediel_sol  =         0.00000000
  ---------------------------------------------------
  free energy    TOTEN  =      -524.39283721 eV

  energy without entropy =     -524.38821817  energy(sigma->0) =     -524.39052769


--------------------------------------------------------------------------------------------------------




--------------------------------------- Iteration      1(  10)  ---------------------------------------


    POTLOK:  cpu time      0.0124: real time      0.0128
    SETDIJ:  cpu time      0.0016: real time      0.0017
     EDDAV:  cpu time      5.3801: real time      5.4165
       DOS:  cpu time      0.0009: real time      0.0009
    CHARGE:  cpu time      0.0443: real time      0.0446
    MIXING:  cpu time      0.0005: real time      0.0005
    --------------------------------------------
      LOOP:  cpu time      5.4397: real time      5.4768

 eigenvalue-minimisations  :  5184
 total energy-change (2. order) : 0.8799394E-03  (-0.4514555E-01)
 number of electron     385.0000047 magnetization 
 augmentation part       28.0488366 magnetization 

 Broyden mixing:
  rms(total) = 0.23189E+00    rms(broyden)= 0.23187E+00
  rms(prec ) = 0.24513E+00
  weight for this iteration     100.00

 eigenvalues of (default mixing * dielectric matrix)
  average eigenvalue GAMMA=   2.2238
  4.9456  2.1725  2.0405  0.9803  0.9803

 Free energy of the ion-electron system (eV)
  ---------------------------------------------------
  alpha Z        PSCENC =       545.62548092
  Ewald energy   TEWEN  =    -14981.32895706
  -Hartree energ DENC   =     -8511.30349191
  -exchange      EXHF   =         0.00000000
  -V(xc)+E(xc)   XCENC  =      1224.00705345
  PAW double counting   =     65171.27485172   -64870.50756526
  entropy T*S    EENTRO =        -0.00517086
  eigenvalues    EBANDS =     -2225.93512976
  atomic energy  EATOM  =     23123.78097148
  Solvation  Ediel_sol  =         0.00000000
  ---------------------------------------------------
  free energy    TOTEN  =      -524.39195728 eV

  energy without entropy =     -524.38678642  energy(sigma->0) =     -524.38937185


--------------------------------------------------------------------------------------------------------




--------------------------------------- Iteration      1(  11)  ---------------------------------------


    POTLOK:  cpu time      0.0119: real time      0.0123
    SETDIJ:  cpu time      0.0014: real time      0.0014
     EDDAV:  cpu time      4.0678: real time      4.0958
       DOS:  cpu time      0.0006: real time      0.0006
    CHARGE:  cpu time      0.0446: real time      0.0449
    MIXING:  cpu time      0.0005: real time      0.0005
    --------------------------------------------
      LOOP:  cpu time      4.1268: real time      4.1556

 eigenvalue-minimisations  :  4128
 total energy-change (2. order) :-0.2726540E-02  (-0.4389880E-02)
 number of electron     385.0000047 magnetization 
 augmentation part       28.1063097 magnetization 

 Broyden mixing:
  rms(total) = 0.15202E+00    rms(broyden)= 0.15202E+00
  rms(prec ) = 0.15941E+00
  weight for this iteration     100.00

 eigenvalues of (default mixing * dielectric matrix)
  average eigenvalue GAMMA=   2.5491
  5.3004  4.5896  2.0092  0.9797  1.2080  1.2080

 Free energy of the ion-electron system (eV)
  ---------------------------------------------------
  alpha Z        PSCENC =       545.62548092
  Ewald energy   TEWEN  =    -14981.32895706
  -Hartree energ DENC   =     -8505.95799566
  -exchange      EXHF   =         0.00000000
  -V(xc)+E(xc)   XCENC  =      1223.62528619
  PAW double counting   =     64242.76331006   -63941.89582108
  entropy T*S    EENTRO =        -0.00496222
  eigenvalues    EBANDS =     -2231.00199644
  atomic energy  EATOM  =     23123.78097148
  Solvation  Ediel_sol  =         0.00000000
  ---------------------------------------------------
  free energy    TOTEN  =      -524.39468382 eV

  energy without entropy =     -524.38972159  energy(sigma->0) =     -524.39220270


--------------------------------------------------------------------------------------------------------




--------------------------------------- Iteration      1(  12)  ---------------------------------------


    POTLOK:  cpu time      0.0127: real time      0.0131
    SETDIJ:  cpu time      0.0015: real time      0.0015
     EDDAV:  cpu time      4.8022: real time      4.8353
       DOS:  cpu time      0.0006: real time      0.0006
    CHARGE:  cpu time      0.0444: real time      0.0447
    MIXING:  cpu time      0.0005: real time      0.0005
    --------------------------------------------
      LOOP:  cpu time      4.8619: real time      4.8957

 eigenvalue-minimisations  :  4608
 total energy-change (2. order) :-0.1025044E-01  (-0.2688108E-02)
 number of electron     385.0000047 magnetization 
 augmentation part       28.1299389 magnetization 

 Broyden mixing:
  rms(total) = 0.20300E-01    rms(broyden)= 0.20288E-01
  rms(prec ) = 0.23783E-01
  weight for this iteration     100.00

 eigenvalues of (default mixing * dielectric matrix)
  average eigenvalue GAMMA=   2.3614
  5.2838  4.6834  2.0192  1.4704  0.9552  1.0590  1.0590

 Free energy of the ion-electron system (eV)
  ---------------------------------------------------
  alpha Z        PSCENC =       545.62548092
  Ewald energy   TEWEN  =    -14981.32895706
  -Hartree energ DENC   =     -8507.59687403
  -exchange      EXHF   =         0.00000000
  -V(xc)+E(xc)   XCENC  =      1223.69385608
  PAW double counting   =     62633.76785283   -62332.94495948
  entropy T*S    EENTRO =        -0.00466243
  eigenvalues    EBANDS =     -2229.39764257
  atomic energy  EATOM  =     23123.78097148
  Solvation  Ediel_sol  =         0.00000000
  ---------------------------------------------------
  free energy    TOTEN  =      -524.40493426 eV

  energy without entropy =     -524.40027183  energy(sigma->0) =     -524.40260304


--------------------------------------------------------------------------------------------------------




--------------------------------------- Iteration      1(  13)  ---------------------------------------


    POTLOK:  cpu time      0.0119: real time      0.0123
    SETDIJ:  cpu time      0.0014: real time      0.0014
     EDDAV:  cpu time      4.1802: real time      4.2086
       DOS:  cpu time      0.0007: real time      0.0007
    CHARGE:  cpu time      0.0445: real time      0.0448
    MIXING:  cpu time      0.0005: real time      0.0005
    --------------------------------------------
      LOOP:  cpu time      4.2391: real time      4.2683

 eigenvalue-minimisations  :  4224
 total energy-change (2. order) :-0.7292205E-03  (-0.3321816E-03)
 number of electron     385.0000047 magnetization 
 augmentation part       28.1272147 magnetization 

 Broyden mixing:
  rms(total) = 0.21751E-01    rms(broyden)= 0.21750E-01
  rms(prec ) = 0.23935E-01
  weight for this iteration     100.00

 eigenvalues of (default mixing * dielectric matrix)
  average eigenvalue GAMMA=   2.2000
  5.1167  4.8094  1.9306  1.7123  1.1367  1.1367  0.9874  0.7697

 Free energy of the ion-electron system (eV)
  ---------------------------------------------------
  alpha Z        PSCENC =       545.62548092
  Ewald energy   TEWEN  =    -14981.32895706
  -Hartree energ DENC   =     -8507.80926121
  -exchange      EXHF   =         0.00000000
  -V(xc)+E(xc)   XCENC  =      1223.69943144
  PAW double counting   =     62508.50624487   -62207.67960784
  entropy T*S    EENTRO =        -0.00462255
  eigenvalues    EBANDS =     -2229.19534353
  atomic energy  EATOM  =     23123.78097148
  Solvation  Ediel_sol  =         0.00000000
  ---------------------------------------------------
  free energy    TOTEN  =      -524.40566348 eV

  energy without entropy =     -524.40104093  energy(sigma->0) =     -524.40335221


--------------------------------------------------------------------------------------------------------




--------------------------------------- Iteration      1(  14)  ---------------------------------------


    POTLOK:  cpu time      0.0120: real time      0.0125
    SETDIJ:  cpu time      0.0014: real time      0.0014
     EDDAV:  cpu time      4.7776: real time      4.8096
       DOS:  cpu time      0.0005: real time      0.0006
    CHARGE:  cpu time      0.0449: real time      0.0452
    MIXING:  cpu time      0.0007: real time      0.0007
    --------------------------------------------
      LOOP:  cpu time      4.8372: real time      4.8700

 eigenvalue-minimisations  :  4608
 total energy-change (2. order) :-0.2007481E-03  (-0.3312580E-04)
 number of electron     385.0000047 magnetization 
 augmentation part       28.1302091 magnetization 

 Broyden mixing:
  rms(total) = 0.16673E-01    rms(broyden)= 0.16673E-01
  rms(prec ) = 0.18566E-01
  weight for this iteration     100.00

 eigenvalues of (default mixing * dielectric matrix)
  average eigenvalue GAMMA=   2.2927
  5.3511  4.8598  2.4734  2.2198  1.3954  1.3954  1.0080  0.9656  0.9656

 Free energy of the ion-electron system (eV)
  ---------------------------------------------------
  alpha Z        PSCENC =       545.62548092
  Ewald energy   TEWEN  =    -14981.32895706
  -Hartree energ DENC   =     -8507.43815124
  -exchange      EXHF   =         0.00000000
  -V(xc)+E(xc)   XCENC  =      1223.67448601
  PAW double counting   =     62547.78480056   -62246.93538113
  entropy T*S    EENTRO =        -0.00461633
  eigenvalues    EBANDS =     -2229.56449744
  atomic energy  EATOM  =     23123.78097148
  Solvation  Ediel_sol  =         0.00000000
  ---------------------------------------------------
  free energy    TOTEN  =      -524.40586423 eV

  energy without entropy =     -524.40124789  energy(sigma->0) =     -524.40355606


--------------------------------------------------------------------------------------------------------




--------------------------------------- Iteration      1(  15)  ---------------------------------------


    POTLOK:  cpu time      0.0117: real time      0.0122
    SETDIJ:  cpu time      0.0013: real time      0.0013
     EDDAV:  cpu time      4.7819: real time      4.8137
       DOS:  cpu time      0.0007: real time      0.0007
    CHARGE:  cpu time      0.0453: real time      0.0456
    MIXING:  cpu time      0.0006: real time      0.0006
    --------------------------------------------
      LOOP:  cpu time      4.8416: real time      4.8742

 eigenvalue-minimisations  :  4608
 total energy-change (2. order) :-0.2859682E-03  (-0.5172538E-04)
 number of electron     385.0000047 magnetization 
 augmentation part       28.1263028 magnetization 

 Broyden mixing:
  rms(total) = 0.81410E-02    rms(broyden)= 0.81405E-02
  rms(prec ) = 0.85973E-02
  weight for this iteration     100.00

 eigenvalues of (default mixing * dielectric matrix)
  average eigenvalue GAMMA=   2.3455
  5.4338  4.9093  3.9674  2.0442  1.4911  1.4911  1.0815  1.0815  0.9775  0.9775

 Free energy of the ion-electron system (eV)
  ---------------------------------------------------
  alpha Z        PSCENC =       545.62548092
  Ewald energy   TEWEN  =    -14981.32895706
  -Hartree energ DENC   =     -8507.92012981
  -exchange      EXHF   =         0.00000000
  -V(xc)+E(xc)   XCENC  =      1223.70795079
  PAW double counting   =     62610.81229018   -62309.94646862
  entropy T*S    EENTRO =        -0.00462793
  eigenvalues    EBANDS =     -2229.13266015
  atomic energy  EATOM  =     23123.78097148
  Solvation  Ediel_sol  =         0.00000000
  ---------------------------------------------------
  free energy    TOTEN  =      -524.40615020 eV

  energy without entropy =     -524.40152227  energy(sigma->0) =     -524.40383623


--------------------------------------------------------------------------------------------------------




--------------------------------------- Iteration      1(  16)  ---------------------------------------


    POTLOK:  cpu time      0.0119: real time      0.0123
    SETDIJ:  cpu time      0.0015: real time      0.0015
     EDDAV:  cpu time      7.5794: real time      7.6308
       DOS:  cpu time      0.0009: real time      0.0009
    CHARGE:  cpu time      0.0448: real time      0.0451
    MIXING:  cpu time      0.0007: real time      0.0007
    --------------------------------------------
      LOOP:  cpu time      7.6392: real time      7.6913

 eigenvalue-minimisations  :  4608
 total energy-change (2. order) :-0.8359193E-04  (-0.1457349E-04)
 number of electron     385.0000047 magnetization 
 augmentation part       28.1246738 magnetization 

 Broyden mixing:
  rms(total) = 0.19613E-02    rms(broyden)= 0.19611E-02
  rms(prec ) = 0.24190E-02
  weight for this iteration     100.00

 eigenvalues of (default mixing * dielectric matrix)
  average eigenvalue GAMMA=   2.3347
  5.8663  4.9874  3.8141  2.2426  2.0205  1.5857  1.1877  1.1877  0.9164  0.9366
  0.9366

 Free energy of the ion-electron system (eV)
  ---------------------------------------------------
  alpha Z        PSCENC =       545.62548092
  Ewald energy   TEWEN  =    -14981.32895706
  -Hartree energ DENC   =     -8508.13280079
  -exchange      EXHF   =         0.00000000
  -V(xc)+E(xc)   XCENC  =      1223.72239831
  PAW double counting   =     62675.45952903   -62374.58445886
  entropy T*S    EENTRO =        -0.00463082
  eigenvalues    EBANDS =     -2228.94376600
  atomic energy  EATOM  =     23123.78097148
  Solvation  Ediel_sol  =         0.00000000
  ---------------------------------------------------
  free energy    TOTEN  =      -524.40623379 eV

  energy without entropy =     -524.40160297  energy(sigma->0) =     -524.40391838


--------------------------------------------------------------------------------------------------------




--------------------------------------- Iteration      1(  17)  ---------------------------------------


    POTLOK:  cpu time      0.0119: real time      0.0123
    SETDIJ:  cpu time      0.0014: real time      0.0014
     EDDAV:  cpu time      4.7554: real time      4.8107
       DOS:  cpu time      0.0005: real time      0.0005
    CHARGE:  cpu time      0.0433: real time      0.0442
    MIXING:  cpu time      0.0007: real time      0.0007
    --------------------------------------------
      LOOP:  cpu time      4.8132: real time      4.8698

 eigenvalue-minimisations  :  4512
 total energy-change (2. order) :-0.1793257E-04  (-0.2242198E-05)
 number of electron     385.0000047 magnetization 
 augmentation part       28.1249546 magnetization 

 Broyden mixing:
  rms(total) = 0.17565E-02    rms(broyden)= 0.17565E-02
  rms(prec ) = 0.20011E-02
  weight for this iteration     100.00

 eigenvalues of (default mixing * dielectric matrix)
  average eigenvalue GAMMA=   2.3028
  5.8952  5.0153  4.0763  2.0782  2.0782  2.0467  1.2587  1.2587  1.0133  1.0133
  0.9500  0.9500

 Free energy of the ion-electron system (eV)
  ---------------------------------------------------
  alpha Z        PSCENC =       545.62548092
  Ewald energy   TEWEN  =    -14981.32895706
  -Hartree energ DENC   =     -8508.14263675
  -exchange      EXHF   =         0.00000000
  -V(xc)+E(xc)   XCENC  =      1223.72218032
  PAW double counting   =     62671.40370853   -62370.52693046
  entropy T*S    EENTRO =        -0.00463115
  eigenvalues    EBANDS =     -2228.93543755
  atomic energy  EATOM  =     23123.78097148
  Solvation  Ediel_sol  =         0.00000000
  ---------------------------------------------------
  free energy    TOTEN  =      -524.40625172 eV

  energy without entropy =     -524.40162057  energy(sigma->0) =     -524.40393615


--------------------------------------------------------------------------------------------------------




--------------------------------------- Iteration      1(  18)  ---------------------------------------


    POTLOK:  cpu time      0.0120: real time      0.0124
    SETDIJ:  cpu time      0.0014: real time      0.0014
     EDDAV:  cpu time      4.8718: real time      4.9042
       DOS:  cpu time      0.0007: real time      0.0007
    CHARGE:  cpu time      0.0442: real time      0.0445
    MIXING:  cpu time      0.0007: real time      0.0007
    --------------------------------------------
      LOOP:  cpu time      4.9308: real time      4.9639

 eigenvalue-minimisations  :  4608
 total energy-change (2. order) :-0.2356675E-05  (-0.1120938E-05)
 number of electron     385.0000047 magnetization 
 augmentation part       28.1243189 magnetization 

 Broyden mixing:
  rms(total) = 0.70644E-03    rms(broyden)= 0.70627E-03
  rms(prec ) = 0.79180E-03
  weight for this iteration     100.00

 eigenvalues of (default mixing * dielectric matrix)
  average eigenvalue GAMMA=   2.2984
  5.8996  5.0047  4.0725  2.6357  2.6357  2.0290  1.3031  1.3031  1.2108  1.0425
  0.9335  0.9335  0.8753

 Free energy of the ion-electron system (eV)
  ---------------------------------------------------
  alpha Z        PSCENC =       545.62548092
  Ewald energy   TEWEN  =    -14981.32895706
  -Hartree energ DENC   =     -8508.19964295
  -exchange      EXHF   =         0.00000000
  -V(xc)+E(xc)   XCENC  =      1223.72608734
  PAW double counting   =     62684.30153217   -62383.42496516
  entropy T*S    EENTRO =        -0.00463600
  eigenvalues    EBANDS =     -2228.88212481
  atomic energy  EATOM  =     23123.78097148
  Solvation  Ediel_sol  =         0.00000000
  ---------------------------------------------------
  free energy    TOTEN  =      -524.40625408 eV

  energy without entropy =     -524.40161808  energy(sigma->0) =     -524.40393608


--------------------------------------------------------------------------------------------------------




--------------------------------------- Iteration      1(  19)  ---------------------------------------


    POTLOK:  cpu time      0.0119: real time      0.0123
    SETDIJ:  cpu time      0.0015: real time      0.0015
     EDDAV:  cpu time      4.3272: real time      4.3566
       DOS:  cpu time      0.0005: real time      0.0005
    CHARGE:  cpu time      0.0445: real time      0.0448
    MIXING:  cpu time      0.0007: real time      0.0007
    --------------------------------------------
      LOOP:  cpu time      4.3863: real time      4.4164

 eigenvalue-minimisations  :  4032
 total energy-change (2. order) :-0.1676726E-05  (-0.1789294E-06)
 number of electron     385.0000047 magnetization 
 augmentation part       28.1242357 magnetization 

 Broyden mixing:
  rms(total) = 0.34180E-03    rms(broyden)= 0.34177E-03
  rms(prec ) = 0.39835E-03
  weight for this iteration     100.00

 eigenvalues of (default mixing * dielectric matrix)
  average eigenvalue GAMMA=   2.3783
  6.3874  5.2251  4.7039  3.7942  2.1956  1.9662  1.5891  1.2834  1.2834  1.0297
  0.9743  0.9743  0.9448  0.9448

 Free energy of the ion-electron system (eV)
  ---------------------------------------------------
  alpha Z        PSCENC =       545.62548092
  Ewald energy   TEWEN  =    -14981.32895706
  -Hartree energ DENC   =     -8508.21589602
  -exchange      EXHF   =         0.00000000
  -V(xc)+E(xc)   XCENC  =      1223.72687930
  PAW double counting   =     62686.14535068   -62385.26974103
  entropy T*S    EENTRO =        -0.00463668
  eigenvalues    EBANDS =     -2228.86570734
  atomic energy  EATOM  =     23123.78097148
  Solvation  Ediel_sol  =         0.00000000
  ---------------------------------------------------
  free energy    TOTEN  =      -524.40625575 eV

  energy without entropy =     -524.40161908  energy(sigma->0) =     -524.40393741


--------------------------------------------------------------------------------------------------------




--------------------------------------- Iteration      1(  20)  ---------------------------------------


    POTLOK:  cpu time      0.0121: real time      0.0125
    SETDIJ:  cpu time      0.0014: real time      0.0014
     EDDAV:  cpu time      4.3316: real time      4.3605
       DOS:  cpu time      0.0005: real time      0.0005
    CHARGE:  cpu time      0.0443: real time      0.0446
    MIXING:  cpu time      0.0008: real time      0.0008
    --------------------------------------------
      LOOP:  cpu time      4.3906: real time      4.4202

 eigenvalue-minimisations  :  4032
 total energy-change (2. order) :-0.1045224E-05  (-0.9810585E-07)
 number of electron     385.0000047 magnetization 
 augmentation part       28.1243021 magnetization 

 Broyden mixing:
  rms(total) = 0.17527E-03    rms(broyden)= 0.17527E-03
  rms(prec ) = 0.18946E-03
  weight for this iteration     100.00

 eigenvalues of (default mixing * dielectric matrix)
  average eigenvalue GAMMA=   2.3402
  6.4216  5.1859  4.8183  3.5898  2.1633  2.1633  2.0618  1.3717  1.3717  1.1029
  1.1029  1.0081  0.9228  0.9228  0.8962

 Free energy of the ion-electron system (eV)
  ---------------------------------------------------
  alpha Z        PSCENC =       545.62548092
  Ewald energy   TEWEN  =    -14981.32895706
  -Hartree energ DENC   =     -8508.21757751
  -exchange      EXHF   =         0.00000000
  -V(xc)+E(xc)   XCENC  =      1223.72673428
  PAW double counting   =     62689.14104996   -62388.26550423
  entropy T*S    EENTRO =        -0.00463707
  eigenvalues    EBANDS =     -2228.86381756
  atomic energy  EATOM  =     23123.78097148
  Solvation  Ediel_sol  =         0.00000000
  ---------------------------------------------------
  free energy    TOTEN  =      -524.40625680 eV

  energy without entropy =     -524.40161973  energy(sigma->0) =     -524.40393826


--------------------------------------------------------------------------------------------------------




--------------------------------------- Iteration      1(  21)  ---------------------------------------


    POTLOK:  cpu time      0.0120: real time      0.0125
    SETDIJ:  cpu time      0.0015: real time      0.0015
[...]
   0.183E+01 0.178E+01 0.570E+00   0.330E+00 -.997E+00 -.352E+01   -.141E+01 -.538E+00 0.164E+01   -.291E-04 0.147E-03 0.367E-04
   -.152E+01 0.351E+00 -.338E+01   0.205E+01 -.384E-02 0.411E+01   -.270E-01 -.129E+00 -.157E+00   0.248E-04 -.754E-05 0.561E-05
   0.143E+01 -.197E+01 0.500E+01   -.292E+01 0.252E+01 -.740E+01   0.370E+00 0.475E-01 0.696E+00   0.332E-04 0.156E-03 0.667E-05
   0.761E+01 -.101E+01 0.341E+00   -.778E+01 0.135E+02 0.138E+02   -.388E+00 -.739E+01 -.826E+01   -.573E-04 0.380E-03 0.286E-03
   0.520E+00 0.310E+01 0.252E+01   -.318E+01 -.302E+01 -.405E+01   0.134E+01 -.170E+00 0.596E+00   0.423E-04 -.135E-03 0.341E-04
   0.516E+01 0.491E+01 -.428E+01   -.625E+01 -.479E+01 0.506E+01   0.136E-01 -.480E+00 0.921E-01   -.498E-04 -.361E-04 -.210E-05
   -.314E+01 0.649E+00 0.614E+01   0.886E+01 0.153E+02 -.138E+02   -.298E+01 -.971E+01 0.402E+01   0.203E-03 0.392E-03 -.167E-03
   0.527E+00 -.610E+01 -.480E+01   0.175E+01 0.557E+01 0.740E+01   -.117E+01 0.925E+00 -.747E+00   -.146E-04 0.121E-03 -.195E-04
   0.761E+01 0.101E+01 -.341E+00   -.778E+01 -.135E+02 -.138E+02   -.388E+00 0.739E+01 0.826E+01   -.573E-04 -.380E-03 -.286E-03
   0.143E+01 0.197E+01 -.500E+01   -.292E+01 -.252E+01 0.740E+01   0.370E+00 -.475E-01 -.696E+00   0.332E-04 -.156E-03 -.667E-05
   -.152E+01 -.351E+00 0.338E+01   0.205E+01 0.384E-02 -.411E+01   -.270E-01 0.129E+00 0.157E+00   0.248E-04 0.754E-05 -.561E-05
   0.183E+01 -.178E+01 -.570E+00   0.330E+00 0.997E+00 0.352E+01   -.141E+01 0.538E+00 -.164E+01   -.291E-04 -.147E-03 -.367E-04
   0.516E+01 -.491E+01 0.428E+01   -.625E+01 0.479E+01 -.506E+01   0.136E-01 0.480E+00 -.921E-01   -.498E-04 0.361E-04 0.210E-05
   0.520E+00 -.310E+01 -.252E+01   -.318E+01 0.302E+01 0.405E+01   0.134E+01 0.170E+00 -.596E+00   0.423E-04 0.135E-03 -.341E-04
   0.401E+02 0.589E+02 0.408E+02   -.480E+02 -.756E+02 -.534E+02   0.783E+01 0.166E+02 0.132E+02   0.122E-03 -.983E-04 0.444E-04
   -.945E+01 0.933E+02 -.336E+02   0.236E+02 -.123E+03 0.519E+02   -.159E+02 0.316E+02 -.207E+02   0.589E-03 -.559E-03 0.445E-03
   0.424E+02 0.581E+02 0.353E+02   -.504E+02 -.738E+02 -.464E+02   0.785E+01 0.152E+02 0.113E+02   0.193E-03 0.224E-03 0.263E-03
   0.407E+02 0.579E+02 0.288E+02   -.489E+02 -.742E+02 -.383E+02   0.779E+01 0.163E+02 0.879E+01   -.791E-05 0.430E-04 -.772E-04
   0.432E+02 0.556E+02 0.363E+02   -.519E+02 -.713E+02 -.471E+02   0.866E+01 0.152E+02 0.109E+02   0.230E-03 0.178E-04 0.217E-03
   0.459E+02 0.516E+02 0.280E+02   -.548E+02 -.636E+02 -.366E+02   0.937E+01 0.943E+01 0.836E+01   0.116E-03 -.242E-04 0.304E-03
   0.448E+02 0.584E+02 0.365E+02   -.533E+02 -.742E+02 -.470E+02   0.849E+01 0.154E+02 0.105E+02   0.902E-04 -.794E-04 0.290E-03
   0.505E+02 0.591E+02 0.273E+02   -.607E+02 -.756E+02 -.369E+02   0.105E+02 0.164E+02 0.927E+01   -.202E-03 0.104E-03 -.314E-03
   -.195E+02 0.726E+02 0.702E+02   0.141E+02 -.996E+02 -.953E+02   0.679E+01 0.298E+02 0.272E+02   -.396E-03 -.807E-03 -.492E-03
   -.695E+02 0.106E+02 0.278E+02   0.872E+02 -.993E+01 -.376E+02   -.174E+02 -.812E+00 0.932E+01   -.349E-04 -.904E-04 0.374E-04
   -.782E+02 -.511E+01 0.369E+02   0.978E+02 0.103E+02 -.479E+02   -.201E+02 -.733E+01 0.102E+02   0.588E-04 0.566E-05 -.231E-03
   -.722E+02 0.575E+01 0.302E+02   0.905E+02 -.484E+01 -.400E+02   -.182E+02 -.118E+01 0.931E+01   -.234E-03 -.741E-04 -.814E-04
   -.673E+02 0.582E+01 0.341E+02   0.844E+02 -.468E+01 -.456E+02   -.164E+02 -.109E+01 0.119E+02   -.232E-04 0.509E-04 0.274E-04
   -.706E+02 0.798E+01 0.307E+02   0.882E+02 -.691E+01 -.407E+02   -.171E+02 -.135E+01 0.945E+01   -.339E-03 0.150E-03 -.213E-05
   -.788E+02 0.111E+02 0.351E+02   0.989E+02 -.110E+02 -.461E+02   -.202E+02 0.485E-01 0.111E+02   0.167E-03 0.209E-03 0.147E-03
   -.730E+02 0.889E+01 0.306E+02   0.910E+02 -.812E+01 -.405E+02   -.177E+02 -.926E+00 0.946E+01   -.264E-03 -.208E-03 0.953E-04
   0.270E+02 -.539E+02 0.459E+02   -.354E+02 0.655E+02 -.603E+02   0.682E+01 -.104E+02 0.163E+02   -.385E-03 -.368E-03 0.164E-03
   0.265E+02 -.587E+02 0.211E+02   -.363E+02 0.703E+02 -.281E+02   0.108E+02 -.979E+01 0.477E+01   0.474E-03 -.316E-03 -.195E-03
   0.232E+02 -.686E+02 0.406E+02   -.295E+02 0.863E+02 -.533E+02   0.386E+01 -.184E+02 0.143E+02   -.477E-03 0.138E-03 0.509E-03
   0.230E+02 -.689E+02 0.240E+02   -.317E+02 0.849E+02 -.333E+02   0.828E+01 -.159E+02 0.883E+01   0.877E-04 0.251E-04 -.374E-04
   0.375E+02 -.739E+02 0.458E+02   -.495E+02 0.909E+02 -.590E+02   0.124E+02 -.171E+02 0.138E+02   -.241E-03 0.163E-03 0.288E-04
   0.351E+02 -.709E+02 0.231E+02   -.461E+02 0.879E+02 -.290E+02   0.125E+02 -.172E+02 0.326E+01   0.449E-03 0.275E-03 -.355E-03
   0.293E+02 -.650E+02 0.378E+02   -.397E+02 0.801E+02 -.487E+02   0.104E+02 -.148E+02 0.108E+02   -.127E-03 -.146E-03 0.196E-03
   0.300E+02 -.653E+02 0.272E+02   -.394E+02 0.803E+02 -.371E+02   0.922E+01 -.147E+02 0.937E+01   0.256E-03 -.256E-03 -.164E-03
   -.945E+01 -.933E+02 0.336E+02   0.236E+02 0.123E+03 -.519E+02   -.159E+02 -.316E+02 0.207E+02   0.589E-03 0.559E-03 -.445E-03
   0.401E+02 -.589E+02 -.408E+02   -.480E+02 0.756E+02 0.534E+02   0.783E+01 -.166E+02 -.132E+02   0.122E-03 0.983E-04 -.444E-04
   0.459E+02 -.516E+02 -.280E+02   -.548E+02 0.636E+02 0.366E+02   0.937E+01 -.943E+01 -.836E+01   0.116E-03 0.242E-04 -.304E-03
   0.432E+02 -.556E+02 -.363E+02   -.519E+02 0.713E+02 0.471E+02   0.866E+01 -.152E+02 -.109E+02   0.230E-03 -.178E-04 -.217E-03
   0.407E+02 -.579E+02 -.288E+02   -.489E+02 0.742E+02 0.383E+02   0.779E+01 -.163E+02 -.879E+01   -.791E-05 -.430E-04 0.772E-04
   0.424E+02 -.581E+02 -.353E+02   -.504E+02 0.738E+02 0.464E+02   0.785E+01 -.152E+02 -.113E+02   0.193E-03 -.224E-03 -.263E-03
   0.505E+02 -.591E+02 -.273E+02   -.607E+02 0.756E+02 0.369E+02   0.105E+02 -.164E+02 -.927E+01   -.202E-03 -.104E-03 0.314E-03
   0.448E+02 -.584E+02 -.365E+02   -.533E+02 0.742E+02 0.470E+02   0.849E+01 -.154E+02 -.105E+02   0.902E-04 0.794E-04 -.290E-03
   0.265E+02 0.587E+02 -.211E+02   -.363E+02 -.703E+02 0.281E+02   0.108E+02 0.979E+01 -.477E+01   0.474E-03 0.316E-03 0.195E-03
   0.270E+02 0.539E+02 -.459E+02   -.354E+02 -.655E+02 0.603E+02   0.682E+01 0.104E+02 -.163E+02   -.385E-03 0.368E-03 -.164E-03
   0.351E+02 0.709E+02 -.231E+02   -.461E+02 -.879E+02 0.290E+02   0.125E+02 0.172E+02 -.326E+01   0.449E-03 -.275E-03 0.355E-03
   0.375E+02 0.739E+02 -.458E+02   -.495E+02 -.909E+02 0.590E+02   0.124E+02 0.171E+02 -.138E+02   -.241E-03 -.163E-03 -.288E-04
   0.230E+02 0.689E+02 -.240E+02   -.317E+02 -.849E+02 0.333E+02   0.828E+01 0.159E+02 -.883E+01   0.877E-04 -.251E-04 0.374E-04
   0.232E+02 0.686E+02 -.406E+02   -.295E+02 -.863E+02 0.533E+02   0.386E+01 0.184E+02 -.143E+02   -.477E-03 -.138E-03 -.509E-03
   0.300E+02 0.653E+02 -.272E+02   -.394E+02 -.803E+02 0.371E+02   0.922E+01 0.147E+02 -.937E+01   0.256E-03 0.256E-03 0.164E-03
   0.293E+02 0.650E+02 -.378E+02   -.397E+02 -.801E+02 0.487E+02   0.104E+02 0.148E+02 -.108E+02   -.127E-03 0.146E-03 -.196E-03
   -.695E+02 -.106E+02 -.278E+02   0.872E+02 0.993E+01 0.376E+02   -.174E+02 0.812E+00 -.932E+01   -.349E-04 0.904E-04 -.374E-04
   -.195E+02 -.726E+02 -.702E+02   0.141E+02 0.996E+02 0.953E+02   0.679E+01 -.298E+02 -.272E+02   -.396E-03 0.807E-03 0.492E-03
   -.706E+02 -.798E+01 -.307E+02   0.882E+02 0.691E+01 0.407E+02   -.171E+02 0.135E+01 -.945E+01   -.339E-03 -.150E-03 0.213E-05
   -.673E+02 -.582E+01 -.341E+02   0.844E+02 0.468E+01 0.456E+02   -.164E+02 0.109E+01 -.119E+02   -.232E-04 -.509E-04 -.274E-04
   -.722E+02 -.575E+01 -.302E+02   0.905E+02 0.484E+01 0.400E+02   -.182E+02 0.118E+01 -.931E+01   -.234E-03 0.741E-04 0.814E-04
   -.782E+02 0.511E+01 -.369E+02   0.978E+02 -.103E+02 0.479E+02   -.201E+02 0.733E+01 -.102E+02   0.588E-04 -.566E-05 0.231E-03
   -.730E+02 -.889E+01 -.306E+02   0.910E+02 0.812E+01 0.405E+02   -.177E+02 0.926E+00 -.946E+01   -.264E-03 0.208E-03 -.953E-04
   -.788E+02 -.111E+02 -.351E+02   0.989E+02 0.110E+02 0.461E+02   -.202E+02 -.485E-01 -.111E+02   0.167E-03 -.209E-03 -.147E-03
 -----------------------------------------------------------------------------------------------
   0.103E+02 -.178E-05 0.749E-05   0.426E-13 0.497E-12 -.711E-14   -.103E+02 -.468E-13 0.444E-13   0.372E-03 -.767E-12 0.251E-11
 
 
 POSITION                                       TOTAL-FORCE (eV/Angst)
 -----------------------------------------------------------------------------------
      2.61028     -0.00000      5.43130        -0.365135     -0.000000      0.000000
      5.06777      4.25649      0.00000         0.014334      0.032884      1.619311
      5.06777      4.25649      5.43130        -0.039042      0.064916     -0.086630
      5.06777     -4.25649      0.00000         0.014334     -0.032884     -1.619311
      5.06777     -4.25649      5.43130        -0.039042     -0.064916      0.086630
      7.52525      0.00000      0.00000        -0.028798     -0.000000      0.000000
      7.52525      0.00000      5.43130        -0.037068     -0.000000      0.000000
      1.15234      1.99591      3.62087         1.113139     -0.392627     -1.852899
      1.15234      1.99591      9.05217         2.746228     -6.232307      3.641610
      3.60982      6.25240      3.62087         0.756085      0.242643     -1.308641
      3.60982      6.25240      9.05217         0.501412      0.218282      0.565999
      3.60982     -2.26057      3.62087        -1.124516      0.598998     -1.707891
      3.60982     -2.26057      9.05217        -0.558436      5.136350      5.885279
      6.06731      1.99591      3.62087        -1.318241     -0.092696     -0.938290
      6.06731      1.99591      9.05217        -1.067405     -0.364839      0.878226
      1.15234     -1.99591      1.81043         2.746228      6.232307     -3.641610
      1.15234     -1.99591      7.24173         1.113139      0.392627      1.852899
      3.60982      2.26057      1.81043        -0.558436     -5.136350     -5.885279
      3.60982      2.26057      7.24173        -1.124516     -0.598998      1.707891
      3.60982     -6.25240      1.81043         0.501412     -0.218282     -0.565999
      3.60982     -6.25240      7.24173         0.756085     -0.242643      1.308641
      6.06731     -1.99591      1.81043        -1.067405      0.364839     -0.878226
      6.06731     -1.99591      7.24173        -1.318241      0.092696      0.938290
      1.67752      0.61366      4.26298        -0.132723     -0.201034      0.533841
      1.67752      0.61366      9.69428        -1.738618      2.207757     -2.406131
      4.13500      4.87015      4.26298        -0.181862     -0.525854      0.215827
      4.13500      4.87015      9.69428        -0.432612      0.022081     -0.683072
      4.13500     -3.64282      4.26298         0.052996     -0.536145      0.145758
      4.13500     -3.64282      9.69428         0.501134     -2.597122     -0.254297
      6.59249      0.61366      4.26298        -0.017046     -0.449782     -0.028168
      6.59249      0.61366      9.69428         0.277958     -0.111936     -0.322536
      3.54476      1.14594      0.64211         1.365646      2.715758      2.126799
      3.54476      1.14594      6.07341         0.387617     -0.104521     -0.448018
      6.00224      5.40243      0.64211        -0.479514     -2.131856     -0.740492
      6.00224      5.40243      6.07341         0.109394     -0.272789     -0.544393
      6.00224     -3.11054      0.64211         0.628376      0.052163      0.399330
      6.00224     -3.11054      6.07341         0.496095     -0.278401     -0.504434
      8.45972      1.14594      0.64211        -0.123912      0.175649      0.074809
      8.45972      1.14594      6.07341         0.262356     -0.157735     -0.459069
      2.15017      2.49688      2.45255        -1.617461      1.177310      1.896987
      2.15017      2.49688      7.88385         0.983727      1.810481     -2.224885
      4.60765      6.75336      2.45255        -2.427968     -0.782949      1.572433
      4.60765      6.75336      7.88385        -0.493205      0.070432     -0.432484
      4.60765     -1.75961      2.45255         0.364293     -0.132081      0.496483
      4.60765     -1.75961      7.88385         1.552944     -0.180447     -2.610790
      7.06514      2.49688      2.45255         0.071193      0.315787     -0.030612
      7.06514      2.49688      7.88385        -0.216869      0.360461     -0.439169
      1.67752     -0.61366      1.16832        -1.738618     -2.207757      2.406131
      1.67752     -0.61366      6.59962        -0.132723      0.201034     -0.533841
      4.13500      3.64282      1.16832         0.501134      2.597122      0.254297
      4.13500      3.64282      6.59962         0.052996      0.536145     -0.145758
      4.13500     -4.87015      1.16832        -0.432612     -0.022081      0.683072
      4.13500     -4.87015      6.59962        -0.181862      0.525854     -0.215827
      6.59249     -0.61366      1.16832         0.277958      0.111936      0.322536
      6.59249     -0.61366      6.59962        -0.017046      0.449782      0.028168
      2.15017     -2.49688      2.97876         0.983727     -1.810481      2.224885
      2.15017     -2.49688      8.41006        -1.617461     -1.177310     -1.896987
      4.60765      1.75961      2.97876         1.552944      0.180447      2.610790
      4.60765      1.75961      8.41006         0.364293      0.132081     -0.496483
      4.60765     -6.75336      2.97876        -0.493205     -0.070432      0.432484
      4.60765     -6.75336      8.41006        -2.427968      0.782949     -1.572433
      7.06514     -2.49688      2.97876        -0.216869     -0.360461      0.439169
      7.06514     -2.49688      8.41006         0.071193     -0.315787      0.030612
      3.54476     -1.14594      4.78919         0.387617      0.104521      0.448018
      3.54476     -1.14594     10.22049         1.365646     -2.715758     -2.126799
      6.00224      3.11054      4.78919         0.496095      0.278401      0.504434
      6.00224      3.11054     10.22049         0.628376     -0.052163     -0.399330
      6.00224     -5.40243      4.78919         0.109394      0.272789      0.544393
      6.00224     -5.40243     10.22049        -0.479514      2.131856      0.740492
      8.45972     -1.14594      4.78919         0.262356      0.157735      0.459069
      8.45972     -1.14594     10.22049        -0.123912     -0.175649     -0.074809
 -----------------------------------------------------------------------------------
    total drift:                                0.011102     -0.000002      0.000007


--------------------------------------------------------------------------------------------------------



  FREE ENERGIE OF THE ION-ELECTRON SYSTEM (eV)
  ---------------------------------------------------
  free  energy   TOTEN  =      -524.40625682 eV

  energy  without entropy=     -524.40161947  energy(sigma->0) =     -524.40393814
 


--------------------------------------------------------------------------------------------------------


    POTLOK:  cpu time      0.0159: real time      0.0162


--------------------------------------------------------------------------------------------------------


 stress matrix after NEB project (eV)
     84.77796      0.00000      0.00000
      0.00000     82.14590     -0.99431
      0.00000     -0.99431     81.30023
  FORCES: max atom, RMS     7.831376    2.495948
  FORCE total and by dimension   21.031233    6.232307
  Stress total and by dimension  143.342099   84.777957
 writing wavefunctions
     LOOP+:  cpu time    105.9480: real time    106.7873
    4ORBIT:  cpu time      0.0000: real time      0.0000



 total charge

# of ion       s       p       d       tot
------------------------------------------
    1        0.654   1.017   0.000   1.671
    2        0.655   1.020   0.000   1.675
    3        0.659   1.017   0.000   1.675
    4        0.655   1.020   0.000   1.675
    5        0.659   1.017   0.000   1.675
    6        0.653   1.013   0.000   1.666
    7        0.661   1.015   0.000   1.676
    8        0.655   1.016   0.000   1.671
    9        0.683   1.046   0.000   1.729
   10        0.663   1.022   0.000   1.684
   11        0.654   1.016   0.000   1.670
   12        0.654   1.016   0.000   1.669
   13        0.683   1.045   0.000   1.728
   14        0.660   1.019   0.000   1.679
   15        0.653   1.014   0.000   1.667
   16        0.683   1.046   0.000   1.729
   17        0.655   1.016   0.000   1.671
   18        0.683   1.045   0.000   1.728
   19        0.654   1.016   0.000   1.669
   20        0.654   1.016   0.000   1.670
   21        0.663   1.022   0.000   1.684
   22        0.653   1.014   0.000   1.667
   23        0.660   1.019   0.000   1.679
   24        1.555   3.707   0.000   5.262
   25        1.586   3.430   0.000   5.015
   26        1.558   3.709   0.000   5.267
   27        1.552   3.716   0.000   5.268
   28        1.557   3.710   0.000   5.267
   29        1.553   3.717   0.000   5.270
   30        1.561   3.705   0.000   5.266
   31        1.553   3.709   0.000   5.262
   32        1.586   3.426   0.000   5.012
   33        1.553   3.716   0.000   5.269
   34        1.558   3.700   0.000   5.258
   35        1.557   3.711   0.000   5.268
   36        1.553   3.714   0.000   5.267
   37        1.559   3.710   0.000   5.268
   38        1.554   3.705   0.000   5.259
   39        1.560   3.707   0.000   5.267
   40        1.555   3.706   0.000   5.261
   41        1.553   3.717   0.000   5.270
   42        1.564   3.695   0.000   5.259
   43        1.554   3.713   0.000   5.267
   44        1.556   3.697   0.000   5.253
   45        1.560   3.702   0.000   5.262
   46        1.556   3.709   0.000   5.265
   47        1.556   3.713   0.000   5.269
   48        1.586   3.430   0.000   5.015
   49        1.555   3.707   0.000   5.262
   50        1.553   3.717   0.000   5.270
   51        1.557   3.710   0.000   5.267
   52        1.552   3.716   0.000   5.268
   53        1.558   3.709   0.000   5.267
   54        1.553   3.709   0.000   5.262
   55        1.561   3.705   0.000   5.266
   56        1.553   3.717   0.000   5.270
   57        1.555   3.706   0.000   5.261
   58        1.560   3.702   0.000   5.262
   59        1.556   3.697   0.000   5.253
   60        1.554   3.713   0.000   5.267
   61        1.564   3.695   0.000   5.259
   62        1.556   3.713   0.000   5.269
   63        1.556   3.709   0.000   5.265
   64        1.553   3.716   0.000   5.269
   65        1.586   3.426   0.000   5.012
   66        1.559   3.710   0.000   5.268
   67        1.553   3.714   0.000   5.267
   68        1.557   3.711   0.000   5.268
   69        1.558   3.700   0.000   5.258
   70        1.560   3.707   0.000   5.267
   71        1.554   3.705   0.000   5.259
--------------------------------------------------
tot         90.021 200.392   0.000 290.413
 

 total amount of memory used by VASP MPI-rank0   100515. kBytes
=======================================================================

   base      :      30000. kBytes
   nonl-proj :      50996. kBytes
   fftplans  :       1721. kBytes
   grid      :       9701. kBytes
   one-center:        218. kBytes
   wavefun   :       7879. kBytes
 
  
  
 General timing and accounting informations for this job:
 ========================================================
  
                  Total CPU time used (sec):      116.557
                            User time (sec):      113.231
                          System time (sec):        3.326
                         Elapsed time (sec):      119.135
  
                   Maximum memory used (kb):      403436.
                   Average memory used (kb):          N/A
  
                          Minor page faults:       137619
                          Major page faults:          208
                 Voluntary context switches:         4847
