 vasp.6.3.0 20Jan22 (build Mar 07 2022 09:35:52) complex                        
  
 executed on             LinuxIFC date 2025.06.26  16:12:41
 running on   96 total cores
 distrk:  each k-point on   96 cores,    1 groups
 distr:  one band on NCORE=   1 cores,   96 groups


--------------------------------------------------------------------------------------------------------


 INCAR:
   ALGO = Normal
   AMIX = 0.2
   EDIFF = 1e-06
   EDIFFG = -0.05
   ENCUT = 550.0
   IBRION = 2
   ISIF = 2
   ISMEAR = 0
   ISPIN = 1
   ISYM = 2
   LCHARG = True
   LORBIT = 11
   LREAL = False
   LVTOT = True
   LWAVE = True
   NELECT = 378.0
   NELM = 200
   NSW = 0
   SIGMA = 0.05
   SYSTEM = SiO2

 POTCAR:    PAW_PBE Si 05Jan2001                  
 POTCAR:    PAW_PBE O 08Apr2002                   
 WARNING: For LVTOT=.TRUE., VASP.5.x writes the TOTAL local potential to the
     file LOCPOT. If you want only the Hartree contributions, use LVHAR=.TRUE.
     instead. 

 -----------------------------------------------------------------------------
|                                                                             |
|           W    W    AA    RRRRR   N    N  II  N    N   GGGG   !!!           |
|           W    W   A  A   R    R  NN   N  II  NN   N  G    G  !!!           |
|           W    W  A    A  R    R  N N  N  II  N N  N  G       !!!           |
|           W WW W  AAAAAA  RRRRR   N  N N  II  N  N N  G  GGG   !            |
|           WW  WW  A    A  R   R   N   NN  II  N   NN  G    G                |
|           W    W  A    A  R    R  N    N  II  N    N   GGGG   !!!           |
|                                                                             |
|     For optimal performance we recommend to set                             |
|       NCORE = 2 up to number-of-cores-per-socket                            |
|     NCORE specifies how many cores store one orbital (NPAR=cpu/NCORE).      |
|     This setting can greatly improve the performance of VASP for DFT.       |
|     The default, NCORE=1 might be grossly inefficient on modern             |
|     multi-core architectures or massively parallel machines. Do your        |
|     own testing! More info at https://www.vasp.at/wiki/index.php/NCORE      |
|     Unfortunately you need to use the default for GW and RPA                |
|     calculations (for HF NCORE is supported but not extensively tested      |
|     yet).                                                                   |
|                                                                             |
 -----------------------------------------------------------------------------

 POTCAR:    PAW_PBE Si 05Jan2001                  
   VRHFIN =Si: s2p2                                                                                 
   LEXCH  = PE                                                                                      
   EATOM  =   103.0669 eV,    7.5752 Ry                                                             
                                                                                                    
   TITEL  = PAW_PBE Si 05Jan2001                                                                    
   LULTRA =        F    use ultrasoft PP ?                                                          
   IUNSCR =        1    unscreen: 0-lin 1-nonlin 2-no                                               
   RPACOR =    1.500    partial core radius                                                         
   POMASS =   28.085; ZVAL   =    4.000    mass and valenz                                          
   RCORE  =    1.900    outmost cutoff radius                                                       
   RWIGS  =    2.480; RWIGS  =    1.312    wigner-seitz radius (au A)                               
   ENMAX  =  245.345; ENMIN  =  184.009 eV                                                          
   ICORE  =        2    local potential                                                             
   LCOR   =        T    correct aug charges                                                         
   LPAW   =        T    paw PP                                                                      
   EAUG   =  322.069                                                                                
   DEXC   =    0.000                                                                                
   RMAX   =    1.950    core radius for proj-oper                                                   
   RAUG   =    1.300    factor for augmentation sphere                                              
   RDEP   =    1.993    radius for radial grids                                                     
   RDEPT  =    1.837    core radius for aug-charge                                                  
                                                                                                    
   Atomic configuration                                                                             
    6 entries                                                                                       
     n  l   j            E        occ.                                                              
     1  0  0.50     -1785.8828   2.0000                                                             
     2  0  0.50      -139.4969   2.0000                                                             
     2  1  1.50       -95.5546   6.0000                                                             
     3  0  0.50       -10.8127   2.0000                                                             
     3  1  0.50        -4.0811   2.0000                                                             
     3  2  1.50        -4.0817   0.0000                                                             
   Description                                                                                      
     l       E           TYP  RCUT    TYP  RCUT                                                     
     0    -10.8127223     23  1.900                                                                 
     0     -7.6451159     23  1.900                                                                 
     1     -4.0811372     23  1.900                                                                 
     1      2.4879257     23  1.900                                                                 
     2     -4.0817478      7  1.900                                                                 
  local pseudopotential read in
  partial core-charges read in
  partial kinetic energy density read in
  atomic valenz-charges read in
  non local Contribution for L=           0  read in
    real space projection operators read in
  non local Contribution for L=           0  read in
    real space projection operators read in
  non local Contribution for L=           1  read in
    real space projection operators read in
  non local Contribution for L=           1  read in
    real space projection operators read in
    PAW grid and wavefunctions read in
 
   number of l-projection  operators is LMAX  =           4
   number of lm-projection operators is LMMAX =           8
 
 POTCAR:    PAW_PBE O 08Apr2002                   
   VRHFIN =O: s2p4                                                                                  
   LEXCH  = PE                                                                                      
   EATOM  =   432.3788 eV,   31.7789 Ry                                                             
                                                                                                    
   TITEL  = PAW_PBE O 08Apr2002                                                                     
   LULTRA =        F    use ultrasoft PP ?                                                          
   IUNSCR =        1    unscreen: 0-lin 1-nonlin 2-no                                               
   RPACOR =    1.200    partial core radius                                                         
   POMASS =   16.000; ZVAL   =    6.000    mass and valenz                                          
   RCORE  =    1.520    outmost cutoff radius                                                       
   RWIGS  =    1.550; RWIGS  =    0.820    wigner-seitz radius (au A)                               
   ENMAX  =  400.000; ENMIN  =  300.000 eV                                                          
   ICORE  =        2    local potential                                                             
   LCOR   =        T    correct aug charges                                                         
   LPAW   =        T    paw PP                                                                      
   EAUG   =  605.392                                                                                
   DEXC   =    0.000                                                                                
   RMAX   =    1.553    core radius for proj-oper                                                   
   RAUG   =    1.300    factor for augmentation sphere                                              
   RDEP   =    1.550    radius for radial grids                                                     
   RDEPT  =    1.329    core radius for aug-charge                                                  
                                                                                                    
   Atomic configuration                                                                             
    4 entries                                                                                       
     n  l   j            E        occ.                                                              
     1  0  0.50      -514.6923   2.0000                                                             
     2  0  0.50       -23.9615   2.0000                                                             
     2  1  0.50        -9.0305   4.0000                                                             
     3  2  1.50        -9.5241   0.0000                                                             
   Description                                                                                      
     l       E           TYP  RCUT    TYP  RCUT                                                     
     0    -23.9615318     23  1.200                                                                 
     0     -9.5240782     23  1.200                                                                 
     1     -9.0304911     23  1.520                                                                 
     1      8.1634956     23  1.520                                                                 
     2     -9.5240782      7  1.500                                                                 
  local pseudopotential read in
  partial core-charges read in
  partial kinetic energy density read in
  kinetic energy density of atom read in
  atomic valenz-charges read in
  non local Contribution for L=           0  read in
    real space projection operators read in
  non local Contribution for L=           0  read in
    real space projection operators read in
  non local Contribution for L=           1  read in
    real space projection operators read in
  non local Contribution for L=           1  read in
    real space projection operators read in
    PAW grid and wavefunctions read in
 
   number of l-projection  operators is LMAX  =           4
   number of lm-projection operators is LMMAX =           8
 
 -----------------------------------------------------------------------------
|                                                                             |
|               ----> ADVICE to this user running VASP <----                  |
|                                                                             |
|     You have a (more or less) 'large supercell' and for larger cells it     |
|     might be more efficient to use real-space projection operators.         |
|     Therefore, try LREAL= Auto in the INCAR file.                           |
|     Mind: For very accurate calculation, you might also keep the            |
|     reciprocal projection scheme (i.e. LREAL=.FALSE.).                      |
|                                                                             |
 -----------------------------------------------------------------------------

  PAW_PBE Si 05Jan2001                  :
 energy of atom  1       EATOM= -103.0669
 kinetic energy error for atom=    0.0004 (will be added to EATOM!!)
  PAW_PBE O 08Apr2002                   :
 energy of atom  2       EATOM= -432.3788
 kinetic energy error for atom=    0.0194 (will be added to EATOM!!)
 
 
 POSCAR: Si24 O47
  positions in direct lattice
  No initial velocities read in
 exchange correlation table for  LEXCH =        8
   RHO(1)=    0.500       N(1)  =     2000
   RHO(2)=  100.500       N(2)  =     4000

 VTST: version 4.2, (08/11/21)

 CHAIN: initializing optimizer
 
 OPT: Using VASP Conjugate-Gradient optimizer
 CHAIN: Read ICHAIN            0
 
 POSCAR: Si24 O47
  positions in direct lattice
  No initial velocities read in
 


--------------------------------------------------------------------------------------------------------


 ion  position               nearest neighbor table
   1  0.266  0.266  0.000-  65 1.61  32 1.61  48 1.62  25 1.62  14 3.06  19 3.06  17 3.06  10 3.06

   2  0.266  0.266  0.500-  64 1.61  33 1.61  49 1.62  20 3.06  13 3.06   9 3.06  18 3.06
   3  0.266  0.766  0.000-  67 1.61  34 1.61  50 1.62  27 1.62  16 3.06  17 3.06  12 3.06  19 3.06

   4  0.266  0.766  0.500-  66 1.61  35 1.61  51 1.62  26 1.62  15 3.06  18 3.06  11 3.06  20 3.06

   5  0.766  0.266  0.000-  69 1.61  36 1.61  52 1.62  29 1.62  10 3.06  23 3.06  21 3.06  14 3.06

   6  0.766  0.266  0.500-  68 1.61  37 1.61  53 1.62  28 1.62   9 3.06  24 3.06  22 3.06  13 3.06

   7  0.766  0.766  0.000-  71 1.61  38 1.61  54 1.62  31 1.62  12 3.06  21 3.06  16 3.06  23 3.06

   8  0.766  0.766  0.500-  70 1.61  39 1.61  55 1.62  30 1.62  11 3.06  22 3.06  15 3.06  24 3.06

   9  0.000  0.234  0.333-  60 1.61  40 1.62  68 1.62   6 3.06   2 3.06  21 3.06  19 3.06
  10  0.000  0.234  0.833-  25 1.61  61 1.61  41 1.62  69 1.62   5 3.06   1 3.06  20 3.06  22 3.06

  11  0.000  0.734  0.333-  26 1.61  62 1.61  42 1.62  70 1.62   8 3.06   4 3.06  17 3.06  23 3.06

  12  0.000  0.734  0.833-  27 1.61  63 1.61  43 1.62  71 1.62   7 3.06   3 3.06  18 3.06  24 3.06

  13  0.500  0.234  0.333-  28 1.61  56 1.61  44 1.62  64 1.62   2 3.06   6 3.06  17 3.06  23 3.06

  14  0.500  0.234  0.833-  29 1.61  57 1.61  45 1.62  65 1.62   1 3.06   5 3.06  18 3.06  24 3.06

  15  0.500  0.734  0.333-  30 1.61  58 1.61  46 1.62  66 1.62   4 3.06   8 3.06  19 3.06  21 3.06

  16  0.500  0.734  0.833-  31 1.61  59 1.61  47 1.62  67 1.62   3 3.06   7 3.06  20 3.06  22 3.06

  17  0.234  0.000  0.167-  48 1.61  42 1.61  34 1.62  56 1.62   3 3.06   1 3.06  11 3.06  13 3.06

  18  0.234  0.000  0.667-  49 1.61  43 1.61  35 1.62  57 1.62   4 3.06   2 3.06  12 3.06  14 3.06

  19  0.234  0.500  0.167-  50 1.61  40 1.61  32 1.62  58 1.62   1 3.06   3 3.06   9 3.06  15 3.06

  20  0.234  0.500  0.667-  51 1.61  41 1.61  33 1.62  59 1.62   2 3.06   4 3.06  10 3.06  16 3.06

  21  0.734  0.000  0.167-  52 1.61  46 1.61  38 1.62  60 1.62   7 3.06   5 3.06   9 3.06  15 3.06

  22  0.734  0.000  0.667-  53 1.61  47 1.61  39 1.62  61 1.62   8 3.06   6 3.06  10 3.06  16 3.06

  23  0.734  0.500  0.167-  54 1.61  44 1.61  36 1.62  62 1.62   5 3.06   7 3.06  11 3.06  13 3.06

  24  0.734  0.500  0.667-  55 1.61  45 1.61  37 1.62  63 1.62   6 3.06   8 3.06  12 3.06  14 3.06

  25  0.135  0.207  0.892-  10 1.61   1 1.62
  26  0.135  0.707  0.392-  11 1.61   4 1.62
  27  0.135  0.707  0.892-  12 1.61   3 1.62
  28  0.635  0.207  0.392-  13 1.61   6 1.62
  29  0.635  0.207  0.892-  14 1.61   5 1.62
  30  0.635  0.707  0.392-  15 1.61   8 1.62
  31  0.635  0.707  0.892-  16 1.61   7 1.62
  32  0.293  0.428  0.059-   1 1.61  19 1.62
  33  0.293  0.428  0.559-   2 1.61  20 1.62
  34  0.293  0.928  0.059-   3 1.61  17 1.62
  35  0.293  0.928  0.559-   4 1.61  18 1.62
  36  0.793  0.428  0.059-   5 1.61  23 1.62
  37  0.793  0.428  0.559-   6 1.61  24 1.62
  38  0.793  0.928  0.059-   7 1.61  21 1.62
  39  0.793  0.928  0.559-   8 1.61  22 1.62
  40  0.072  0.365  0.226-  19 1.61   9 1.62
  41  0.072  0.365  0.726-  20 1.61  10 1.62
  42  0.072  0.865  0.226-  17 1.61  11 1.62
  43  0.072  0.865  0.726-  18 1.61  12 1.62
  44  0.572  0.365  0.226-  23 1.61  13 1.62
  45  0.572  0.365  0.726-  24 1.61  14 1.62
  46  0.572  0.865  0.226-  21 1.61  15 1.62
  47  0.572  0.865  0.726-  22 1.61  16 1.62
  48  0.207  0.135  0.108-  17 1.61   1 1.62
  49  0.207  0.135  0.608-  18 1.61   2 1.62
  50  0.207  0.635  0.108-  19 1.61   3 1.62
  51  0.207  0.635  0.608-  20 1.61   4 1.62
  52  0.707  0.135  0.108-  21 1.61   5 1.62
  53  0.707  0.135  0.608-  22 1.61   6 1.62
  54  0.707  0.635  0.108-  23 1.61   7 1.62
  55  0.707  0.635  0.608-  24 1.61   8 1.62
  56  0.365  0.072  0.274-  13 1.61  17 1.62
  57  0.365  0.072  0.774-  14 1.61  18 1.62
  58  0.365  0.572  0.274-  15 1.61  19 1.62
  59  0.365  0.572  0.774-  16 1.61  20 1.62
  60  0.865  0.072  0.274-   9 1.61  21 1.62
  61  0.865  0.072  0.774-  10 1.61  22 1.62
  62  0.865  0.572  0.274-  11 1.61  23 1.62
  63  0.865  0.572  0.774-  12 1.61  24 1.62
  64  0.428  0.293  0.441-   2 1.61  13 1.62
  65  0.428  0.293  0.941-   1 1.61  14 1.62
  66  0.428  0.793  0.441-   4 1.61  15 1.62
  67  0.428  0.793  0.941-   3 1.61  16 1.62
  68  0.928  0.293  0.441-   6 1.61   9 1.62
  69  0.928  0.293  0.941-   5 1.61  10 1.62
  70  0.928  0.793  0.441-   8 1.61  11 1.62
  71  0.928  0.793  0.941-   7 1.61  12 1.62
 
  LATTYP: Found a hexagonal cell.
 ALAT       =     9.8299323535
 C/A-ratio  =     1.1050536148
  
  Lattice vectors:
  
 A1 = (   4.9149661767,  -8.5129711356,   0.0000000000)
 A2 = (   4.9149661767,   8.5129711356,   0.0000000000)
 A3 = (   0.0000000000,   0.0000000000,  10.8626022800)


Analysis of symmetry for initial positions (statically):
=====================================================================
 Subroutine PRICEL returns:
 Original cell was already a primitive cell.
 

 Routine SETGRP: Setting up the symmetry group for a 
 hexagonal supercell.


 Subroutine GETGRP returns: Found  1 space group operations
 (whereof  1 operations were pure point group operations)
 out of a pool of 24 trial point group operations.


The static configuration has the point symmetry C_1 .


Analysis of symmetry for dynamics (positions and initial velocities):
=====================================================================
 Subroutine PRICEL returns:
 Original cell was already a primitive cell.
 

 Routine SETGRP: Setting up the symmetry group for a 
 hexagonal supercell.


 Subroutine GETGRP returns: Found  1 space group operations
 (whereof  1 operations were pure point group operations)
 out of a pool of 24 trial point group operations.


The dynamic configuration has the point symmetry C_1 .


 Subroutine INISYM returns: Found  1 space group operations
 (whereof  1 operations are pure point group operations),
 and found     1 'primitive' translations


----------------------------------------------------------------------------------------

                                     Primitive cell                                     

  volume of cell :     909.0035

  direct lattice vectors                    reciprocal lattice vectors
     4.914966177 -8.512971136  0.000000000     0.101730100 -0.058733901  0.000000000
     4.914966177  8.512971136  0.000000000     0.101730100  0.058733901  0.000000000
     0.000000000  0.000000000 10.862602280     0.000000000  0.000000000  0.092058972

  length of vectors
     9.829932353  9.829932353 10.862602280     0.117467801  0.117467801  0.092058972

  position of ions in fractional coordinates (direct lattice)
     0.265544295  0.265544295  0.000000000
     0.265544295  0.265544295  0.500000000
     0.265544295  0.765544295  0.000000000
     0.265544295  0.765544295  0.500000000
     0.765544295  0.265544295  0.000000000
     0.765544295  0.265544295  0.500000000
     0.765544295  0.765544295  0.000000000
     0.765544295  0.765544295  0.500000000
     1.000000000  0.234455705  0.333333333
     1.000000000  0.234455705  0.833333333
     1.000000000  0.734455705  0.333333333
     1.000000000  0.734455705  0.833333333
     0.500000000  0.234455705  0.333333333
     0.500000000  0.234455705  0.833333333
     0.500000000  0.734455705  0.333333333
     0.500000000  0.734455705  0.833333333
     0.234455705  1.000000000  0.166666667
     0.234455705  1.000000000  0.666666667
     0.234455705  0.500000000  0.166666667
     0.234455705  0.500000000  0.666666667
     0.734455705  1.000000000  0.166666667
     0.734455705  1.000000000  0.666666667
     0.734455705  0.500000000  0.166666667
     0.734455705  0.500000000  0.666666667
     0.134611555  0.206697145  0.892445490
     0.134611555  0.706697145  0.392445490
     0.134611555  0.706697145  0.892445490
     0.634611555  0.206697145  0.392445490
     0.634611555  0.206697145  0.892445490
     0.634611555  0.706697145  0.392445490
     0.634611555  0.706697145  0.892445490
     0.293302855  0.427914410  0.059112157
     0.293302855  0.427914410  0.559112157
     0.293302855  0.927914410  0.059112157
     0.293302855  0.927914410  0.559112157
     0.793302855  0.427914410  0.059112157
     0.793302855  0.427914410  0.559112157
     0.793302855  0.927914410  0.059112157
     0.793302855  0.927914410  0.559112157
     0.072085590  0.365388445  0.225778823
     0.072085590  0.365388445  0.725778823
     0.072085590  0.865388445  0.225778823
     0.072085590  0.865388445  0.725778823
     0.572085590  0.365388445  0.225778823
     0.572085590  0.365388445  0.725778823
     0.572085590  0.865388445  0.225778823
     0.572085590  0.865388445  0.725778823
     0.206697145  0.134611555  0.107554510
     0.206697145  0.134611555  0.607554510
     0.206697145  0.634611555  0.107554510
     0.206697145  0.634611555  0.607554510
     0.706697145  0.134611555  0.107554510
     0.706697145  0.134611555  0.607554510
     0.706697145  0.634611555  0.107554510
     0.706697145  0.634611555  0.607554510
     0.365388445  0.072085590  0.274221177
     0.365388445  0.072085590  0.774221177
     0.365388445  0.572085590  0.274221177
     0.365388445  0.572085590  0.774221177
     0.865388445  0.072085590  0.274221177
     0.865388445  0.072085590  0.774221177
     0.865388445  0.572085590  0.274221177
     0.865388445  0.572085590  0.774221177
     0.427914410  0.293302855  0.440887843
     0.427914410  0.293302855  0.940887843
     0.427914410  0.793302855  0.440887843
     0.427914410  0.793302855  0.940887843
     0.927914410  0.293302855  0.440887843
     0.927914410  0.293302855  0.940887843
     0.927914410  0.793302855  0.440887843
     0.927914410  0.793302855  0.940887843

  ion indices of the primitive-cell ions
   primitive index   ion index
                 1           1
                 2           2
                 3           3
                 4           4
                 5           5
                 6           6
                 7           7
                 8           8
                 9           9
                10          10
                11          11
                12          12
                13          13
                14          14
                15          15
                16          16
                17          17
                18          18
                19          19
                20          20
                21          21
                22          22
                23          23
                24          24
                25          25
                26          26
                27          27
                28          28
                29          29
                30          30
                31          31
                32          32
                33          33
                34          34
                35          35
                36          36
                37          37
                38          38
                39          39
                40          40
                41          41
                42          42
                43          43
                44          44
                45          45
                46          46
                47          47
                48          48
                49          49
                50          50
                51          51
                52          52
                53          53
                54          54
                55          55
                56          56
                57          57
                58          58
                59          59
                60          60
                61          61
                62          62
                63          63
                64          64
                65          65
                66          66
                67          67
                68          68
                69          69
                70          70
                71          71

----------------------------------------------------------------------------------------

 
 
 KPOINTS: pymatgen with grid density = 1000 / numb

Automatic generation of k-mesh.
 Grid dimensions read from file:
 generate k-points for:    2    2    2

 Generating k-lattice:

  Cartesian coordinates                     Fractional coordinates (reciprocal lattice)
     0.050865050 -0.029366950  0.000000000     0.500000000 -0.000000000  0.000000000
     0.050865050  0.029366950  0.000000000    -0.000000000  0.500000000  0.000000000
     0.000000000  0.000000000  0.046029486     0.000000000  0.000000000  0.500000000

  Length of vectors
     0.058733901  0.058733901  0.046029486

  Shift w.r.t. Gamma in fractional coordinates (k-lattice)
     0.000000000  0.000000000  0.000000000

 
 Subroutine IBZKPT returns following result:
 ===========================================
 
 Found      8 irreducible k-points:
 
 Following reciprocal coordinates:
            Coordinates               Weight
  0.000000  0.000000  0.000000      1.000000
  0.500000  0.000000  0.000000      1.000000
  0.000000  0.500000  0.000000      1.000000
  0.500000  0.500000  0.000000      1.000000
  0.000000  0.000000  0.500000      1.000000
  0.500000  0.000000  0.500000      1.000000
  0.000000  0.500000  0.500000      1.000000
  0.500000  0.500000  0.500000      1.000000
 
 Following cartesian coordinates:
            Coordinates               Weight
  0.000000  0.000000  0.000000      1.000000
  0.050865 -0.029367  0.000000      1.000000
  0.050865  0.029367  0.000000      1.000000
  0.101730  0.000000  0.000000      1.000000
  0.000000  0.000000  0.046029      1.000000
  0.050865 -0.029367  0.046029      1.000000
  0.050865  0.029367  0.046029      1.000000
  0.101730  0.000000  0.046029      1.000000
 


--------------------------------------------------------------------------------------------------------




 Dimension of arrays:
   k-points           NKPTS =      8   k-points in BZ     NKDIM =      8   number of bands    NBANDS=    288
   number of dos      NEDOS =    301   number of ions     NIONS =     71
   non local maximal  LDIM  =      4   non local SUM 2l+1 LMDIM =      8
   total plane-waves  NPLWV = 200704
   max r-space proj   IRMAX =      1   max aug-charges    IRDMAX=   7581
   dimension x,y,z NGX =    56 NGY =   56 NGZ =   64
   dimension x,y,z NGXF=   112 NGYF=  112 NGZF=  128
   support grid    NGXF=   112 NGYF=  112 NGZF=  128
   ions per type =              24  47
   NGX,Y,Z   is equivalent  to a cutoff of   9.47,  9.47,  9.79 a.u.
   NGXF,Y,Z  is equivalent  to a cutoff of  18.94, 18.94, 19.59 a.u.

 SYSTEM =  SiO2                                    
 POSCAR =  Si24 O47                                

 Startparameter for this run:
   NWRITE =      2    write-flag & timer
   PREC   = normal    normal or accurate (medium, high low for compatibility)
   ISTART =      0    job   : 0-new  1-cont  2-samecut
   ICHARG =      2    charge: 1-file 2-atom 10-const
   ISPIN  =      1    spin polarized calculation?
   LNONCOLLINEAR =      F non collinear calculations
   LSORBIT =      F    spin-orbit coupling
   INIWAV =      1    electr: 0-lowe 1-rand  2-diag
   LASPH  =      F    aspherical Exc in radial PAW
 Electronic Relaxation 1
   ENCUT  =  550.0 eV  40.42 Ry    6.36 a.u.  18.80 18.80 20.77*2*pi/ulx,y,z
   ENINI  =  550.0     initial cutoff
   ENAUG  =  605.4 eV  augmentation charge cutoff
   NELM   =    200;   NELMIN=  2; NELMDL= -5     # of ELM steps 
   EDIFF  = 0.1E-05   stopping-criterion for ELM
   LREAL  =      F    real-space projection
   NLSPLINE    = F    spline interpolate recip. space projectors
   LCOMPAT=      F    compatible to vasp.4.4
   GGA_COMPAT  = T    GGA compatible to vasp.4.4-vasp.4.6
   LMAXPAW     = -100 max onsite density
   LMAXMIX     =    2 max onsite mixed and CHGCAR
   VOSKOWN=      0    Vosko Wilk Nusair interpolation
   ROPT   =    0.00000   0.00000
 Ionic relaxation
   EDIFFG = -.5E-01   stopping-criterion for IOM
   NSW    =      0    number of steps for IOM
   NBLOCK =      1;   KBLOCK =      1    inner block; outer block 
   IBRION =     -1    ionic relax: 0-MD 1-quasi-New 2-CG
   NFREE  =      1    steps in history (QN), initial steepest desc. (CG)
   ISIF   =      2    stress and relaxation
   IWAVPR =     10    prediction:  0-non 1-charg 2-wave 3-comb
   ISYM   =      2    0-nonsym 1-usesym 2-fastsym
   LCORR  =      T    Harris-Foulkes like correction to forces

   POTIM  = 0.5000    time-step for ionic-motion
   TEIN   =    0.0    initial temperature
   TEBEG  =    0.0;   TEEND  =   0.0 temperature during run
   SMASS  =  -3.00    Nose mass-parameter (am)
   estimated Nose-frequenzy (Omega)   =  0.10E-29 period in steps = 0.13E+47 mass=  -0.221E-26a.u.
   SCALEE = 1.0000    scale energy and forces
   NPACO  =    256;   APACO  = 10.0  distance and # of slots for P.C.
   PSTRESS=    0.0 pullay stress

  Mass of Ions in am
   POMASS =  28.09 16.00
  Ionic Valenz
   ZVAL   =   4.00  6.00
  Atomic Wigner-Seitz radii
   RWIGS  =  -1.00 -1.00
  virtual crystal weights 
   VCA    =   1.00  1.00
   NELECT =     378.0000    total number of electrons
   NUPDOWN=      -1.0000    fix difference up-down

 DOS related values:
   EMIN   =  10.00;   EMAX   =-10.00  energy-range for DOS
   EFERMI =   0.00
   ISMEAR =     0;   SIGMA  =   0.05  broadening in eV -4-tet -1-fermi 0-gaus

 Electronic relaxation 2 (details)
   IALGO  =     38    algorithm
   LDIAG  =      T    sub-space diagonalisation (order eigenvalues)
   LSUBROT=      F    optimize rotation matrix (better conditioning)
   TURBO    =      0    0=normal 1=particle mesh
   IRESTART =      0    0=no restart 2=restart with 2 vectors
   NREBOOT  =      0    no. of reboots
   NMIN     =      0    reboot dimension
   EREF     =   0.00    reference energy to select bands
   IMIX   =      4    mixing-type and parameters
     AMIX     =   0.20;   BMIX     =  1.00
     AMIX_MAG =   0.80;   BMIX_MAG =  1.00
     AMIN     =   0.10
     WC   =   100.;   INIMIX=   1;  MIXPRE=   1;  MAXMIX= -45

 Intra band minimization:
   WEIMIN = 0.0000     energy-eigenvalue tresh-hold
   EBREAK =  0.87E-09  absolut break condition
   DEPER  =   0.30     relativ break condition  

   TIME   =   0.40     timestep for ELM

  volume/ion in A,a.u.               =      12.80        86.40
  Fermi-wavevector in a.u.,A,eV,Ry     =   1.221941  2.309134 20.315401  1.493140
  Thomas-Fermi vector in A             =   2.357105
 
 Write flags
   LWAVE        =      T    write WAVECAR
   LDOWNSAMPLE  =      F    k-point downsampling of WAVECAR
   LCHARG       =      T    write CHGCAR
   LVTOT        =      T    write LOCPOT, total local potential
   LVHAR        =      F    write LOCPOT, Hartree potential only
   LELF         =      F    write electronic localiz. function (ELF)
   LORBIT       =     11    0 simple, 1 ext, 2 COOP (PROOUT), +10 PAW based schemes


 Dipole corrections
   LMONO  =      F    monopole corrections only (constant potential shift)
   LDIPOL =      F    correct potential (dipole corrections)
   IDIPOL =      0    1-x, 2-y, 3-z, 4-all directions 
   EPSILON=  1.0000000 bulk dielectric constant

 Exchange correlation treatment:
   GGA     =    --    GGA type
   LEXCH   =     8    internal setting for exchange type
   LIBXC   =     F    Libxc                    
   VOSKOWN =     0    Vosko Wilk Nusair interpolation
   LHFCALC =     F    Hartree Fock is set to
   LHFONE  =     F    Hartree Fock one center treatment
   AEXX    =    0.0000 exact exchange contribution

 Linear response parameters
   LEPSILON=     F    determine dielectric tensor
   LRPA    =     F    only Hartree local field effects (RPA)
   LNABLA  =     F    use nabla operator in PAW spheres
   LVEL    =     F    velocity operator in full k-point grid
   CSHIFT  =0.1000    complex shift for real part using Kramers Kronig
   OMEGAMAX=  -1.0    maximum frequency
   DEG_THRESHOLD= 0.2000000E-02 threshold for treating states as degnerate
   RTIME   =   -0.100 relaxation time in fs
  (WPLASMAI=    0.000 imaginary part of plasma frequency in eV, 0.658/RTIME)
   DFIELD  = 0.0000000 0.0000000 0.0000000 field for delta impulse in time
 
  Optional k-point grid parameters
   LKPOINTS_OPT  =     F    use optional k-point grid
   KPOINTS_OPT_MODE=     1    mode for optional k-point grid
 
 Orbital magnetization related:
   ORBITALMAG=     F  switch on orbital magnetization
   LCHIMAG   =     F  perturbation theory with respect to B field
   DQ        =  0.001000  dq finite difference perturbation B field
   LLRAUG    =     F  two centre corrections for induced B field



--------------------------------------------------------------------------------------------------------


 Static calculation
 charge density and potential will be updated during run
 non-spin polarized calculation
 Variant of blocked Davidson
 Davidson routine will perform the subspace rotation
 perform sub-space diagonalisation
    after iterative eigenvector-optimisation
 modified Broyden-mixing scheme, WC =      100.0
 initial mixing is a Kerker type mixing with AMIX =  0.2000 and BMIX =      1.0000
 Hartree-type preconditioning will be used
 using additional bands           99
 reciprocal scheme for non local part
 use partial core corrections
 calculate Harris-corrections to forces 
   (improved forces if not selfconsistent)
 use gradient corrections 
 use of overlap-Matrix (Vanderbilt PP)
 Gauss-broadening in eV      SIGMA  =   0.05


--------------------------------------------------------------------------------------------------------


  energy-cutoff  :      550.00
  volume of cell :      909.00
      direct lattice vectors                 reciprocal lattice vectors
     4.914966177 -8.512971136  0.000000000     0.101730100 -0.058733901  0.000000000
     4.914966177  8.512971136  0.000000000     0.101730100  0.058733901  0.000000000
     0.000000000  0.000000000 10.862602280     0.000000000  0.000000000  0.092058972

  length of vectors
     9.829932353  9.829932353 10.862602280     0.117467801  0.117467801  0.092058972


 
 k-points in units of 2pi/SCALE and weight: pymatgen with grid density = 1000 / numb
   0.00000000  0.00000000  0.00000000       0.125
   0.05086505 -0.02936695  0.00000000       0.125
   0.05086505  0.02936695  0.00000000       0.125
   0.10173010  0.00000000  0.00000000       0.125
   0.00000000  0.00000000  0.04602949       0.125
   0.05086505 -0.02936695  0.04602949       0.125
   0.05086505  0.02936695  0.04602949       0.125
   0.10173010  0.00000000  0.04602949       0.125
 
 k-points in reciprocal lattice and weights: pymatgen with grid density = 1000 / numb
   0.00000000  0.00000000  0.00000000       0.125
   0.50000000  0.00000000  0.00000000       0.125
   0.00000000  0.50000000  0.00000000       0.125
   0.50000000  0.50000000  0.00000000       0.125
   0.00000000  0.00000000  0.50000000       0.125
   0.50000000  0.00000000  0.50000000       0.125
   0.00000000  0.50000000  0.50000000       0.125
   0.50000000  0.50000000  0.50000000       0.125
 
 position of ions in fractional coordinates (direct lattice) 
   0.26554429  0.26554429  0.00000000
   0.26554429  0.26554429  0.50000000
   0.26554429  0.76554429  0.00000000
   0.26554429  0.76554429  0.50000000
   0.76554429  0.26554429  0.00000000
   0.76554429  0.26554429  0.50000000
   0.76554429  0.76554429  0.00000000
   0.76554429  0.76554429  0.50000000
   0.00000000  0.23445571  0.33333333
   0.00000000  0.23445571  0.83333333
   0.00000000  0.73445571  0.33333333
   0.00000000  0.73445571  0.83333333
   0.50000000  0.23445571  0.33333333
   0.50000000  0.23445571  0.83333333
   0.50000000  0.73445571  0.33333333
   0.50000000  0.73445571  0.83333333
   0.23445571  0.00000000  0.16666667
   0.23445571  0.00000000  0.66666667
   0.23445571  0.50000000  0.16666667
   0.23445571  0.50000000  0.66666667
   0.73445571  0.00000000  0.16666667
   0.73445571  0.00000000  0.66666667
   0.73445571  0.50000000  0.16666667
   0.73445571  0.50000000  0.66666667
   0.13461155  0.20669714  0.89244549
   0.13461155  0.70669714  0.39244549
   0.13461155  0.70669714  0.89244549
   0.63461155  0.20669714  0.39244549
   0.63461155  0.20669714  0.89244549
   0.63461155  0.70669714  0.39244549
   0.63461155  0.70669714  0.89244549
   0.29330286  0.42791441  0.05911216
   0.29330286  0.42791441  0.55911216
   0.29330286  0.92791441  0.05911216
   0.29330286  0.92791441  0.55911216
   0.79330286  0.42791441  0.05911216
   0.79330286  0.42791441  0.55911216
   0.79330286  0.92791441  0.05911216
   0.79330286  0.92791441  0.55911216
   0.07208559  0.36538845  0.22577882
   0.07208559  0.36538845  0.72577882
   0.07208559  0.86538845  0.22577882
   0.07208559  0.86538845  0.72577882
   0.57208559  0.36538845  0.22577882
   0.57208559  0.36538845  0.72577882
   0.57208559  0.86538845  0.22577882
   0.57208559  0.86538845  0.72577882
   0.20669714  0.13461155  0.10755451
   0.20669714  0.13461155  0.60755451
   0.20669714  0.63461155  0.10755451
   0.20669714  0.63461155  0.60755451
   0.70669714  0.13461155  0.10755451
   0.70669714  0.13461155  0.60755451
   0.70669714  0.63461155  0.10755451
   0.70669714  0.63461155  0.60755451
   0.36538845  0.07208559  0.27422118
   0.36538845  0.07208559  0.77422118
   0.36538845  0.57208559  0.27422118
   0.36538845  0.57208559  0.77422118
   0.86538845  0.07208559  0.27422118
   0.86538845  0.07208559  0.77422118
   0.86538845  0.57208559  0.27422118
   0.86538845  0.57208559  0.77422118
   0.42791441  0.29330286  0.44088784
   0.42791441  0.29330286  0.94088784
   0.42791441  0.79330286  0.44088784
   0.42791441  0.79330286  0.94088784
   0.92791441  0.29330286  0.44088784
   0.92791441  0.29330286  0.94088784
   0.92791441  0.79330286  0.44088784
   0.92791441  0.79330286  0.94088784
 
 position of ions in cartesian coordinates  (Angst):
   2.61028246 -0.00000000  0.00000000
   2.61028246 -0.00000000  5.43130114
   5.06776555  4.25648557  0.00000000
   5.06776555  4.25648557  5.43130114
   5.06776555 -4.25648557  0.00000000
   5.06776555 -4.25648557  5.43130114
   7.52524863  0.00000000  0.00000000
   7.52524863  0.00000000  5.43130114
   1.15234186  1.99591465  3.62086743
   1.15234186  1.99591465  9.05216857
   3.60982495  6.25240022  3.62086743
   3.60982495  6.25240022  9.05216857
   3.60982495 -2.26057092  3.62086743
   3.60982495 -2.26057092  9.05216857
   6.06730804  1.99591465  3.62086743
   6.06730804  1.99591465  9.05216857
   1.15234186 -1.99591465  1.81043371
   1.15234186 -1.99591465  7.24173485
   3.60982495  2.26057092  1.81043371
   3.60982495  2.26057092  7.24173485
   3.60982495 -6.25240022  1.81043371
   3.60982495 -6.25240022  7.24173485
   6.06730804 -1.99591465  1.81043371
   6.06730804 -1.99591465  7.24173485
   1.67752072  0.61366255  9.69428041
   4.13500380  4.87014811  4.26297927
   4.13500380  4.87014811  9.69428041
   4.13500380 -3.64282302  4.26297927
   4.13500380 -3.64282302  9.69428041
   6.59248689  0.61366255  4.26297927
   6.59248689  0.61366255  9.69428041
   3.54475846  1.14594428  0.64211185
   3.54475846  1.14594428  6.07341299
   6.00224155  5.40242985  0.64211185
   6.00224155  5.40242985  6.07341299
   6.00224155 -3.11054129  0.64211185
   6.00224155 -3.11054129  6.07341299
   8.45972464  1.14594428  0.64211185
   8.45972464  1.14594428  6.07341299
   2.15017009  2.49687874  2.45254556
   2.15017009  2.49687874  7.88384670
   4.60765317  6.75336431  2.45254556
   4.60765317  6.75336431  7.88384670
   4.60765317 -1.75960683  2.45254556
   4.60765317 -1.75960683  7.88384670
   7.06513626  2.49687874  2.45254556
   7.06513626  2.49687874  7.88384670
   1.67752072 -0.61366255  1.16832187
   1.67752072 -0.61366255  6.59962301
   4.13500380  3.64282302  1.16832187
   4.13500380  3.64282302  6.59962301
   4.13500380 -4.87014811  1.16832187
   4.13500380 -4.87014811  6.59962301
   6.59248689 -0.61366255  1.16832187
   6.59248689 -0.61366255  6.59962301
   2.15017009 -2.49687874  2.97875558
   2.15017009 -2.49687874  8.41005672
   4.60765317  1.75960683  2.97875558
   4.60765317  1.75960683  8.41005672
   4.60765317 -6.75336431  2.97875558
   4.60765317 -6.75336431  8.41005672
   7.06513626 -2.49687874  2.97875558
   7.06513626 -2.49687874  8.41005672
   3.54475846 -1.14594428  4.78918929
   3.54475846 -1.14594428 10.22049043
   6.00224155  3.11054129  4.78918929
   6.00224155  3.11054129 10.22049043
   6.00224155 -5.40242985  4.78918929
   6.00224155 -5.40242985 10.22049043
   8.45972464 -1.14594428  4.78918929
   8.45972464 -1.14594428 10.22049043
 


--------------------------------------------------------------------------------------------------------


 k-point   1 :   0.0000 0.0000 0.0000  plane waves:   26579
 k-point   2 :   0.5000 0.0000 0.0000  plane waves:   26614
 k-point   3 :   0.0000 0.5000 0.0000  plane waves:   26614
 k-point   4 :   0.5000 0.5000 0.0000  plane waves:   26614
 k-point   5 :   0.0000 0.0000 0.5000  plane waves:   26718
 k-point   6 :   0.5000 0.0000 0.5000  plane waves:   26636
 k-point   7 :   0.0000 0.5000 0.5000  plane waves:   26636
 k-point   8 :   0.5000 0.5000 0.5000  plane waves:   26636

 maximum and minimum number of plane-waves per node :     26718    26579

 maximum number of plane-waves:     26718
 maximum index in each direction: 
   IXMAX=   18   IYMAX=   18   IZMAX=   20
   IXMIN=  -19   IYMIN=  -19   IZMIN=  -21


 serial   3D FFT for wavefunctions
 parallel 3D FFT for charge:
    minimum data exchange during FFTs selected (reduces bandwidth)


 total amount of memory used by VASP MPI-rank0   109999. kBytes
=======================================================================

   base      :      30000. kBytes
   nonl-proj :      57853. kBytes
   fftplans  :       1721. kBytes
   grid      :       9701. kBytes
   one-center:        218. kBytes
   wavefun   :      10506. kBytes
 
     INWAV:  cpu time      0.0000: real time      0.0000
 Broyden mixing: mesh for mixing (old mesh)
   NGX = 37   NGY = 37   NGZ = 41
  (NGX  =112   NGY  =112   NGZ  =128)
  gives a total of  56129 points

 initial charge density was supplied:
 charge density of overlapping atoms calculated
 number of electron     378.0000000 magnetization 
 keeping initial charge density in first step


--------------------------------------------------------------------------------------------------------


 Maximum index for augmentation-charges          412 (set IRDMAX)


--------------------------------------------------------------------------------------------------------


 First call to EWALD:  gamma=   0.183
 Maximum number of real-space cells 3x 3x 3
 Maximum number of reciprocal cells 3x 3x 3

    FEWALD:  cpu time      0.0036: real time      0.0036


--------------------------------------- Iteration      1(   1)  ---------------------------------------


    POTLOK:  cpu time      0.0208: real time      0.0216
    SETDIJ:  cpu time      0.0025: real time      0.0025
     EDDAV:  cpu time      6.0358: real time      6.0708
       DOS:  cpu time      0.0028: real time      0.0028
    --------------------------------------------
      LOOP:  cpu time      6.0618: real time      6.0977

 eigenvalue-minimisations  :  4608
 total energy-change (2. order) : 0.1942858E+04  (-0.2039848E+05)
 number of electron     378.0000000 magnetization 
 augmentation part      378.0000000 magnetization 

 Free energy of the ion-electron system (eV)
  ---------------------------------------------------
  alpha Z        PSCENC =       536.62291721
  Ewald energy   TEWEN  =    -14668.27296387
  -Hartree energ DENC   =     -7487.69458478
  -exchange      EXHF   =         0.00000000
  -V(xc)+E(xc)   XCENC  =      1103.28678992
  PAW double counting   =     18402.79660460   -18065.09536210
  entropy T*S    EENTRO =        -0.01365200
  eigenvalues    EBANDS =      -673.26005347
  atomic energy  EATOM  =     22794.48802020
  Solvation  Ediel_sol  =         0.00000000
  ---------------------------------------------------
  free energy    TOTEN  =      1942.85771571 eV

  energy without entropy =     1942.87136771  energy(sigma->0) =     1942.86454171


--------------------------------------------------------------------------------------------------------




--------------------------------------- Iteration      1(   2)  ---------------------------------------


     EDDAV:  cpu time     10.8219: real time     10.8724
       DOS:  cpu time      0.0080: real time      0.0080
    --------------------------------------------
      LOOP:  cpu time     10.8299: real time     10.8804

 eigenvalue-minimisations  :  6720
 total energy-change (2. order) :-0.2459559E+04  (-0.2382966E+04)
 number of electron     378.0000000 magnetization 
 augmentation part      378.0000000 magnetization 

 Free energy of the ion-electron system (eV)
  ---------------------------------------------------
  alpha Z        PSCENC =       536.62291721
  Ewald energy   TEWEN  =    -14668.27296387
  -Hartree energ DENC   =     -7487.69458478
  -exchange      EXHF   =         0.00000000
  -V(xc)+E(xc)   XCENC  =      1103.28678992
  PAW double counting   =     18402.79660460   -18065.09536210
  entropy T*S    EENTRO =        -0.00000000
  eigenvalues    EBANDS =     -3132.83257646
  atomic energy  EATOM  =     22794.48802020
  Solvation  Ediel_sol  =         0.00000000
  ---------------------------------------------------
  free energy    TOTEN  =      -516.70115529 eV

  energy without entropy =     -516.70115529  energy(sigma->0) =     -516.70115529


--------------------------------------------------------------------------------------------------------




--------------------------------------- Iteration      1(   3)  ---------------------------------------


     EDDAV:  cpu time      7.5640: real time      7.6045
       DOS:  cpu time      0.0062: real time      0.0062
    --------------------------------------------
      LOOP:  cpu time      7.5702: real time      7.6107

 eigenvalue-minimisations  :  6144
 total energy-change (2. order) :-0.1142955E+03  (-0.1139483E+03)
 number of electron     378.0000000 magnetization 
 augmentation part      378.0000000 magnetization 

 Free energy of the ion-electron system (eV)
  ---------------------------------------------------
  alpha Z        PSCENC =       536.62291721
  Ewald energy   TEWEN  =    -14668.27296387
  -Hartree energ DENC   =     -7487.69458478
  -exchange      EXHF   =         0.00000000
  -V(xc)+E(xc)   XCENC  =      1103.28678992
  PAW double counting   =     18402.79660460   -18065.09536210
  entropy T*S    EENTRO =        -0.00000000
  eigenvalues    EBANDS =     -3247.12811137
  atomic energy  EATOM  =     22794.48802020
  Solvation  Ediel_sol  =         0.00000000
  ---------------------------------------------------
  free energy    TOTEN  =      -630.99669019 eV

  energy without entropy =     -630.99669019  energy(sigma->0) =     -630.99669019


--------------------------------------------------------------------------------------------------------




--------------------------------------- Iteration      1(   4)  ---------------------------------------


     EDDAV:  cpu time      5.7121: real time      5.7438
       DOS:  cpu time      0.0064: real time      0.0064
    --------------------------------------------
      LOOP:  cpu time      5.7184: real time      5.7502

 eigenvalue-minimisations  :  5280
 total energy-change (2. order) :-0.9837290E+00  (-0.9836293E+00)
 number of electron     378.0000000 magnetization 
 augmentation part      378.0000000 magnetization 

 Free energy of the ion-electron system (eV)
  ---------------------------------------------------
  alpha Z        PSCENC =       536.62291721
  Ewald energy   TEWEN  =    -14668.27296387
  -Hartree energ DENC   =     -7487.69458478
  -exchange      EXHF   =         0.00000000
  -V(xc)+E(xc)   XCENC  =      1103.28678992
  PAW double counting   =     18402.79660460   -18065.09536210
  entropy T*S    EENTRO =        -0.00000000
  eigenvalues    EBANDS =     -3248.11184041
  atomic energy  EATOM  =     22794.48802020
  Solvation  Ediel_sol  =         0.00000000
  ---------------------------------------------------
  free energy    TOTEN  =      -631.98041924 eV

  energy without entropy =     -631.98041924  energy(sigma->0) =     -631.98041924


--------------------------------------------------------------------------------------------------------




--------------------------------------- Iteration      1(   5)  ---------------------------------------


     EDDAV:  cpu time      7.6361: real time      7.6777
       DOS:  cpu time      0.0068: real time      0.0068
    CHARGE:  cpu time      0.0485: real time      0.0493
    MIXING:  cpu time      0.0018: real time      0.0020
    --------------------------------------------
      LOOP:  cpu time      7.6932: real time      7.7358

 eigenvalue-minimisations  :  6624
 total energy-change (2. order) :-0.1116132E-01  (-0.1116109E-01)
 number of electron     378.0000062 magnetization 
 augmentation part       34.8737724 magnetization 

 Broyden mixing:
  rms(total) = 0.71285E+01    rms(broyden)= 0.71277E+01
  rms(prec ) = 0.82288E+01
  weight for this iteration     100.00

 Free energy of the ion-electron system (eV)
  ---------------------------------------------------
  alpha Z        PSCENC =       536.62291721
  Ewald energy   TEWEN  =    -14668.27296387
  -Hartree energ DENC   =     -7487.69458478
  -exchange      EXHF   =         0.00000000
  -V(xc)+E(xc)   XCENC  =      1103.28678992
  PAW double counting   =     18402.79660460   -18065.09536210
  entropy T*S    EENTRO =        -0.00000000
  eigenvalues    EBANDS =     -3248.12300173
  atomic energy  EATOM  =     22794.48802020
  Solvation  Ediel_sol  =         0.00000000
  ---------------------------------------------------
  free energy    TOTEN  =      -631.99158056 eV

  energy without entropy =     -631.99158056  energy(sigma->0) =     -631.99158056


--------------------------------------------------------------------------------------------------------




--------------------------------------- Iteration      1(   6)  ---------------------------------------


    POTLOK:  cpu time      0.0146: real time      0.0150
    SETDIJ:  cpu time      0.0017: real time      0.0017
     EDDAV:  cpu time      6.9518: real time      6.9888
       DOS:  cpu time      0.0066: real time      0.0067
    CHARGE:  cpu time      0.0513: real time      0.0518
    MIXING:  cpu time      0.0006: real time      0.0008
    --------------------------------------------
      LOOP:  cpu time      7.0266: real time      7.0647

 eigenvalue-minimisations  :  6144
 total energy-change (2. order) : 0.5436829E+02  (-0.5916833E+01)
 number of electron     378.0000057 magnetization 
 augmentation part       31.5146742 magnetization 

 Broyden mixing:
  rms(total) = 0.49330E+01    rms(broyden)= 0.49330E+01
  rms(prec ) = 0.54482E+01
  weight for this iteration     100.00

 eigenvalues of (default mixing * dielectric matrix)
  average eigenvalue GAMMA=   2.3128
  2.3128

 Free energy of the ion-electron system (eV)
  ---------------------------------------------------
  alpha Z        PSCENC =       536.62291721
  Ewald energy   TEWEN  =    -14668.27296387
  -Hartree energ DENC   =     -7906.72072755
  -exchange      EXHF   =         0.00000000
  -V(xc)+E(xc)   XCENC  =      1131.31480115
  PAW double counting   =     24315.31410040   -23985.94225966
  entropy T*S    EENTRO =        -0.00000000
  eigenvalues    EBANDS =     -2794.42717604
  atomic energy  EATOM  =     22794.48802020
  Solvation  Ediel_sol  =         0.00000000
  ---------------------------------------------------
  free energy    TOTEN  =      -577.62328815 eV

  energy without entropy =     -577.62328815  energy(sigma->0) =     -577.62328815


--------------------------------------------------------------------------------------------------------




--------------------------------------- Iteration      1(   7)  ---------------------------------------


    POTLOK:  cpu time      0.0135: real time      0.0139
    SETDIJ:  cpu time      0.0016: real time      0.0016
     EDDAV:  cpu time      7.5292: real time      7.5759
       DOS:  cpu time      0.0055: real time      0.0055
    CHARGE:  cpu time      0.0447: real time      0.0451
    MIXING:  cpu time      0.0006: real time      0.0006
    --------------------------------------------
      LOOP:  cpu time      7.5952: real time      7.6426

 eigenvalue-minimisations  :  6144
 total energy-change (2. order) : 0.2029343E+02  (-0.9400142E+01)
 number of electron     378.0000052 magnetization 
 augmentation part       27.3521475 magnetization 

 Broyden mixing:
  rms(total) = 0.21036E+01    rms(broyden)= 0.21030E+01
  rms(prec ) = 0.21932E+01
  weight for this iteration     100.00

 eigenvalues of (default mixing * dielectric matrix)
  average eigenvalue GAMMA=   2.2464
  2.2464  2.2464

 Free energy of the ion-electron system (eV)
  ---------------------------------------------------
  alpha Z        PSCENC =       536.62291721
  Ewald energy   TEWEN  =    -14668.27296387
  -Hartree energ DENC   =     -8453.26073324
  -exchange      EXHF   =         0.00000000
  -V(xc)+E(xc)   XCENC  =      1167.91253222
  PAW double counting   =     42130.87650586   -41811.59127561
  entropy T*S    EENTRO =        -0.00000000
  eigenvalues    EBANDS =     -2254.10486223
  atomic energy  EATOM  =     22794.48802020
  Solvation  Ediel_sol  =         0.00000000
  ---------------------------------------------------
  free energy    TOTEN  =      -557.32985946 eV

  energy without entropy =     -557.32985946  energy(sigma->0) =     -557.32985946


--------------------------------------------------------------------------------------------------------




--------------------------------------- Iteration      1(   8)  ---------------------------------------


    POTLOK:  cpu time      0.0147: real time      0.0151
    SETDIJ:  cpu time      0.0016: real time      0.0016
     EDDAV:  cpu time      5.6766: real time      5.7073
       DOS:  cpu time      0.0045: real time      0.0045
    CHARGE:  cpu time      0.0549: real time      0.0554
    MIXING:  cpu time      0.0005: real time      0.0006
    --------------------------------------------
      LOOP:  cpu time      5.7527: real time      5.7845

 eigenvalue-minimisations  :  5280
 total energy-change (2. order) : 0.4972329E-01  (-0.3520239E+00)
 number of electron     378.0000052 magnetization 
 augmentation part       27.8732866 magnetization 

 Broyden mixing:
  rms(total) = 0.89981E+00    rms(broyden)= 0.89981E+00
  rms(prec ) = 0.97825E+00
  weight for this iteration     100.00

 eigenvalues of (default mixing * dielectric matrix)
  average eigenvalue GAMMA=   2.5623
  4.3640  1.2592  2.0637

 Free energy of the ion-electron system (eV)
  ---------------------------------------------------
  alpha Z        PSCENC =       536.62291721
  Ewald energy   TEWEN  =    -14668.27296387
  -Hartree energ DENC   =     -8422.68712731
  -exchange      EXHF   =         0.00000000
  -V(xc)+E(xc)   XCENC  =      1166.17184969
  PAW double counting   =     51651.07067416   -51330.30244112
  entropy T*S    EENTRO =        -0.00000000
  eigenvalues    EBANDS =     -2284.37106512
  atomic energy  EATOM  =     22794.48802020
  Solvation  Ediel_sol  =         0.00000000
  ---------------------------------------------------
  free energy    TOTEN  =      -557.28013617 eV

  energy without entropy =     -557.28013617  energy(sigma->0) =     -557.28013617


--------------------------------------------------------------------------------------------------------




--------------------------------------- Iteration      1(   9)  ---------------------------------------


    POTLOK:  cpu time      0.0121: real time      0.0124
    SETDIJ:  cpu time      0.0015: real time      0.0015
     EDDAV:  cpu time      7.1911: real time      7.2286
       DOS:  cpu time      0.0056: real time      0.0056
    CHARGE:  cpu time      0.0553: real time      0.0557
    MIXING:  cpu time      0.0005: real time      0.0005
    --------------------------------------------
      LOOP:  cpu time      7.2662: real time      7.3044

 eigenvalue-minimisations  :  6144
 total energy-change (2. order) : 0.3793939E-03  (-0.5646760E-01)
 number of electron     378.0000052 magnetization 
 augmentation part       27.7289402 magnetization 

 Broyden mixing:
  rms(total) = 0.21167E+00    rms(broyden)= 0.21167E+00
  rms(prec ) = 0.22640E+00
  weight for this iteration     100.00

 eigenvalues of (default mixing * dielectric matrix)
  average eigenvalue GAMMA=   2.4349
  5.0440  0.9419  1.8769  1.8769

 Free energy of the ion-electron system (eV)
  ---------------------------------------------------
  alpha Z        PSCENC =       536.62291721
  Ewald energy   TEWEN  =    -14668.27296387
  -Hartree energ DENC   =     -8505.96131354
  -exchange      EXHF   =         0.00000000
  -V(xc)+E(xc)   XCENC  =      1172.24724151
  PAW double counting   =     63825.77222176   -63505.96166378
  entropy T*S    EENTRO =        -0.00000000
  eigenvalues    EBANDS =     -2206.21421627
  atomic energy  EATOM  =     22794.48802020
  Solvation  Ediel_sol  =         0.00000000
  ---------------------------------------------------
  free energy    TOTEN  =      -557.27975678 eV

  energy without entropy =     -557.27975678  energy(sigma->0) =     -557.27975678


--------------------------------------------------------------------------------------------------------




--------------------------------------- Iteration      1(  10)  ---------------------------------------


    POTLOK:  cpu time      0.0126: real time      0.0130
    SETDIJ:  cpu time      0.0015: real time      0.0015
     EDDAV:  cpu time      9.4719: real time      9.5156
       DOS:  cpu time      0.0052: real time      0.0052
    CHARGE:  cpu time      0.0614: real time      0.0619
    MIXING:  cpu time      0.0007: real time      0.0007
    --------------------------------------------
      LOOP:  cpu time      9.5533: real time      9.5979

 eigenvalue-minimisations  :  5856
 total energy-change (2. order) :-0.3954463E-01  (-0.9967953E-02)
 number of electron     378.0000052 magnetization 
 augmentation part       27.6225417 magnetization 

 Broyden mixing:
  rms(total) = 0.23475E+00    rms(broyden)= 0.23475E+00
  rms(prec ) = 0.23801E+00
  weight for this iteration     100.00

 eigenvalues of (default mixing * dielectric matrix)
  average eigenvalue GAMMA=   2.5648
  5.1221  3.5837  2.0104  1.0538  1.0538

 Free energy of the ion-electron system (eV)
  ---------------------------------------------------
  alpha Z        PSCENC =       536.62291721
  Ewald energy   TEWEN  =    -14668.27296387
  -Hartree energ DENC   =     -8529.54053923
  -exchange      EXHF   =         0.00000000
  -V(xc)+E(xc)   XCENC  =      1173.92805524
  PAW double counting   =     65042.55137120   -64723.11998895
  entropy T*S    EENTRO =        -0.00000000
  eigenvalues    EBANDS =     -2183.97617320
  atomic energy  EATOM  =     22794.48802020
  Solvation  Ediel_sol  =         0.00000000
  ---------------------------------------------------
  free energy    TOTEN  =      -557.31930141 eV

  energy without entropy =     -557.31930141  energy(sigma->0) =     -557.31930141


--------------------------------------------------------------------------------------------------------




--------------------------------------- Iteration      1(  11)  ---------------------------------------


    POTLOK:  cpu time      0.0128: real time      0.0132
    SETDIJ:  cpu time      0.0016: real time      0.0016
     EDDAV:  cpu time      7.8542: real time      7.9022
       DOS:  cpu time      0.0057: real time      0.0057
    CHARGE:  cpu time      0.0589: real time      0.0594
    MIXING:  cpu time      0.0007: real time      0.0007
    --------------------------------------------
      LOOP:  cpu time      7.9339: real time      7.9828

 eigenvalue-minimisations  :  6144
 total energy-change (2. order) :-0.1270044E-01  (-0.1795915E-02)
 number of electron     378.0000052 magnetization 
 augmentation part       27.6745868 magnetization 

 Broyden mixing:
  rms(total) = 0.59020E-01    rms(broyden)= 0.59018E-01
  rms(prec ) = 0.60527E-01
  weight for this iteration     100.00

 eigenvalues of (default mixing * dielectric matrix)
  average eigenvalue GAMMA=   2.5239
  5.1223  4.3723  2.0217  0.9795  1.1869  1.4610

 Free energy of the ion-electron system (eV)
  ---------------------------------------------------
  alpha Z        PSCENC =       536.62291721
  Ewald energy   TEWEN  =    -14668.27296387
  -Hartree energ DENC   =     -8526.42635915
  -exchange      EXHF   =         0.00000000
  -V(xc)+E(xc)   XCENC  =      1173.67269095
  PAW double counting   =     62785.83192202   -62466.36481625
  entropy T*S    EENTRO =        -0.00000000
  eigenvalues    EBANDS =     -2186.88341296
  atomic energy  EATOM  =     22794.48802020
  Solvation  Ediel_sol  =         0.00000000
  ---------------------------------------------------
  free energy    TOTEN  =      -557.33200185 eV

  energy without entropy =     -557.33200185  energy(sigma->0) =     -557.33200185


--------------------------------------------------------------------------------------------------------




--------------------------------------- Iteration      1(  12)  ---------------------------------------


    POTLOK:  cpu time      0.0134: real time      0.0138
    SETDIJ:  cpu time      0.0016: real time      0.0016
     EDDAV:  cpu time      6.9542: real time      6.9903
       DOS:  cpu time      0.0053: real time      0.0053
    CHARGE:  cpu time      0.0586: real time      0.0591
    MIXING:  cpu time      0.0007: real time      0.0007
    --------------------------------------------
      LOOP:  cpu time      7.0338: real time      7.0707

 eigenvalue-minimisations  :  6144
 total energy-change (2. order) :-0.2884509E-02  (-0.1777025E-03)
 number of electron     378.0000052 magnetization 
 augmentation part       27.6740815 magnetization 

 Broyden mixing:
  rms(total) = 0.12135E-01    rms(broyden)= 0.12135E-01
  rms(prec ) = 0.13929E-01
  weight for this iteration     100.00

 eigenvalues of (default mixing * dielectric matrix)
  average eigenvalue GAMMA=   2.5779
  5.6238  4.8705  2.1785  2.1785  0.9986  1.0976  1.0976

 Free energy of the ion-electron system (eV)
  ---------------------------------------------------
  alpha Z        PSCENC =       536.62291721
  Ewald energy   TEWEN  =    -14668.27296387
  -Hartree energ DENC   =     -8527.59422721
  -exchange      EXHF   =         0.00000000
  -V(xc)+E(xc)   XCENC  =      1173.73291992
  PAW double counting   =     62102.42573524   -61782.97216074
  entropy T*S    EENTRO =        -0.00000000
  eigenvalues    EBANDS =     -2185.76512711
  atomic energy  EATOM  =     22794.48802020
  Solvation  Ediel_sol  =         0.00000000
  ---------------------------------------------------
  free energy    TOTEN  =      -557.33488636 eV

  energy without entropy =     -557.33488636  energy(sigma->0) =     -557.33488636


--------------------------------------------------------------------------------------------------------




--------------------------------------- Iteration      1(  13)  ---------------------------------------


    POTLOK:  cpu time      0.0132: real time      0.0136
    SETDIJ:  cpu time      0.0017: real time      0.0017
     EDDAV:  cpu time      7.0452: real time      7.0820
       DOS:  cpu time      0.0054: real time      0.0054
    CHARGE:  cpu time      0.0528: real time      0.0532
    MIXING:  cpu time      0.0006: real time      0.0006
    --------------------------------------------
      LOOP:  cpu time      7.1189: real time      7.1566

 eigenvalue-minimisations  :  6144
 total energy-change (2. order) :-0.1106714E-02  (-0.1819050E-03)
 number of electron     378.0000052 magnetization 
 augmentation part       27.6861114 magnetization 

 Broyden mixing:
  rms(total) = 0.25730E-01    rms(broyden)= 0.25729E-01
  rms(prec ) = 0.26188E-01
  weight for this iteration     100.00

 eigenvalues of (default mixing * dielectric matrix)
  average eigenvalue GAMMA=   2.4484
  5.7383  4.8579  1.9034  1.9214  1.9214  1.3133  0.9757  0.9559

 Free energy of the ion-electron system (eV)
  ---------------------------------------------------
  alpha Z        PSCENC =       536.62291721
  Ewald energy   TEWEN  =    -14668.27296387
  -Hartree energ DENC   =     -8527.02594485
  -exchange      EXHF   =         0.00000000
  -V(xc)+E(xc)   XCENC  =      1173.69012122
  PAW double counting   =     61819.67738022   -61500.18332778
  entropy T*S    EENTRO =        -0.00000000
  eigenvalues    EBANDS =     -2186.33219542
  atomic energy  EATOM  =     22794.48802020
  Solvation  Ediel_sol  =         0.00000000
  ---------------------------------------------------
  free energy    TOTEN  =      -557.33599307 eV

  energy without entropy =     -557.33599307  energy(sigma->0) =     -557.33599307


--------------------------------------------------------------------------------------------------------




--------------------------------------- Iteration      1(  14)  ---------------------------------------


    POTLOK:  cpu time      0.0129: real time      0.0133
    SETDIJ:  cpu time      0.0016: real time      0.0016
     EDDAV:  cpu time      7.6034: real time      7.6427
       DOS:  cpu time      0.0058: real time      0.0058
    CHARGE:  cpu time      0.0543: real time      0.0548
    MIXING:  cpu time      0.0006: real time      0.0006
    --------------------------------------------
      LOOP:  cpu time      7.6785: real time      7.7187

 eigenvalue-minimisations  :  6720
 total energy-change (2. order) :-0.1974891E-04  (-0.2208771E-04)
 number of electron     378.0000052 magnetization 
 augmentation part       27.6852119 magnetization 

 Broyden mixing:
  rms(total) = 0.22955E-01    rms(broyden)= 0.22955E-01
  rms(prec ) = 0.23284E-01
  weight for this iteration     100.00

 eigenvalues of (default mixing * dielectric matrix)
  average eigenvalue GAMMA=   2.4097
  5.6524  4.9381  2.4978  2.4978  1.7364  1.4244  0.9854  0.9777  0.9777

 Free energy of the ion-electron system (eV)
  ---------------------------------------------------
  alpha Z        PSCENC =       536.62291721
  Ewald energy   TEWEN  =    -14668.27296387
  -Hartree energ DENC   =     -8527.22762076
  -exchange      EXHF   =         0.00000000
  -V(xc)+E(xc)   XCENC  =      1173.70420735
  PAW double counting   =     61857.32361279   -61537.82751115
  entropy T*S    EENTRO =        -0.00000000
  eigenvalues    EBANDS =     -2186.14667459
  atomic energy  EATOM  =     22794.48802020
  Solvation  Ediel_sol  =         0.00000000
  ---------------------------------------------------
  free energy    TOTEN  =      -557.33601282 eV

  energy without entropy =     -557.33601282  energy(sigma->0) =     -557.33601282


--------------------------------------------------------------------------------------------------------




--------------------------------------- Iteration      1(  15)  ---------------------------------------


    POTLOK:  cpu time      0.0133: real time      0.0136
    SETDIJ:  cpu time      0.0017: real time      0.0017
     EDDAV:  cpu time      7.2566: real time      7.3009
       DOS:  cpu time      0.0053: real time      0.0054
    CHARGE:  cpu time      0.0458: real time      0.0461
    MIXING:  cpu time      0.0008: real time      0.0008
    --------------------------------------------
      LOOP:  cpu time      7.3235: real time      7.3685

 eigenvalue-minimisations  :  6144
 total energy-change (2. order) : 0.1132743E-04  (-0.1649029E-04)
 number of electron     378.0000052 magnetization 
 augmentation part       27.6805340 magnetization 

 Broyden mixing:
  rms(total) = 0.67041E-02    rms(broyden)= 0.67039E-02
  rms(prec ) = 0.68159E-02
  weight for this iteration     100.00

 eigenvalues of (default mixing * dielectric matrix)
  average eigenvalue GAMMA=   2.4185
  5.6643  5.0386  4.2598  2.0692  1.8897  1.1903  0.9771  0.9771  1.0596  1.0596

 Free energy of the ion-electron system (eV)
  ---------------------------------------------------
  alpha Z        PSCENC =       536.62291721
  Ewald energy   TEWEN  =    -14668.27296387
  -Hartree energ DENC   =     -8527.69416248
  -exchange      EXHF   =         0.00000000
  -V(xc)+E(xc)   XCENC  =      1173.73758592
  PAW double counting   =     62042.84674939   -61723.33874929
  entropy T*S    EENTRO =        -0.00000000
  eigenvalues    EBANDS =     -2185.72539858
  atomic energy  EATOM  =     22794.48802020
  Solvation  Ediel_sol  =         0.00000000
  ---------------------------------------------------
  free energy    TOTEN  =      -557.33600150 eV

  energy without entropy =     -557.33600150  energy(sigma->0) =     -557.33600150


--------------------------------------------------------------------------------------------------------




--------------------------------------- Iteration      1(  16)  ---------------------------------------


    POTLOK:  cpu time      0.0137: real time      0.0140
    SETDIJ:  cpu time      0.0015: real time      0.0015
     EDDAV:  cpu time      6.9718: real time      7.0085
       DOS:  cpu time      0.0053: real time      0.0054
    CHARGE:  cpu time      0.0390: real time      0.0393
    MIXING:  cpu time      0.0007: real time      0.0007
    --------------------------------------------
      LOOP:  cpu time      7.0320: real time      7.0693

 eigenvalue-minimisations  :  6144
 total energy-change (2. order) :-0.1262105E-04  (-0.4533179E-05)
 number of electron     378.0000052 magnetization 
 augmentation part       27.6783938 magnetization 

 Broyden mixing:
  rms(total) = 0.12816E-02    rms(broyden)= 0.12813E-02
  rms(prec ) = 0.13470E-02
  weight for this iteration     100.00

 eigenvalues of (default mixing * dielectric matrix)
  average eigenvalue GAMMA=   2.4036
  5.6628  5.0708  4.4613  2.0386  2.0386  1.8955  1.2938  1.0225  0.9341  1.0107
  1.0107

 Free energy of the ion-electron system (eV)
  ---------------------------------------------------
  alpha Z        PSCENC =       536.62291721
  Ewald energy   TEWEN  =    -14668.27296387
  -Hartree energ DENC   =     -8527.94801435
  -exchange      EXHF   =         0.00000000
  -V(xc)+E(xc)   XCENC  =      1173.75569627
  PAW double counting   =     62128.50116537   -61808.98870678
  entropy T*S    EENTRO =        -0.00000000
  eigenvalues    EBANDS =     -2185.49412817
  atomic energy  EATOM  =     22794.48802020
  Solvation  Ediel_sol  =         0.00000000
  ---------------------------------------------------
  free energy    TOTEN  =      -557.33601412 eV

  energy without entropy =     -557.33601412  energy(sigma->0) =     -557.33601412


--------------------------------------------------------------------------------------------------------




--------------------------------------- Iteration      1(  17)  ---------------------------------------


    POTLOK:  cpu time      0.0130: real time      0.0134
    SETDIJ:  cpu time      0.0015: real time      0.0015
     EDDAV:  cpu time      6.7629: real time      6.7982
       DOS:  cpu time      0.0056: real time      0.0056
    CHARGE:  cpu time      0.0527: real time      0.0531
    MIXING:  cpu time      0.0010: real time      0.0010
    --------------------------------------------
      LOOP:  cpu time      6.8368: real time      6.8728

 eigenvalue-minimisations  :  6048
 total energy-change (2. order) :-0.2588575E-05  (-0.1837328E-06)
 number of electron     378.0000052 magnetization 
 augmentation part       27.6783319 magnetization 

 Broyden mixing:
  rms(total) = 0.10475E-02    rms(broyden)= 0.10475E-02
  rms(prec ) = 0.10904E-02
  weight for this iteration     100.00

 eigenvalues of (default mixing * dielectric matrix)
  average eigenvalue GAMMA=   2.4524
  5.6882  5.4421  4.6360  3.3042  2.0809  1.7383  1.3489  0.9768  0.9768  1.0276
  1.1045  1.1045

 Free energy of the ion-electron system (eV)
  ---------------------------------------------------
  alpha Z        PSCENC =       536.62291721
  Ewald energy   TEWEN  =    -14668.27296387
  -Hartree energ DENC   =     -8527.98952226
  -exchange      EXHF   =         0.00000000
  -V(xc)+E(xc)   XCENC  =      1173.75795983
  PAW double counting   =     62125.68548886   -61806.17532743
  entropy T*S    EENTRO =        -0.00000000
  eigenvalues    EBANDS =     -2185.45258926
  atomic energy  EATOM  =     22794.48802020
  Solvation  Ediel_sol  =         0.00000000
  ---------------------------------------------------
  free energy    TOTEN  =      -557.33601671 eV

  energy without entropy =     -557.33601671  energy(sigma->0) =     -557.33601671


--------------------------------------------------------------------------------------------------------




--------------------------------------- Iteration      1(  18)  ---------------------------------------


    POTLOK:  cpu time      0.0139: real time      0.0142
    SETDIJ:  cpu time      0.0016: real time      0.0016
     EDDAV:  cpu time      9.6828: real time      9.7285
       DOS:  cpu time      0.0054: real time      0.0054
    CHARGE:  cpu time      0.0408: real time      0.0410
    MIXING:  cpu time      0.0008: real time      0.0008
    --------------------------------------------
      LOOP:  cpu time      9.7452: real time      9.7916

 eigenvalue-minimisations  :  6144
 total energy-change (2. order) :-0.1567929E-05  (-0.1177761E-06)
 number of electron     378.0000052 magnetization 
 augmentation part       27.6783759 magnetization 

 Broyden mixing:
  rms(total) = 0.77079E-03    rms(broyden)= 0.77078E-03
  rms(prec ) = 0.79436E-03
  weight for this iteration     100.00

 eigenvalues of (default mixing * dielectric matrix)
  average eigenvalue GAMMA=   2.4214
  5.9892  5.3223  4.8100  3.4621  2.0977  1.7618  1.7618  1.1637  1.1637  1.0308
  1.0308  1.0080  0.8762

 Free energy of the ion-electron system (eV)
  ---------------------------------------------------
  alpha Z        PSCENC =       536.62291721
  Ewald energy   TEWEN  =    -14668.27296387
  -Hartree energ DENC   =     -8528.01475008
  -exchange      EXHF   =         0.00000000
  -V(xc)+E(xc)   XCENC  =      1173.75904951
  PAW double counting   =     62122.96636036   -61803.45789431
  entropy T*S    EENTRO =        -0.00000000
  eigenvalues    EBANDS =     -2185.42675730
  atomic energy  EATOM  =     22794.48802020
  Solvation  Ediel_sol  =         0.00000000
  ---------------------------------------------------
  free energy    TOTEN  =      -557.33601827 eV

  energy without entropy =     -557.33601827  energy(sigma->0) =     -557.33601827


--------------------------------------------------------------------------------------------------------




--------------------------------------- Iteration      1(  19)  ---------------------------------------


    POTLOK:  cpu time      0.0133: real time      0.0138
    SETDIJ:  cpu time      0.0021: real time      0.0021
     EDDAV:  cpu time      6.8145: real time      6.8568
       DOS:  cpu time      0.0059: real time      0.0060
    --------------------------------------------
      LOOP:  cpu time      6.8358: real time      6.8787

 eigenvalue-minimisations  :  5280
 total energy-change (2. order) :-0.1007538E-06  (-0.5043699E-07)
 number of electron     378.0000052 magnetization 
 augmentation part       27.6783759 magnetization 

 Free energy of the ion-electron system (eV)
  ---------------------------------------------------
  alpha Z        PSCENC =       536.62291721
  Ewald energy   TEWEN  =    -14668.27296387
  -Hartree energ DENC   =     -8528.00670610
  -exchange      EXHF   =         0.00000000
  -V(xc)+E(xc)   XCENC  =      1173.75832459
  PAW double counting   =     62119.40111268   -61799.89304668
  entropy T*S    EENTRO =        -0.00000000
  eigenvalues    EBANDS =     -2185.43367642
  atomic energy  EATOM  =     22794.48802020
  Solvation  Ediel_sol  =         0.00000000
  ---------------------------------------------------
  free energy    TOTEN  =      -557.33601837 eV

  energy without entropy =     -557.33601837  energy(sigma->0) =     -557.33601837


--------------------------------------------------------------------------------------------------------




 average (electrostatic) potential at core
  the test charge radii are     0.9892  0.7215
  (the norm of the test charge is              1.0000)
       1 -86.5632       2 -86.3596       3 -86.5564       4 -86.5396       5 -86.5572
       6 -86.5143       7 -86.5556       8 -86.5488       9 -86.3185      10 -86.5360
      11 -86.5665      12 -86.5530      13 -86.6010      14 -86.5586      15 -86.5411
      16 -86.5396      17 -86.5870      18 -86.5666      19 -86.5493      20 -86.5001
      21 -86.5707      22 -86.5335      23 -86.5642      24 -86.5463      25 -72.4845
      26 -72.4818      27 -72.4867      28 -72.4965      29 -72.4901      30 -72.4810
      31 -72.4823      32 -72.4867      33 -72.4020      34 -72.5035      35 -72.4882
      36 -72.4948      37 -72.4725      38 -72.4938      39 -72.4677      40 -72.5280
      41 -72.4446      42 -72.5251      43 -72.4899      44 -72.5095      45 -72.4878
      46 -72.4924      47 -72.4723      48 -72.5256      49 -72.5623      50 -72.4895
      51 -72.4523      52 -72.4999      53 -72.4617      54 -72.4933      55 -72.4817
      56 -72.5367      57 -72.5005      58 -72.4572      59 -72.4597      60 -72.5559
      61 -72.4687      62 -72.4958      63 -72.4827      64 -72.6419      65 -72.4948
      66 -72.4715      67 -72.4831      68 -72.4086      69 -72.4818      70 -72.5033
      71 -72.4902
 
 
 
 E-fermi :   3.1756     XC(G=0):  -9.1529     alpha+bet :-10.2044

 Fermi energy:         3.1756056026

 k-point     1 :       0.0000    0.0000    0.0000
  band No.  band energies     occupation 
      1     -18.3939      2.00000
      2     -17.9549      2.00000
      3     -17.9475      2.00000
      4     -17.9365      2.00000
      5     -17.9236      2.00000
      6     -17.8920      2.00000
      7     -17.8623      2.00000
      8     -17.8444      2.00000
      9     -17.7453      2.00000
     10     -17.4582      2.00000
     11     -17.4502      2.00000
     12     -17.4364      2.00000
     13     -17.4168      2.00000
     14     -17.4097      2.00000
     15     -17.2756      2.00000
[...]
   0.249E-01 0.511E+01 0.508E+01   0.137E+00 -.485E+01 -.517E+01   -.142E+00 -.237E+00 0.315E-01   0.204E-04 0.812E-05 -.924E-05
   -.677E+01 -.455E+01 -.329E+01   0.687E+01 0.472E+01 0.334E+01   -.126E+00 -.206E+00 -.263E-01   0.167E-04 0.197E-04 0.126E-04
   -.349E+00 0.881E+00 0.229E+01   0.467E+00 -.663E+00 -.229E+01   -.123E+00 -.220E+00 -.479E-03   0.937E-05 0.171E-04 -.237E-04
   0.123E+02 -.144E+02 -.522E+01   -.121E+02 0.144E+02 0.512E+01   -.212E+00 -.141E+00 -.132E-01   0.343E-05 0.971E-04 0.806E-04
   0.279E+01 -.309E+00 0.276E+01   -.263E+01 0.532E+00 -.277E+01   -.136E+00 -.221E+00 -.415E-03   -.287E-05 0.313E-04 -.233E-04
   0.591E+01 0.494E+01 -.278E+01   -.585E+01 -.471E+01 0.279E+01   -.107E+00 -.230E+00 0.896E-02   -.143E-04 0.847E-05 0.209E-04
   0.206E+01 0.269E+01 0.206E+01   -.197E+01 -.246E+01 -.210E+01   -.106E+00 -.223E+00 0.201E-01   -.692E-05 0.403E-05 -.287E-04
   -.176E+01 -.167E+02 -.163E+02   0.187E+01 0.165E+02 0.163E+02   -.122E+00 0.211E+00 0.686E-02   0.315E-04 0.101E-04 0.494E-04
   -.907E+00 -.123E+02 0.138E+02   0.990E+00 0.120E+02 -.138E+02   -.153E+00 0.165E+00 -.180E-01   0.510E-04 0.428E-04 -.435E-04
   0.132E+02 0.816E+01 -.175E+02   -.130E+02 -.840E+01 0.176E+02   -.137E+00 0.190E+00 0.269E-01   -.744E-04 -.900E-05 0.369E-04
   0.947E+01 0.488E+01 0.146E+02   -.932E+01 -.524E+01 -.147E+02   -.183E+00 0.337E+00 0.550E-01   0.123E-04 -.751E-04 -.584E-04
   -.791E+01 0.295E+01 -.106E+02   0.792E+01 -.318E+01 0.105E+02   -.106E+00 0.244E+00 -.363E-01   0.450E-04 -.180E-04 0.403E-04
   -.547E+01 0.169E+01 0.950E+01   0.562E+01 -.191E+01 -.951E+01   -.122E+00 0.216E+00 -.437E-02   0.164E-04 -.161E-04 -.181E-04
   0.273E+01 -.279E+01 -.595E+01   -.256E+01 0.256E+01 0.593E+01   -.150E+00 0.225E+00 0.116E-01   -.711E-05 -.290E-04 0.393E-04
   0.239E+01 -.265E+01 0.569E+01   -.224E+01 0.240E+01 -.572E+01   -.129E+00 0.236E+00 0.273E-01   -.136E-04 -.829E-05 -.422E-04
   0.425E+02 0.574E+02 0.322E+02   -.510E+02 -.736E+02 -.428E+02   0.837E+01 0.160E+02 0.104E+02   0.139E-03 0.779E-04 0.619E-04
   0.425E+02 0.573E+02 0.323E+02   -.510E+02 -.736E+02 -.428E+02   0.843E+01 0.162E+02 0.103E+02   0.115E-03 0.718E-04 0.658E-04
   0.425E+02 0.574E+02 0.322E+02   -.510E+02 -.736E+02 -.428E+02   0.840E+01 0.161E+02 0.104E+02   0.106E-03 0.261E-04 0.466E-04
   0.426E+02 0.573E+02 0.323E+02   -.510E+02 -.736E+02 -.428E+02   0.824E+01 0.162E+02 0.104E+02   0.124E-03 0.168E-03 0.315E-04
   0.425E+02 0.574E+02 0.322E+02   -.510E+02 -.736E+02 -.428E+02   0.837E+01 0.161E+02 0.104E+02   0.126E-03 0.861E-04 0.260E-04
   0.425E+02 0.574E+02 0.323E+02   -.510E+02 -.736E+02 -.428E+02   0.842E+01 0.160E+02 0.104E+02   0.102E-03 0.312E-04 0.126E-03
   0.425E+02 0.574E+02 0.322E+02   -.510E+02 -.736E+02 -.428E+02   0.840E+01 0.160E+02 0.104E+02   0.104E-03 0.729E-04 0.194E-04
   -.604E+02 0.112E+02 0.116E+02   0.787E+02 -.104E+02 -.221E+02   -.181E+02 -.801E+00 0.104E+02   -.172E-03 0.791E-04 0.954E-04
   -.251E+02 0.214E+02 0.797E+02   0.426E+02 -.207E+02 -.909E+02   -.169E+02 -.601E+00 0.114E+02   -.134E-03 -.112E-03 -.885E-04
   -.717E+02 0.181E+01 0.224E+02   0.900E+02 -.108E+01 -.329E+02   -.181E+02 -.726E+00 0.104E+02   -.111E-03 0.108E-03 0.962E-04
   -.730E+02 -.780E+01 0.451E+02   0.913E+02 0.852E+01 -.556E+02   -.181E+02 -.716E+00 0.104E+02   -.151E-03 0.616E-04 0.242E-04
   -.705E+02 0.104E+02 0.247E+02   0.889E+02 -.965E+01 -.352E+02   -.181E+02 -.758E+00 0.104E+02   -.943E-04 0.644E-04 0.112E-03
   -.702E+02 0.130E+02 0.409E+02   0.885E+02 -.124E+02 -.514E+02   -.181E+02 -.643E+00 0.104E+02   -.118E-03 0.104E-03 0.506E-04
   -.796E+02 0.976E+01 0.194E+02   0.980E+02 -.901E+01 -.300E+02   -.181E+02 -.776E+00 0.104E+02   -.124E-03 0.437E-04 0.336E-04
   -.964E+02 0.128E+02 0.517E+02   0.115E+03 -.120E+02 -.622E+02   -.182E+02 -.819E+00 0.104E+02   -.141E-03 0.668E-04 0.788E-04
   0.400E+02 -.189E+02 -.151E+02   -.500E+02 0.339E+02 0.537E+01   0.100E+02 -.147E+02 0.927E+01   -.103E-03 -.132E-03 0.153E-03
   0.311E+02 -.549E+02 0.528E+02   -.409E+02 0.703E+02 -.635E+02   0.971E+01 -.152E+02 0.105E+02   -.293E-04 -.161E-03 0.943E-04
   0.116E+02 -.854E+02 0.127E+02   -.215E+02 0.101E+03 -.233E+02   0.980E+01 -.152E+02 0.104E+02   0.317E-04 -.977E-04 0.143E-03
   0.227E+02 -.722E+02 0.451E+02   -.325E+02 0.877E+02 -.556E+02   0.972E+01 -.153E+02 0.104E+02   0.188E-05 -.134E-03 0.215E-04
   0.412E+02 -.752E+02 0.195E+02   -.510E+02 0.907E+02 -.300E+02   0.965E+01 -.153E+02 0.104E+02   -.227E-04 -.165E-03 0.129E-03
   0.335E+02 -.693E+02 0.421E+02   -.433E+02 0.848E+02 -.526E+02   0.968E+01 -.153E+02 0.104E+02   -.231E-04 -.105E-03 0.217E-04
   0.245E+02 -.624E+02 0.236E+02   -.343E+02 0.779E+02 -.341E+02   0.976E+01 -.153E+02 0.104E+02   -.339E-04 -.123E-03 0.101E-03
   0.267E+02 -.640E+02 0.398E+02   -.365E+02 0.795E+02 -.504E+02   0.972E+01 -.153E+02 0.104E+02   0.252E-04 -.172E-03 0.137E-04
   0.425E+02 -.721E+02 -.704E+02   -.510E+02 0.883E+02 0.809E+02   0.838E+01 -.161E+02 -.102E+02   0.131E-03 -.531E-04 -.123E-04
   0.430E+02 -.885E+02 0.299E+02   -.510E+02 0.105E+03 -.196E+02   0.785E+01 -.166E+02 -.996E+01   0.267E-03 0.735E-04 -.156E-03
   0.473E+02 -.521E+02 -.437E+02   -.558E+02 0.683E+02 0.542E+02   0.837E+01 -.160E+02 -.104E+02   0.750E-04 -.107E-03 -.149E-04
   0.496E+02 -.495E+02 -.196E+02   -.581E+02 0.657E+02 0.301E+02   0.844E+01 -.160E+02 -.104E+02   0.129E-03 -.617E-04 -.125E-03
   0.377E+02 -.521E+02 -.437E+02   -.463E+02 0.683E+02 0.542E+02   0.838E+01 -.161E+02 -.104E+02   0.145E-03 -.447E-04 -.625E-04
   0.355E+02 -.495E+02 -.196E+02   -.440E+02 0.657E+02 0.301E+02   0.832E+01 -.160E+02 -.104E+02   0.111E-03 -.125E-03 -.270E-04
   0.425E+02 -.591E+02 -.414E+02   -.510E+02 0.753E+02 0.519E+02   0.839E+01 -.161E+02 -.104E+02   0.118E-03 -.112E-03 -.252E-04
   0.425E+02 -.597E+02 -.226E+02   -.510E+02 0.759E+02 0.331E+02   0.839E+01 -.161E+02 -.104E+02   0.942E-04 -.327E-04 -.119E-03
   0.331E+02 0.335E+02 -.488E+02   -.429E+02 -.491E+02 0.593E+02   0.970E+01 0.154E+02 -.104E+02   0.194E-04 0.209E-03 -.217E-04
   0.293E+02 0.590E+02 -.232E+02   -.391E+02 -.745E+02 0.337E+02   0.972E+01 0.153E+02 -.104E+02   0.418E-04 0.142E-03 -.599E-04
   0.582E+02 0.774E+02 -.486E+02   -.682E+02 -.930E+02 0.593E+02   0.987E+01 0.153E+02 -.106E+02   -.378E-04 0.131E-03 -.571E-04
   0.345E+02 0.680E+02 -.233E+02   -.443E+02 -.835E+02 0.337E+02   0.977E+01 0.153E+02 -.103E+02   0.231E-04 0.106E-03 -.530E-04
   -.222E+02 0.954E+02 -.676E+02   0.128E+02 -.110E+03 0.784E+02   0.917E+01 0.148E+02 -.107E+02   0.193E-03 0.132E-03 0.798E-04
   0.217E+02 0.694E+02 -.198E+02   -.315E+02 -.849E+02 0.303E+02   0.969E+01 0.153E+02 -.103E+02   0.682E-05 0.151E-03 -.126E-03
   0.264E+02 0.666E+02 -.387E+02   -.363E+02 -.822E+02 0.492E+02   0.972E+01 0.153E+02 -.104E+02   -.116E-04 0.128E-03 -.402E-04
   0.278E+02 0.659E+02 -.268E+02   -.376E+02 -.814E+02 0.373E+02   0.972E+01 0.153E+02 -.104E+02   -.421E-04 0.130E-03 -.922E-04
   -.232E+02 -.528E+02 -.171E+02   0.411E+02 0.526E+02 0.279E+02   -.176E+02 0.698E-01 -.107E+02   -.889E-04 0.244E-04 0.327E-04
   -.670E+02 -.118E+02 -.368E+02   0.853E+02 0.111E+02 0.473E+02   -.181E+02 0.750E+00 -.104E+02   -.136E-03 -.505E-04 -.793E-04
   -.663E+02 -.542E+01 -.292E+02   0.845E+02 0.464E+01 0.398E+02   -.180E+02 0.804E+00 -.104E+02   -.139E-03 -.883E-04 -.387E-04
   -.700E+02 -.756E+01 -.347E+02   0.883E+02 0.680E+01 0.452E+02   -.181E+02 0.793E+00 -.104E+02   -.127E-03 -.867E-04 -.868E-04
   -.856E+02 0.553E+02 -.176E+02   0.104E+03 -.570E+02 0.279E+02   -.186E+02 0.208E+01 -.100E+02   0.131E-04 -.205E-03 -.164E-03
   -.722E+02 -.284E+01 -.369E+02   0.905E+02 0.209E+01 0.473E+02   -.181E+02 0.779E+00 -.103E+02   -.926E-04 -.988E-04 -.656E-04
   -.966E+02 -.229E+02 -.261E+02   0.115E+03 0.222E+02 0.367E+02   -.180E+02 0.790E+00 -.104E+02   -.990E-04 -.561E-04 -.814E-04
   -.747E+02 -.103E+02 -.356E+02   0.930E+02 0.952E+01 0.461E+02   -.181E+02 0.764E+00 -.104E+02   -.131E-03 -.370E-04 -.442E-04
 -----------------------------------------------------------------------------------------------
   0.905E+01 0.163E+02 0.104E+02   0.199E-12 0.197E-12 -.355E-13   -.904E+01 -.163E+02 -.104E+02   0.178E-03 0.408E-04 0.873E-04
 
 
 POSITION                                       TOTAL-FORCE (eV/Angst)
 -----------------------------------------------------------------------------------
      2.61028     -0.00000      0.00000         0.018804      0.035734     -0.036097
      2.61028     -0.00000      5.43130        -1.607693      1.930618     -1.929947
      5.06777      4.25649      0.00000        -0.014587     -0.020064     -0.017209
      5.06777      4.25649      5.43130        -0.037529     -0.047170      0.018624
      5.06777     -4.25649      0.00000         0.006185     -0.007839     -0.020703
      5.06777     -4.25649      5.43130         0.011318     -0.037518      0.039860
      7.52525      0.00000      0.00000        -0.014078      0.004455     -0.016035
      7.52525      0.00000      5.43130        -0.013944      0.039333      0.023530
      1.15234      1.99591      3.62087         1.441170     -2.337502      1.776757
      1.15234      1.99591      9.05217         0.019239      0.020973     -0.051274
      3.60982      6.25240      3.62087        -0.027148     -0.039272      0.029804
      3.60982      6.25240      9.05217        -0.006358     -0.002155     -0.005683
      3.60982     -2.26057      3.62087         0.043925     -0.125957     -0.113765
      3.60982     -2.26057      9.05217         0.019494      0.002070     -0.002126
      6.06731      1.99591      3.62087        -0.048695      0.002047      0.016896
      6.06731      1.99591      9.05217        -0.015471      0.004087     -0.023570
      1.15234     -1.99591      1.81043        -0.012966     -0.045670     -0.057587
      1.15234     -1.99591      7.24173        -0.070590     -0.130758      0.036880
      3.60982      2.26057      1.81043         0.073271     -0.045318      0.035621
      3.60982      2.26057      7.24173        -0.034882     -0.022735     -0.056154
      3.60982     -6.25240      1.81043        -0.095945      0.008140     -0.112213
      3.60982     -6.25240      7.24173         0.024306     -0.002065     -0.016353
      6.06731     -1.99591      1.81043         0.018977     -0.004303     -0.009091
      6.06731     -1.99591      7.24173         0.013249     -0.014420     -0.004379
      1.67752      0.61366      9.69428        -0.134281     -0.216025     -0.114535
      4.13500      4.87015      4.26298        -0.133640     -0.168640     -0.150470
      4.13500      4.87015      9.69428        -0.132518     -0.192076     -0.127765
      4.13500     -3.64282      4.26298        -0.192045     -0.130960     -0.159392
      4.13500     -3.64282      9.69428        -0.140072     -0.193670     -0.128954
      6.59249      0.61366      4.26298        -0.126737     -0.207185     -0.137566
      6.59249      0.61366      9.69428        -0.129783     -0.204288     -0.122979
      3.54476      1.14594      0.64211         0.231500     -0.032629     -0.136837
      3.54476      1.14594      6.07341         0.596300      0.049661      0.149955
      6.00224      5.40243      0.64211         0.247024     -0.001996     -0.116924
      6.00224      5.40243      6.07341         0.248489     -0.000190     -0.131646
      6.00224     -3.11054      0.64211         0.236978     -0.016485     -0.127228
      6.00224     -3.11054      6.07341         0.235965      0.019794     -0.116339
      8.45972      1.14594      0.64211         0.244439     -0.019774     -0.129099
      8.45972      1.14594      6.07341         0.222565     -0.037705     -0.137401
      2.15017      2.49688      2.45255        -0.028358      0.341251     -0.420014
      2.15017      2.49688      7.88385        -0.115174      0.224250     -0.094509
      4.60765      6.75336      2.45255        -0.076064      0.242875     -0.131290
      4.60765      6.75336      7.88385        -0.097859      0.218382     -0.138535
      4.60765     -1.75961      2.45255        -0.127806      0.220634     -0.116448
      4.60765     -1.75961      7.88385        -0.112046      0.216025     -0.130558
      7.06514      2.49688      2.45255        -0.083601      0.222932     -0.142579
      7.06514      2.49688      7.88385        -0.102943      0.216886     -0.128159
      1.67752     -0.61366      1.16832        -0.149314      0.190771      0.187539
      1.67752     -0.61366      6.59962        -0.235676      0.160615      0.246773
      4.13500      3.64282      1.16832        -0.135877      0.207972      0.132501
      4.13500      3.64282      6.59962        -0.118323      0.230064      0.129657
      4.13500     -4.87015      1.16832        -0.141084      0.193519      0.148446
      4.13500     -4.87015      6.59962        -0.154952      0.206140      0.144848
      6.59249     -0.61366      1.16832        -0.137951      0.192338      0.138426
      6.59249     -0.61366      6.59962        -0.135273      0.191338      0.129970
      2.15017     -2.49688      2.97876        -0.109184     -0.182488      0.152309
      2.15017     -2.49688      8.41006        -0.103331     -0.209136      0.131226
      4.60765      1.75961      2.97876        -0.081384     -0.206984      0.099883
      4.60765      1.75961      8.41006        -0.074919     -0.210989      0.179675
      4.60765     -6.75336      2.97876        -0.245167     -0.303597      0.126853
      4.60765     -6.75336      8.41006        -0.106489     -0.218806      0.146809
      7.06514     -2.49688      2.97876        -0.098985     -0.208523      0.129783
      7.06514     -2.49688      8.41006        -0.099128     -0.212790      0.140294
      3.54476     -1.14594      4.78919         0.312150     -0.064402      0.042329
      3.54476     -1.14594     10.22049         0.231964      0.018641      0.142571
      6.00224      3.11054      4.78919         0.250970      0.027104      0.127347
      6.00224      3.11054     10.22049         0.241400      0.031457      0.146518
      6.00224     -5.40243      4.78919         0.132103      0.382281      0.249282
      6.00224     -5.40243     10.22049         0.231469      0.029540      0.151005
      8.45972     -1.14594      4.78919         0.264517      0.019440      0.119483
      8.45972     -1.14594     10.22049         0.242081      0.020715      0.139959
 -----------------------------------------------------------------------------------
    total drift:                                0.011841      0.000582     -0.000811


--------------------------------------------------------------------------------------------------------



  FREE ENERGIE OF THE ION-ELECTRON SYSTEM (eV)
  ---------------------------------------------------
  free  energy   TOTEN  =      -557.33601837 eV

  energy  without entropy=     -557.33601837  energy(sigma->0) =     -557.33601837
 


--------------------------------------------------------------------------------------------------------


    POTLOK:  cpu time      0.0178: real time      0.0178


--------------------------------------------------------------------------------------------------------


 stress matrix after NEB project (eV)
     31.34998      2.77966     -2.50720
      2.77966     29.51135      3.68459
     -2.50720      3.68459     29.27815
  FORCES: max atom, RMS     3.270742    0.596932
  FORCE total and by dimension    5.029835    2.337502
  Stress total and by dimension   52.593994   31.349979
 writing wavefunctions
     LOOP+:  cpu time    152.4777: real time    153.3481
    4ORBIT:  cpu time      0.0000: real time      0.0000



 total charge

# of ion       s       p       d       tot
------------------------------------------
    1        0.647   1.007   0.000   1.653
    2        0.672   0.926   0.000   1.598
    3        0.647   1.007   0.000   1.653
    4        0.647   1.007   0.000   1.653
    5        0.647   1.007   0.000   1.653
    6        0.648   1.007   0.000   1.655
    7        0.647   1.007   0.000   1.653
    8        0.647   1.007   0.000   1.653
    9        0.672   0.924   0.000   1.597
   10        0.647   1.007   0.000   1.653
   11        0.647   1.007   0.000   1.653
   12        0.647   1.007   0.000   1.653
   13        0.647   1.007   0.000   1.654
   14        0.647   1.007   0.000   1.653
   15        0.647   1.007   0.000   1.653
   16        0.647   1.007   0.000   1.653
   17        0.647   1.007   0.000   1.654
   18        0.647   1.007   0.000   1.654
   19        0.647   1.007   0.000   1.653
   20        0.647   1.007   0.000   1.654
   21        0.647   1.007   0.000   1.654
   22        0.647   1.007   0.000   1.653
   23        0.647   1.007   0.000   1.653
   24        0.647   1.007   0.000   1.654
   25        1.548   3.705   0.000   5.253
   26        1.548   3.704   0.000   5.253
   27        1.548   3.705   0.000   5.253
   28        1.549   3.704   0.000   5.253
   29        1.548   3.705   0.000   5.253
   30        1.548   3.705   0.000   5.253
   31        1.548   3.705   0.000   5.253
   32        1.548   3.705   0.000   5.253
   33        1.553   3.694   0.000   5.247
   34        1.548   3.705   0.000   5.253
   35        1.548   3.705   0.000   5.253
   36        1.548   3.705   0.000   5.253
   37        1.549   3.704   0.000   5.253
   38        1.548   3.705   0.000   5.253
   39        1.548   3.704   0.000   5.253
   40        1.553   3.693   0.000   5.246
   41        1.548   3.705   0.000   5.253
   42        1.548   3.704   0.000   5.253
   43        1.548   3.705   0.000   5.253
   44        1.548   3.705   0.000   5.253
   45        1.548   3.705   0.000   5.253
   46        1.548   3.704   0.000   5.253
   47        1.548   3.705   0.000   5.253
   48        1.548   3.704   0.000   5.253
   49        1.553   3.692   0.000   5.245
   50        1.548   3.705   0.000   5.253
   51        1.548   3.705   0.000   5.253
   52        1.548   3.705   0.000   5.253
   53        1.548   3.705   0.000   5.253
   54        1.548   3.705   0.000   5.253
   55        1.548   3.705   0.000   5.253
   56        1.549   3.704   0.000   5.253
   57        1.549   3.704   0.000   5.253
   58        1.549   3.704   0.000   5.252
   59        1.549   3.704   0.000   5.253
   60        1.552   3.694   0.000   5.246
   61        1.548   3.705   0.000   5.253
   62        1.548   3.705   0.000   5.253
   63        1.548   3.705   0.000   5.253
   64        1.554   3.690   0.000   5.243
   65        1.548   3.705   0.000   5.253
   66        1.548   3.705   0.000   5.253
   67        1.548   3.705   0.000   5.253
   68        1.554   3.693   0.000   5.246
   69        1.548   3.705   0.000   5.253
   70        1.548   3.705   0.000   5.253
   71        1.548   3.705   0.000   5.253
--------------------------------------------------
tot         88.376 198.043   0.000 286.419
 

 total amount of memory used by VASP MPI-rank0   109999. kBytes
=======================================================================

   base      :      30000. kBytes
   nonl-proj :      57853. kBytes
   fftplans  :       1721. kBytes
   grid      :       9701. kBytes
   one-center:        218. kBytes
   wavefun   :      10506. kBytes
 
  
  
 General timing and accounting informations for this job:
 ========================================================
  
                  Total CPU time used (sec):      167.641
                            User time (sec):      164.365
                          System time (sec):        3.276
                         Elapsed time (sec):      169.766
  
                   Maximum memory used (kb):      358604.
                   Average memory used (kb):          N/A
  
                          Minor page faults:       174820
                          Major page faults:          298
                 Voluntary context switches:         5538
