 vasp.5.4.4.18Apr17-6-g9f103f2a35 (build Jun 19 2019 10:34:07) complex          
  
 executed on               LB-5.4 date 2023.05.15  18:43:41
 running on   96 total cores
 distrk:  each k-point on   24 cores,    4 groups
 distr:  one band on NCORES_PER_BAND=   1 cores,   24 groups


--------------------------------------------------------------------------------------------------------


 INCAR:
 POTCAR:    PAW_PBE P 06Sep2000                   
 POTCAR:    PAW_PBE Si 05Jan2001                  

 ----------------------------------------------------------------------------- 
|                                                                             |
|           W    W    AA    RRRRR   N    N  II  N    N   GGGG   !!!           |
|           W    W   A  A   R    R  NN   N  II  NN   N  G    G  !!!           |
|           W    W  A    A  R    R  N N  N  II  N N  N  G       !!!           |
|           W WW W  AAAAAA  RRRRR   N  N N  II  N  N N  G  GGG   !            |
|           WW  WW  A    A  R   R   N   NN  II  N   NN  G    G                |
|           W    W  A    A  R    R  N    N  II  N    N   GGGG   !!!           |
|                                                                             |
|      For optimal performance we recommend to set                            |
|        NCORE= 4 - approx SQRT( number of cores)                             |
|      NCORE specifies how many cores store one orbital (NPAR=cpu/NCORE).     |
|      This setting can  greatly improve the performance of VASP for DFT.     |
|      The default,   NCORE=1            might be grossly inefficient         |
|      on modern multi-core architectures or massively parallel machines.     |
|      Do your own testing !!!!                                               |
|      Unfortunately you need to use the default for GW and RPA calculations. |
|      (for HF NCORE is supported but not extensively tested yet)             |
|                                                                             |
 ----------------------------------------------------------------------------- 


 ----------------------------------------------------------------------------- 
|                                                                             |
|           W    W    AA    RRRRR   N    N  II  N    N   GGGG   !!!           |
|           W    W   A  A   R    R  NN   N  II  NN   N  G    G  !!!           |
|           W    W  A    A  R    R  N N  N  II  N N  N  G       !!!           |
|           W WW W  AAAAAA  RRRRR   N  N N  II  N  N N  G  GGG   !            |
|           WW  WW  A    A  R   R   N   NN  II  N   NN  G    G                |
|           W    W  A    A  R    R  N    N  II  N    N   GGGG   !!!           |
|                                                                             |
|      You have enabled k-point parallelism (KPAR>1).                         |
|      This developmental code was originally  written by Paul Kent at ORNL,  |
|      and carefully double checked in Vienna.                                |
|      GW as well as linear response parallelism added by Martijn Marsman     |
|      and Georg Kresse.                                                      |
|      Carefully verify results versus KPAR=1.                                |
|      Report problems to Paul Kent and Vienna.                               |
|                                                                             |
 ----------------------------------------------------------------------------- 

 POTCAR:    PAW_PBE P 06Sep2000                   
   VRHFIN =P : s2p3                                                             
   LEXCH  = PE                                                                  
   EATOM  =   176.0430 eV,   12.9388 Ry                                         
                                                                                
   TITEL  = PAW_PBE P 06Sep2000                                                 
   LULTRA =        F    use ultrasoft PP ?                                      
   IUNSCR =        1    unscreen: 0-lin 1-nonlin 2-no                           
   RPACOR =    1.500    partial core radius                                     
   POMASS =   30.974; ZVAL   =    5.000    mass and valenz                      
   RCORE  =    1.900    outmost cutoff radius                                   
   RWIGS  =    2.330; RWIGS  =    1.233    wigner-seitz radius (au A)           
   ENMAX  =  255.040; ENMIN  =  191.280 eV                                      
   ICORE  =        2    local potential                                         
   LCOR   =        T    correct aug charges                                     
   LPAW   =        T    paw PP                                                  
   EAUG   =  342.924                                                            
   DEXC   =    0.000                                                            
   RMAX   =    1.935    core radius for proj-oper                               
   RAUG   =    1.300    factor for augmentation sphere                          
   RDEP   =    1.931    radius for radial grids                                 
   RDEPT  =    1.794    core radius for aug-charge                              
                                                                                
   Atomic configuration                                                         
    6 entries                                                                   
     n  l   j            E        occ.                                          
     1  0  0.50     -2084.0982   2.0000                                         
     2  0  0.50      -173.9859   2.0000                                         
     2  1  1.50      -124.4865   6.0000                                         
     3  0  0.50       -13.9692   2.0000                                         
     3  1  0.50        -5.5067   3.0000                                         
     3  2  1.50        -5.4423   0.0000                                         
   Description                                                                  
     l       E           TYP  RCUT    TYP  RCUT                                 
     0    -13.9691527     23  1.900                                             
     0    -11.7794650     23  1.900                                             
     1     -5.5066937     23  1.900                                             
     1     -0.2556953     23  1.900                                             
     2     -5.4423304     23  1.900                                             
  local pseudopotential read in
  partial core-charges read in
  partial kinetic energy density read in
  atomic valenz-charges read in
  non local Contribution for L=           0  read in
    real space projection operators read in
  non local Contribution for L=           0  read in
    real space projection operators read in
  non local Contribution for L=           1  read in
    real space projection operators read in
  non local Contribution for L=           1  read in
    real space projection operators read in
    PAW grid and wavefunctions read in
 
   number of l-projection  operators is LMAX  =           4
   number of lm-projection operators is LMMAX =           8
 
 POTCAR:    PAW_PBE Si 05Jan2001                  
   VRHFIN =Si: s2p2                                                             
   LEXCH  = PE                                                                  
   EATOM  =   103.0669 eV,    7.5752 Ry                                         
                                                                                
   TITEL  = PAW_PBE Si 05Jan2001                                                
   LULTRA =        F    use ultrasoft PP ?                                      
   IUNSCR =        1    unscreen: 0-lin 1-nonlin 2-no                           
   RPACOR =    1.500    partial core radius                                     
   POMASS =   28.085; ZVAL   =    4.000    mass and valenz                      
   RCORE  =    1.900    outmost cutoff radius                                   
   RWIGS  =    2.480; RWIGS  =    1.312    wigner-seitz radius (au A)           
   ENMAX  =  245.345; ENMIN  =  184.009 eV                                      
   ICORE  =        2    local potential                                         
   LCOR   =        T    correct aug charges                                     
   LPAW   =        T    paw PP                                                  
   EAUG   =  322.069                                                            
   DEXC   =    0.000                                                            
   RMAX   =    1.950    core radius for proj-oper                               
   RAUG   =    1.300    factor for augmentation sphere                          
   RDEP   =    1.993    radius for radial grids                                 
   RDEPT  =    1.837    core radius for aug-charge                              
                                                                                
   Atomic configuration                                                         
    6 entries                                                                   
     n  l   j            E        occ.                                          
     1  0  0.50     -1785.8828   2.0000                                         
     2  0  0.50      -139.4969   2.0000                                         
     2  1  1.50       -95.5546   6.0000                                         
     3  0  0.50       -10.8127   2.0000                                         
     3  1  0.50        -4.0811   2.0000                                         
     3  2  1.50        -4.0817   0.0000                                         
   Description                                                                  
     l       E           TYP  RCUT    TYP  RCUT                                 
     0    -10.8127223     23  1.900                                             
     0     -7.6451159     23  1.900                                             
     1     -4.0811372     23  1.900                                             
     1      2.4879257     23  1.900                                             
     2     -4.0817478      7  1.900                                             
  local pseudopotential read in
  partial core-charges read in
  partial kinetic energy density read in
  atomic valenz-charges read in
  non local Contribution for L=           0  read in
    real space projection operators read in
  non local Contribution for L=           0  read in
    real space projection operators read in
  non local Contribution for L=           1  read in
    real space projection operators read in
  non local Contribution for L=           1  read in
    real space projection operators read in
    PAW grid and wavefunctions read in
 
   number of l-projection  operators is LMAX  =           4
   number of lm-projection operators is LMMAX =           8
 

 ----------------------------------------------------------------------------- 
|                                                                             |
|  ADVICE TO THIS USER RUNNING 'VASP/VAMP'   (HEAR YOUR MASTER'S VOICE ...):  |
|                                                                             |
|      You have a (more or less) 'large supercell' and for larger cells       |
|      it might be more efficient to use real space projection opertators     |
|      So try LREAL= Auto  in the INCAR   file.                               |
|      Mind:          For very  accurate calculation you might also keep the  |
|      reciprocal projection scheme          (i.e. LREAL=.FALSE.)             |
|                                                                             |
 ----------------------------------------------------------------------------- 

  PAW_PBE P 06Sep2000                   :
 energy of atom  1       EATOM= -176.0430
 kinetic energy error for atom=    0.0008 (will be added to EATOM!!)
  PAW_PBE Si 05Jan2001                  :
 energy of atom  2       EATOM= -103.0669
 kinetic energy error for atom=    0.0004 (will be added to EATOM!!)
 
 
 POSCAR: Si53 P1                                 
  positions in direct lattice
  velocities in cartesian coordinates
 exchange correlation table for  LEXCH =        8
   RHO(1)=    0.500       N(1)  =     2000
   RHO(2)=  100.500       N(2)  =     4000
 


--------------------------------------------------------------------------------------------------------


 ion  position               nearest neighbor table
   1  0.292  0.292  0.292-  32 2.35  40 2.35  41 2.35  38 2.35
   2  0.292  0.292  0.625-  33 2.35  41 2.35  42 2.35  39 2.35
   3  0.292  0.292  0.958-  31 2.35  40 2.35  42 2.35  37 2.35
   4  0.292  0.625  0.292-  35 2.35  43 2.35  44 2.35  41 2.35
   5  0.292  0.625  0.625-  36 2.35  44 2.35  45 2.35  42 2.35
   6  0.292  0.625  0.958-  34 2.35  43 2.35  45 2.35  40 2.35
   7  0.292  0.958  0.292-  29 2.35  37 2.35  38 2.35  44 2.35
   8  0.292  0.958  0.625-  30 2.35  38 2.35  39 2.35  45 2.35
   9  0.292  0.958  0.958-  28 2.35  37 2.35  39 2.35  43 2.35
  10  0.625  0.292  0.292-  41 2.35  49 2.35  50 2.35  47 2.35
  11  0.625  0.292  0.625-  42 2.35  50 2.35  51 2.35  48 2.35
  12  0.625  0.292  0.958-  40 2.35  49 2.35  51 2.35  46 2.35
  13  0.625  0.625  0.292-  44 2.35  52 2.35  53 2.35  50 2.35
  14  0.625  0.625  0.625-  45 2.35  53 2.35  54 2.35  51 2.35
  15  0.625  0.625  0.958-  43 2.35  52 2.35  54 2.35  49 2.35
  16  0.625  0.958  0.292-  38 2.35  46 2.35  47 2.35  53 2.35
  17  0.625  0.958  0.625-  39 2.35  47 2.35  48 2.35  54 2.35
  18  0.625  0.958  0.958-  37 2.35  46 2.35  48 2.35  52 2.35
  19  0.958  0.292  0.292-  50 2.35  32 2.35  31 2.35  29 2.35
  20  0.958  0.292  0.625-  51 2.35  33 2.35  32 2.35  30 2.35
  21  0.958  0.292  0.958-  49 2.35  31 2.35  33 2.35  28 2.35
  22  0.958  0.625  0.292-  53 2.35  35 2.35  34 2.35  32 2.35
  23  0.958  0.625  0.625-  54 2.35  36 2.35  35 2.35  33 2.35
  24  0.958  0.625  0.958-  52 2.35  34 2.35  36 2.35  31 2.35
  25  0.958  0.958  0.292-  47 2.35  29 2.35  28 2.35  35 2.35
  26  0.958  0.958  0.625-  48 2.35  30 2.35  29 2.35  36 2.35
  27  0.958  0.958  0.958-  46 2.35  28 2.35  30 2.35  34 2.35
  28  0.042  0.042  0.042-   9 2.35  27 2.35  25 2.35  21 2.35
  29  0.042  0.042  0.375-   7 2.35  25 2.35  26 2.35  19 2.35
  30  0.042  0.042  0.708-   8 2.35  26 2.35  27 2.35  20 2.35
  31  0.042  0.375  0.042-   3 2.35  21 2.35  19 2.35  24 2.35
  32  0.042  0.375  0.375-   1 2.35  19 2.35  20 2.35  22 2.35
  33  0.042  0.375  0.708-   2 2.35  20 2.35  21 2.35  23 2.35
  34  0.042  0.708  0.042-   6 2.35  24 2.35  22 2.35  27 2.35
  35  0.042  0.708  0.375-   4 2.35  22 2.35  23 2.35  25 2.35
  36  0.042  0.708  0.708-   5 2.35  23 2.35  24 2.35  26 2.35
  37  0.375  0.042  0.042-  18 2.35   9 2.35   7 2.35   3 2.35
  38  0.375  0.042  0.375-  16 2.35   8 2.35   7 2.35   1 2.35
  39  0.375  0.042  0.708-  17 2.35   9 2.35   8 2.35   2 2.35
  40  0.375  0.375  0.042-  12 2.35   3 2.35   1 2.35   6 2.35
  41  0.375  0.375  0.375-  10 2.35   2 2.35   1 2.35   4 2.35
  42  0.375  0.375  0.708-  11 2.35   3 2.35   2 2.35   5 2.35
  43  0.375  0.708  0.042-  15 2.35   6 2.35   4 2.35   9 2.35
  44  0.375  0.708  0.375-  13 2.35   5 2.35   4 2.35   7 2.35
  45  0.375  0.708  0.708-  14 2.35   6 2.35   5 2.35   8 2.35
  46  0.708  0.042  0.042-  27 2.35  18 2.35  16 2.35  12 2.35
  47  0.708  0.042  0.375-  25 2.35  17 2.35  16 2.35  10 2.35
  48  0.708  0.042  0.708-  26 2.35  18 2.35  17 2.35  11 2.35
  49  0.708  0.375  0.042-  21 2.35  12 2.35  10 2.35  15 2.35
  50  0.708  0.375  0.375-  19 2.35  11 2.35  10 2.35  13 2.35
  51  0.708  0.375  0.708-  20 2.35  12 2.35  11 2.35  14 2.35
  52  0.708  0.708  0.042-  24 2.35  15 2.35  13 2.35  18 2.35
  53  0.708  0.708  0.375-  22 2.35  14 2.35  13 2.35  16 2.35
  54  0.708  0.708  0.708-  23 2.35  15 2.35  14 2.35  17 2.35
 
  LATTYP: Found a face centered cubic cell.
 ALAT       =    16.2915000202
  
  Lattice vectors:
  
 A1 = (   9.9764655300,   0.0000000000,   5.7599150700)
 A2 = (   3.3254885100,   9.4059019200,   5.7599150700)
 A3 = (   0.0000000000,   0.0000000000,  11.5198301400)


Analysis of symmetry for initial positions (statically):
=====================================================================
 Subroutine PRICEL returns:
 Original cell was already a primitive cell.
 

 Routine SETGRP: Setting up the symmetry group for a 
 face centered cubic supercell.


 Subroutine GETGRP returns: Found 24 space group operations
 (whereof  6 operations were pure point group operations)
 out of a pool of 48 trial point group operations.


The static configuration has the point symmetry C_3v.
 The point group associated with its full space group is T_d .


Analysis of symmetry for dynamics (positions and initial velocities):
=====================================================================
 Subroutine PRICEL returns:
 Original cell was already a primitive cell.
 

 Routine SETGRP: Setting up the symmetry group for a 
 face centered cubic supercell.


 Subroutine GETGRP returns: Found 24 space group operations
 (whereof  6 operations were pure point group operations)
 out of a pool of 48 trial point group operations.


The dynamic configuration has the point symmetry C_3v.
 The point group associated with its full space group is T_d .


 Subroutine INISYM returns: Found 24 space group operations
 (whereof  6 operations are pure point group operations),
 and found     1 'primitive' translations

 
 
 KPOINTS: Automatic kpoint scheme                 

Automatic generation of k-mesh.
Space group operators:
 irot       det(A)        alpha          n_x          n_y          n_z        tau_x        tau_y        tau_z
    1     1.000000     0.000000     1.000000     0.000000     0.000000     0.000000     0.000000     0.000000
    2     1.000000   120.000000    -0.471405    -0.333333    -0.816497     0.000000     0.000000     0.000000
    3     1.000000   120.000000     0.471405     0.333333     0.816497     0.000000     0.000000     0.000000
    4    -1.000000   180.000000     0.288675     0.816497    -0.500000     0.000000     0.000000     0.000000
    5    -1.000000   180.000000     0.577350    -0.816497     0.000000     0.000000     0.000000     0.000000
    6    -1.000000   180.000000     0.866025     0.000000    -0.500000     0.000000     0.000000     0.000000
    7    -1.000000    90.000000    -0.816497    -0.577350    -0.000000     0.166667     0.000000     0.000000
    8    -1.000000   180.000000     0.866025     0.000000     0.500000     0.166667     0.000000     0.000000
    9    -1.000000    90.000000     0.408248    -0.577350     0.707107     0.166667     0.000000     0.000000
   10     1.000000   180.000000     0.816497     0.577350     0.000000     0.000000     0.000000     0.166667
   11     1.000000   120.000000     0.942809    -0.333333     0.000000     0.000000     0.000000     0.166667
   12     1.000000   120.000000    -0.000000    -1.000000    -0.000000     0.000000     0.000000     0.166667
   13    -1.000000    90.000000     0.816497     0.577350    -0.000000     0.000000     0.166667    -0.000000
   14    -1.000000    90.000000     0.408248    -0.577350    -0.707107     0.000000     0.166667    -0.000000
   15    -1.000000   180.000000     0.288675     0.816497     0.500000     0.000000     0.166667    -0.000000
   16     1.000000   120.000000    -0.000000     1.000000    -0.000000     0.166667     0.000000     0.000000
   17     1.000000   120.000000     0.471405     0.333333    -0.816497     0.166667     0.000000     0.000000
   18     1.000000   180.000000    -0.408248     0.577350     0.707107     0.166667     0.000000     0.000000
   19    -1.000000    90.000000    -0.408248     0.577350    -0.707107     0.000000     0.000000     0.166667
   20    -1.000000   180.000000     0.000000    -0.000000     1.000000     0.000000     0.000000     0.166667
   21    -1.000000    90.000000    -0.408248     0.577350     0.707107     0.000000     0.000000     0.166667
   22     1.000000   120.000000    -0.942809     0.333333     0.000000     0.000000     0.166667    -0.000000
   23     1.000000   180.000000    -0.408248     0.577350    -0.707107     0.000000     0.166667    -0.000000
   24     1.000000   120.000000    -0.471405    -0.333333     0.816497     0.000000     0.166667    -0.000000
 
 Subroutine IBZKPT returns following result:
 ===========================================
 
 Found      8 irreducible k-points:
 
 Following reciprocal coordinates:
            Coordinates               Weight
  0.000000  0.000000  0.000000      1.000000
  0.250000  0.000000  0.000000      8.000000
  0.500000  0.000000  0.000000      4.000000
  0.250000  0.250000  0.000000      6.000000
  0.500000  0.250000  0.000000     24.000000
 -0.250000  0.250000  0.000000     12.000000
  0.500000  0.500000  0.000000      3.000000
 -0.250000  0.500000  0.250000      6.000000
 
 Following cartesian coordinates:
            Coordinates               Weight
  0.000000  0.000000  0.000000      1.000000
  0.025059 -0.008860  0.000000      8.000000
  0.050118 -0.017719  0.000000      4.000000
  0.025059  0.017719  0.000000      6.000000
  0.050118  0.008860  0.000000     24.000000
 -0.025059  0.035439  0.000000     12.000000
  0.050118  0.035439  0.000000      3.000000
 -0.037588  0.053158  0.021702      6.000000
 


--------------------------------------------------------------------------------------------------------




 Dimension of arrays:
   k-points           NKPTS =      8   k-points in BZ     NKDIM =      8   number of bands    NBANDS=    144
   number of dos      NEDOS =    301   number of ions     NIONS =     54
   non local maximal  LDIM  =      4   non local SUM 2l+1 LMDIM =      8
   total plane-waves  NPLWV = 343000
   max r-space proj   IRMAX =      1   max aug-charges    IRDMAX=  10807
   dimension x,y,z NGX =    70 NGY =   70 NGZ =   70
   dimension x,y,z NGXF=   140 NGYF=  140 NGZF=  140
   support grid    NGXF=   140 NGYF=  140 NGZF=  140
   ions per type =               1  53
   NGX,Y,Z   is equivalent  to a cutoff of  10.10, 10.10, 10.10 a.u.
   NGXF,Y,Z  is equivalent  to a cutoff of  20.20, 20.20, 20.20 a.u.

 SYSTEM =  Si                                      
 POSCAR =  Si53 P1                                 

 Startparameter for this run:
   NWRITE =      2    write-flag & timer
   PREC   = normal    normal or accurate (medium, high low for compatibility)
   ISTART =      1    job   : 0-new  1-cont  2-samecut
   ICHARG =      0    charge: 1-file 2-atom 10-const
   ISPIN  =      1    spin polarized calculation?
   LNONCOLLINEAR =      F non collinear calculations
   LSORBIT =      F    spin-orbit coupling
   INIWAV =      1    electr: 0-lowe 1-rand  2-diag
   LASPH  =      F    aspherical Exc in radial PAW
   METAGGA=      F    non-selfconsistent MetaGGA calc.

 Electronic Relaxation 1
   ENCUT  =  550.0 eV  40.42 Ry    6.36 a.u.  22.03 22.03 22.03*2*pi/ulx,y,z
   ENINI  =  550.0     initial cutoff
   ENAUG  =  342.9 eV  augmentation charge cutoff
   NELM   =    200;   NELMIN=  2; NELMDL=  0     # of ELM steps 
   EDIFF  = 0.1E-04   stopping-criterion for ELM
   LREAL  =      F    real-space projection
   NLSPLINE    = F    spline interpolate recip. space projectors
   LCOMPAT=      F    compatible to vasp.4.4
   GGA_COMPAT  = T    GGA compatible to vasp.4.4-vasp.4.6
   LMAXPAW     = -100 max onsite density
   LMAXMIX     =    2 max onsite mixed and CHGCAR
   VOSKOWN=      0    Vosko Wilk Nusair interpolation
   ROPT   =    0.00000   0.00000
 Ionic relaxation
   EDIFFG = -.5E-01   stopping-criterion for IOM
   NSW    =    100    number of steps for IOM
   NBLOCK =      1;   KBLOCK =    100    inner block; outer block 
   IBRION =      2    ionic relax: 0-MD 1-quasi-New 2-CG
   NFREE  =      1    steps in history (QN), initial steepest desc. (CG)
   ISIF   =      2    stress and relaxation
   IWAVPR =     11    prediction:  0-non 1-charg 2-wave 3-comb
   ISYM   =      2    0-nonsym 1-usesym 2-fastsym
   LCORR  =      T    Harris-Foulkes like correction to forces

   POTIM  = 0.5000    time-step for ionic-motion
   TEIN   =    0.0    initial temperature
   TEBEG  =    0.0;   TEEND  =   0.0 temperature during run
   SMASS  =  -3.00    Nose mass-parameter (am)
   estimated Nose-frequenzy (Omega)   =  0.10E-29 period in steps =****** mass=  -0.303E-26a.u.
   SCALEE = 1.0000    scale energy and forces
   NPACO  =    256;   APACO  = 16.0  distance and # of slots for P.C.
   PSTRESS=    0.0 pullay stress

  Mass of Ions in am
   POMASS =  30.97 28.09
  Ionic Valenz
   ZVAL   =   5.00  4.00
  Atomic Wigner-Seitz radii
   RWIGS  =  -1.00 -1.00
  virtual crystal weights 
   VCA    =   1.00  1.00
   NELECT =     215.0000    total number of electrons
   NUPDOWN=      -1.0000    fix difference up-down

 DOS related values:
   EMIN   =  10.00;   EMAX   =-10.00  energy-range for DOS
   EFERMI =   0.00
   ISMEAR =     0;   SIGMA  =   0.05  broadening in eV -4-tet -1-fermi 0-gaus

 Electronic relaxation 2 (details)
   IALGO  =     38    algorithm
   LDIAG  =      T    sub-space diagonalisation (order eigenvalues)
   LSUBROT=      F    optimize rotation matrix (better conditioning)
   TURBO    =      0    0=normal 1=particle mesh
   IRESTART =      0    0=no restart 2=restart with 2 vectors
   NREBOOT  =      0    no. of reboots
   NMIN     =      0    reboot dimension
   EREF     =   0.00    reference energy to select bands
   IMIX   =      4    mixing-type and parameters
     AMIX     =   0.20;   BMIX     =  1.00
     AMIX_MAG =   0.80;   BMIX_MAG =  1.00
     AMIN     =   0.10
     WC   =   100.;   INIMIX=   1;  MIXPRE=   1;  MAXMIX= -45

 Intra band minimization:
   WEIMIN = 0.0010     energy-eigenvalue tresh-hold
   EBREAK =  0.17E-07  absolut break condition
   DEPER  =   0.30     relativ break condition  

   TIME   =   0.40     timestep for ELM

  volume/ion in A,a.u.               =      20.02       135.09
  Fermi-wavevector in a.u.,A,eV,Ry     =   0.955608  1.805838 12.424666  0.913187
  Thomas-Fermi vector in A             =   2.084461
 
 Write flags
   LWAVE        =      T    write WAVECAR
   LDOWNSAMPLE  =      F    k-point downsampling of WAVECAR
   LCHARG       =      T    write CHGCAR
   LVTOT        =      F    write LOCPOT, total local potential
   LVHAR        =      F    write LOCPOT, Hartree potential only
   LELF         =      F    write electronic localiz. function (ELF)
   LORBIT       =     10    0 simple, 1 ext, 2 COOP (PROOUT), +10 PAW based schemes


 Dipole corrections
   LMONO  =      F    monopole corrections only (constant potential shift)
   LDIPOL =      F    correct potential (dipole corrections)
   IDIPOL =      0    1-x, 2-y, 3-z, 4-all directions 
   EPSILON=  1.0000000 bulk dielectric constant

 Exchange correlation treatment:
   GGA     =    --    GGA type
   LEXCH   =     8    internal setting for exchange type
   VOSKOWN=      0    Vosko Wilk Nusair interpolation
   LHFCALC =     F    Hartree Fock is set to
   LHFONE  =     F    Hartree Fock one center treatment
   AEXX    =    0.0000 exact exchange contribution

 Linear response parameters
   LEPSILON=     F    determine dielectric tensor
   LRPA    =     F    only Hartree local field effects (RPA)
   LNABLA  =     F    use nabla operator in PAW spheres
   LVEL    =     F    velocity operator in full k-point grid
   LINTERFAST=   F  fast interpolation
   KINTER  =     0    interpolate to denser k-point grid
   CSHIFT  =0.1000    complex shift for real part using Kramers Kronig
   OMEGAMAX=  -1.0    maximum frequency
   DEG_THRESHOLD= 0.2000000E-02 threshold for treating states as degnerate
   RTIME   =   -0.100 relaxation time in fs
  (WPLASMAI=    0.000 imaginary part of plasma frequency in eV, 0.658/RTIME)
   DFIELD  = 0.0000000 0.0000000 0.0000000 field for delta impulse in time
 
 Orbital magnetization related:
   ORBITALMAG=     F  switch on orbital magnetization
   LCHIMAG   =     F  perturbation theory with respect to B field
   DQ        =  0.001000  dq finite difference perturbation B field
   LLRAUG    =     F  two centre corrections for induced B field



--------------------------------------------------------------------------------------------------------


 conjugate gradient relaxation of ions
 charge density and potential will be updated during run
 non-spin polarized calculation
 Variant of blocked Davidson
 Davidson routine will perform the subspace rotation
 perform sub-space diagonalisation
    after iterative eigenvector-optimisation
 modified Broyden-mixing scheme, WC =      100.0
 initial mixing is a Kerker type mixing with AMIX =  0.2000 and BMIX =      1.0000
 Hartree-type preconditioning will be used
 using additional bands           36
 reciprocal scheme for non local part
 use partial core corrections
 calculate Harris-corrections to forces 
   (improved forces if not selfconsistent)
 use gradient corrections 
 use of overlap-Matrix (Vanderbilt PP)
 Gauss-broadening in eV      SIGMA  =   0.05


--------------------------------------------------------------------------------------------------------


  energy-cutoff  :      550.00
  volume of cell :     1080.99
      direct lattice vectors                 reciprocal lattice vectors
     9.976465530  0.000000000  5.759915070     0.100235900 -0.035438742  0.000000000
     3.325488510  9.405901920  5.759915070     0.000000000  0.106316227  0.000000000
     0.000000000  0.000000000 11.519830140    -0.050117950 -0.035438742  0.086806836

  length of vectors
    11.519830124 11.519830136 11.519830140     0.106316227  0.106316227  0.106316227


 
 old parameters found on file WAVECAR:
  energy-cutoff  :      550.00
  volume of cell :     1080.99
      direct lattice vectors                 reciprocal lattice vectors
     9.976465530  0.000000000  5.759915070     0.100235900 -0.035438742  0.000000000
     3.325488510  9.405901920  5.759915070     0.000000000  0.106316227  0.000000000
     0.000000000  0.000000000 11.519830140    -0.050117950 -0.035438742  0.086806836

  length of vectors

 
 k-points in units of 2pi/SCALE and weight: Automatic kpoint scheme                 
   0.00000000  0.00000000  0.00000000       0.016
   0.02505897 -0.00885969  0.00000000       0.125
   0.05011795 -0.01771937  0.00000000       0.062
   0.02505897  0.01771937  0.00000000       0.094
   0.05011795  0.00885969  0.00000000       0.375
  -0.02505897  0.03543874  0.00000000       0.188
   0.05011795  0.03543874  0.00000000       0.047
  -0.03758846  0.05315811  0.02170171       0.094
 
 k-points in reciprocal lattice and weights: Automatic kpoint scheme                 
   0.00000000  0.00000000  0.00000000       0.016
   0.25000000  0.00000000  0.00000000       0.125
   0.50000000  0.00000000  0.00000000       0.062
   0.25000000  0.25000000  0.00000000       0.094
   0.50000000  0.25000000  0.00000000       0.375
  -0.25000000  0.25000000  0.00000000       0.188
   0.50000000  0.50000000  0.00000000       0.047
  -0.25000000  0.50000000  0.25000000       0.094
 
 position of ions in fractional coordinates (direct lattice) 
   0.29166667  0.29166667  0.29166667
   0.29166667  0.29166667  0.62500000
   0.29166667  0.29166667  0.95833333
   0.29166667  0.62500000  0.29166667
   0.29166667  0.62500000  0.62500000
   0.29166667  0.62500000  0.95833333
   0.29166667  0.95833333  0.29166667
   0.29166667  0.95833333  0.62500000
   0.29166667  0.95833333  0.95833333
   0.62500000  0.29166667  0.29166667
   0.62500000  0.29166667  0.62500000
   0.62500000  0.29166667  0.95833333
   0.62500000  0.62500000  0.29166667
   0.62500000  0.62500000  0.62500000
   0.62500000  0.62500000  0.95833333
   0.62500000  0.95833333  0.29166667
   0.62500000  0.95833333  0.62500000
   0.62500000  0.95833333  0.95833333
   0.95833333  0.29166667  0.29166667
   0.95833333  0.29166667  0.62500000
   0.95833333  0.29166667  0.95833333
   0.95833333  0.62500000  0.29166667
   0.95833333  0.62500000  0.62500000
   0.95833333  0.62500000  0.95833333
   0.95833333  0.95833333  0.29166667
   0.95833333  0.95833333  0.62500000
   0.95833333  0.95833333  0.95833333
   0.04166667  0.04166667  0.04166667
   0.04166667  0.04166667  0.37500000
   0.04166667  0.04166667  0.70833333
   0.04166667  0.37500000  0.04166667
   0.04166667  0.37500000  0.37500000
   0.04166667  0.37500000  0.70833333
   0.04166667  0.70833333  0.04166667
   0.04166667  0.70833333  0.37500000
   0.04166667  0.70833333  0.70833333
   0.37500000  0.04166667  0.04166667
   0.37500000  0.04166667  0.37500000
   0.37500000  0.04166667  0.70833333
   0.37500000  0.37500000  0.04166667
   0.37500000  0.37500000  0.37500000
   0.37500000  0.37500000  0.70833333
   0.37500000  0.70833333  0.04166667
   0.37500000  0.70833333  0.37500000
   0.37500000  0.70833333  0.70833333
   0.70833333  0.04166667  0.04166667
   0.70833333  0.04166667  0.37500000
   0.70833333  0.04166667  0.70833333
   0.70833333  0.37500000  0.04166667
   0.70833333  0.37500000  0.37500000
   0.70833333  0.37500000  0.70833333
   0.70833333  0.70833333  0.04166667
   0.70833333  0.70833333  0.37500000
   0.70833333  0.70833333  0.70833333
 
 position of ions in cartesian coordinates  (Angst):
   3.87973659  2.74338806  6.71990091
   3.87973659  2.74338806 10.55984429
   3.87973659  2.74338806 14.39978767
   4.98823276  5.87868870  8.63987260
   4.98823276  5.87868870 12.47981598
   4.98823276  5.87868870 16.31975937
   6.09672893  9.01398934 10.55984429
   6.09672893  9.01398934 14.39978767
   6.09672893  9.01398934 18.23973106
   7.20522510  2.74338806  8.63987260
   7.20522510  2.74338806 12.47981598
   7.20522510  2.74338806 16.31975937
   8.31372128  5.87868870 10.55984429
   8.31372128  5.87868870 14.39978767
   8.31372128  5.87868870 18.23973106
   9.42221745  9.01398934 12.47981598
   9.42221745  9.01398934 16.31975937
   9.42221745  9.01398934 20.15970275
  10.53071362  2.74338806 10.55984429
  10.53071362  2.74338806 14.39978767
  10.53071362  2.74338806 18.23973106
  11.63920979  5.87868870 12.47981598
  11.63920979  5.87868870 16.31975937
  11.63920979  5.87868870 20.15970275
  12.74770596  9.01398934 14.39978767
  12.74770596  9.01398934 18.23973106
  12.74770596  9.01398934 22.07967444
   0.55424808  0.39191258  0.95998584
   0.55424808  0.39191258  4.79992922
   0.55424808  0.39191258  8.63987260
   1.66274425  3.52721322  2.87995753
   1.66274425  3.52721322  6.71990091
   1.66274425  3.52721322 10.55984430
   2.77124042  6.66251386  4.79992922
   2.77124042  6.66251386  8.63987261
   2.77124042  6.66251386 12.47981599
   3.87973659  0.39191258  2.87995753
   3.87973659  0.39191258  6.71990091
   3.87973659  0.39191258 10.55984430
   4.98823277  3.52721322  4.79992922
   4.98823277  3.52721322  8.63987261
   4.98823277  3.52721322 12.47981599
   6.09672894  6.66251386  6.71990091
   6.09672894  6.66251386 10.55984430
   6.09672894  6.66251386 14.39978768
   7.20522511  0.39191258  4.79992922
   7.20522511  0.39191258  8.63987261
   7.20522511  0.39191258 12.47981599
   8.31372128  3.52721322  6.71990091
   8.31372128  3.52721322 10.55984430
   8.31372128  3.52721322 14.39978768
   9.42221745  6.66251386  8.63987260
   9.42221745  6.66251386 12.47981599
   9.42221745  6.66251386 16.31975937
 


--------------------------------------------------------------------------------------------------------


 k-point  1 :   0.0000 0.0000 0.0000  plane waves:   31415
 k-point  2 :   0.2500 0.0000 0.0000  plane waves:   31608
 k-point  3 :   0.5000 0.0000 0.0000  plane waves:   31638
 k-point  4 :   0.2500 0.2500 0.0000  plane waves:   31695
 k-point  5 :   0.5000 0.2500 0.0000  plane waves:   31649
 k-point  6 :  -0.2500 0.2500 0.0000  plane waves:   31674
 k-point  7 :   0.5000 0.5000 0.0000  plane waves:   31716
 k-point  8 :  -0.2500 0.5000 0.2500  plane waves:   31684

 maximum and minimum number of plane-waves per node :     31716    31415

 maximum number of plane-waves:     31716
 maximum index in each direction: 
   IXMAX=   22   IYMAX=   22   IZMAX=   22
   IXMIN=  -22   IYMIN=  -22   IZMIN=  -22


 serial   3D FFT for wavefunctions
 parallel 3D FFT for charge:
    minimum data exchange during FFTs selected (reduces bandwidth)


 total amount of memory used by VASP MPI-rank0   140598. kBytes
=======================================================================

   base      :      30000. kBytes
   nonl-proj :      59902. kBytes
   fftplans  :       5382. kBytes
   grid      :      20451. kBytes
   one-center:        165. kBytes
   wavefun   :      24698. kBytes
 
     INWAV:  cpu time    6.6746: real time    6.7422
 Broyden mixing: mesh for mixing (old mesh)
   NGX = 45   NGY = 45   NGZ = 45
  (NGX  =140   NGY  =140   NGZ  =140)
  gives a total of  91125 points

 charge density for first step will be calculated from the start-wavefunctions


--------------------------------------------------------------------------------------------------------


 Maximum index for augmentation-charges          503 (set IRDMAX)


--------------------------------------------------------------------------------------------------------


 initial charge from wavefunction
 First call to EWALD:  gamma=   0.173
 Maximum number of real-space cells 3x 3x 3
 Maximum number of reciprocal cells 3x 3x 3

    FEWALD:  cpu time    0.1146: real time    0.1159


--------------------------------------- Iteration      1(   1)  ---------------------------------------


    POTLOK:  cpu time    0.1281: real time    0.1397
    SETDIJ:  cpu time    0.0042: real time    0.0046
     EDDAV:  cpu time    4.5097: real time    4.5598
       DOS:  cpu time    0.3741: real time    0.3809
    CHARGE:  cpu time    0.2740: real time    0.2770
    MIXING:  cpu time    0.0082: real time    0.0087
    --------------------------------------------
      LOOP:  cpu time    5.2984: real time    5.3707

 eigenvalue-minimisations  :  2304
 total energy-change (2. order) :-0.3046726E+03  (-0.1596701E-05)
 number of electron     214.9999999 magnetization 
 augmentation part      -12.6429504 magnetization 

 Broyden mixing:
  rms(total) = 0.48830E-03    rms(broyden)= 0.48830E-03
  rms(prec ) = 0.72890E-03
  weight for this iteration     100.00

 Free energy of the ion-electron system (eV)
  ---------------------------------------------------
  alpha Z        PSCENC =        93.56316191
  Ewald energy   TEWEN  =     -6229.80980546
  -Hartree energ DENC   =      -412.13972503
  -exchange      EXHF   =         0.00000000
  -V(xc)+E(xc)   XCENC  =      -478.62536091
  PAW double counting   =     23023.57562172   -22088.52014354
  entropy T*S    EENTRO =        -0.00239518
  eigenvalues    EBANDS =       148.72099852
  atomic energy  EATOM  =      5638.56506835
  Solvation  Ediel_sol  =         0.00000000
  ---------------------------------------------------
  free energy    TOTEN  =      -304.67257961 eV

  energy without entropy =     -304.67018443  energy(sigma->0) =     -304.67138202


--------------------------------------------------------------------------------------------------------




--------------------------------------- Iteration      1(   2)  ---------------------------------------


    POTLOK:  cpu time    0.3889: real time    0.4181
    SETDIJ:  cpu time    0.0792: real time    0.0798
     EDDAV:  cpu time    3.7150: real time    3.7500
       DOS:  cpu time    0.8649: real time    0.8740
    --------------------------------------------
      LOOP:  cpu time    5.0479: real time    5.1219

 eigenvalue-minimisations  :  1728
 total energy-change (2. order) : 0.7635717E-06  (-0.2124157E-06)
 number of electron     214.9999999 magnetization 
 augmentation part      -12.6429504 magnetization 

 Free energy of the ion-electron system (eV)
  ---------------------------------------------------
  alpha Z        PSCENC =        93.56316191
  Ewald energy   TEWEN  =     -6229.80980546
  -Hartree energ DENC   =      -412.13510236
  -exchange      EXHF   =         0.00000000
  -V(xc)+E(xc)   XCENC  =      -478.62571956
  PAW double counting   =     23024.04665572   -22088.99088173
  entropy T*S    EENTRO =        -0.00239518
  eigenvalues    EBANDS =       148.71643946
  atomic energy  EATOM  =      5638.56506835
  Solvation  Ediel_sol  =         0.00000000
  ---------------------------------------------------
  free energy    TOTEN  =      -304.67257885 eV

  energy without entropy =     -304.67018367  energy(sigma->0) =     -304.67138126


--------------------------------------------------------------------------------------------------------




 average (electrostatic) potential at core
  the test charge radii are     0.9587  0.9892
  (the norm of the test charge is              1.0000)
       1 -83.7152       2 -83.3174       3 -83.3173       4 -83.3174       5 -83.2155
       6 -83.3174       7 -83.3173       8 -83.3174       9 -83.2112      10 -83.3174
      11 -83.2155      12 -83.3174      13 -83.2155      14 -83.2155      15 -83.1896
      16 -83.3174      17 -83.1896      18 -83.1896      19 -83.3173      20 -83.3174
      21 -83.2112      22 -83.3174      23 -83.1896      24 -83.1896      25 -83.2112
      26 -83.1896      27 -83.2112      28 -83.1861      29 -83.2272      30 -83.2272
      31 -83.2272      32 -83.7811      33 -83.2272      34 -83.2272      35 -83.2272
      36 -83.1855      37 -83.2272      38 -83.7811      39 -83.2272      40 -83.7811
      41 -83.7811      42 -83.3015      43 -83.2272      44 -83.3015      45 -83.3015
      46 -83.2272      47 -83.2272      48 -83.1855      49 -83.2272      50 -83.3015
      51 -83.3015      52 -83.1855      53 -83.3015      54 -83.1855
 
 
 
 E-fermi :   5.5161     XC(G=0):  -9.3794     alpha+bet :-11.9596


 k-point     1 :       0.0000    0.0000    0.0000
  band No.  band energies     occupation 
      1      -6.7258      2.00000
      2      -5.8196      2.00000
      3      -4.7807      2.00000
      4      -4.7807      2.00000
      5      -4.7807      2.00000
      6      -4.7241      2.00000
      7      -4.7241      2.00000
      8      -4.7241      2.00000
      9      -4.6937      2.00000
     10      -4.3638      2.00000
     11      -4.2241      2.00000
     12      -4.2241      2.00000
     13      -4.2241      2.00000
     14      -4.2042      2.00000
     15      -4.2042      2.00000
     16      -3.4164      2.00000
     17      -2.9525      2.00000
     18      -2.9525      2.00000
     19      -2.9525      2.00000
     20      -2.8581      2.00000
     21      -2.8581      2.00000
     22      -2.8581      2.00000
     23      -2.8349      2.00000
     24      -2.8349      2.00000
     25      -2.8090      2.00000
     26      -2.8090      2.00000
     27      -2.8090      2.00000
     28      -1.4381      2.00000
     29      -1.0778      2.00000
     30      -1.0778      2.00000
     31      -1.0778      2.00000
     32      -0.9375      2.00000
     33      -0.9375      2.00000
     34      -0.9375      2.00000
     35      -0.9069      2.00000
     36      -0.9069      2.00000
     37      -0.8836      2.00000
     38      -0.8836      2.00000
     39      -0.8836      2.00000
     40       0.2491      2.00000
     41       0.3357      2.00000
     42       0.3357      2.00000
     43       0.3357      2.00000
     44       0.5088      2.00000
     45       0.5088      2.00000
     46       0.5088      2.00000
     47       0.5259      2.00000
     48       0.7691      2.00000
     49       0.7894      2.00000
     50       0.7894      2.00000
     51       0.7894      2.00000
     52       0.8308      2.00000
     53       0.8308      2.00000
     54       1.2031      2.00000
     55       1.2031      2.00000
     56       1.2031      2.00000
     57       1.4125      2.00000
     58       1.4125      2.00000
     59       1.4769      2.00000
     60       1.4769      2.00000
     61       1.4769      2.00000
     62       1.4910      2.00000
     63       1.4910      2.00000
     64       1.4910      2.00000
     65       1.4933      2.00000
     66       2.9682      2.00000
     67       2.9682      2.00000
     68       2.9682      2.00000
     69       3.3943      2.00000
     70       3.3943      2.00000
     71       3.3943      2.00000
     72       3.4236      2.00000
     73       3.4236      2.00000
     74       3.4236      2.00000
     75       3.4478      2.00000
     76       3.4478      2.00000
     77       3.4478      2.00000
     78       3.6622      2.00000
     79       3.6622      2.00000
     80       3.6622      2.00000
     81       3.7215      2.00000
     82       3.7215      2.00000
     83       3.7215      2.00000
     84       3.7279      2.00000
     85       3.7279      2.00000
     86       3.7436      2.00000
     87       3.7562      2.00000
     88       3.7562      2.00000
     89       3.7562      2.00000
     90       4.5806      2.00000
     91       4.5806      2.00000
     92       4.5806      2.00000
     93       4.8126      2.00000
     94       4.8126      2.00000
     95       4.8148      2.00000
     96       4.8148      2.00000
     97       4.8148      2.00000
     98       4.8674      2.00000
     99       4.8674      2.00000
    100       4.8674      2.00000
    101       4.8702      2.00000
    102       4.8702      2.00000
    103       4.8706      2.00000
    104       4.8706      2.00000
    105       4.8706      2.00000
    106       5.8039      0.00000
    107       5.8039      0.00000
    108       5.8039      0.00000
    109       6.2883      0.00000
    110       6.5254      0.00000
    111       6.5254      0.00000
    112       6.5254      0.00000
    113       6.5830      0.00000
    114       6.5830      0.00000
    115       6.9260      0.00000
    116       7.3199      0.00000
    117       7.3199      0.00000
    118       7.3199      0.00000
    119       7.3899      0.00000
    120       7.3899      0.00000
    121       7.4263      0.00000
    122       7.4263      0.00000
    123       7.4263      0.00000
    124       7.4427      0.00000
    125       7.4427      0.00000
    126       7.4427      0.00000
    127       7.5445      0.00000
    128       7.5772      0.00000
    129       7.5772      0.00000
    130       7.5772      0.00000
    131       7.6423      0.00000
    132       7.6483      0.00000
    133       7.6483      0.00000
    134       7.6483      0.00000
    135       7.8492      0.00000
    136       7.8492      0.00000
    137       7.8492      0.00000
    138       7.8566      0.00000
    139       7.8566      0.00000
    140       7.8612      0.00000
    141       8.3534      0.00000
    142       8.3534      0.00000
    143       8.3534      0.00000
    144       9.1298      0.00000

 k-point     2 :       0.2500    0.0000    0.0000
  band No.  band energies     occupation 
      1      -6.7074      2.00000
      2      -5.7913      2.00000
      3      -5.2274      2.00000
      4      -4.8806      2.00000
      5      -4.8806      2.00000
      6      -4.7026      2.00000
      7      -4.6089      2.00000
      8      -4.6089      2.00000
      9      -4.5209      2.00000
     10      -4.4469      2.00000
     11      -4.4469      2.00000
     12      -4.1927      2.00000
     13      -3.8709      2.00000
     14      -3.6896      2.00000
     15      -3.6896      2.00000
     16      -3.5904      2.00000
     17      -3.4553      2.00000
     18      -3.4553      2.00000
     19      -3.1054      2.00000
     20      -2.9045      2.00000
     21      -2.9045      2.00000
     22      -2.8533      2.00000
     23      -2.8159      2.00000
     24      -2.8159      2.00000
     25      -2.6754      2.00000
     26      -2.5882      2.00000
     27      -2.5882      2.00000
     28      -1.5187      2.00000
     29      -1.2366      2.00000
     30      -1.2366      2.00000
     31      -1.1980      2.00000
     32      -1.0498      2.00000
     33      -1.0498      2.00000
     34      -0.9731      2.00000
     35      -0.9370      2.00000
     36      -0.9370      2.00000
     37      -0.6738      2.00000
     38      -0.5263      2.00000
     39      -0.4927      2.00000
     40      -0.4927      2.00000
     41      -0.1175      2.00000
     42      -0.0077      2.00000
     43      -0.0077      2.00000
     44       0.1095      2.00000
     45       0.1095      2.00000
     46       0.1377      2.00000
     47       0.8445      2.00000
     48       0.8792      2.00000
     49       0.8792      2.00000
     50       1.2597      2.00000
     51       1.2850      2.00000
     52       1.2850      2.00000
     53       1.4207      2.00000
     54       1.4737      2.00000
     55       1.4737      2.00000
     56       1.6150      2.00000
     57       1.6150      2.00000
     58       1.6515      2.00000
     59       1.6726      2.00000
     60       1.6731      2.00000
     61       1.6731      2.00000
     62       1.7725      2.00000
     63       1.8377      2.00000
     64       1.8377      2.00000
     65       1.9346      2.00000
     66       2.6865      2.00000
     67       2.8155      2.00000
     68       2.8155      2.00000
     69       3.0677      2.00000
     70       3.0677      2.00000
     71       3.1555      2.00000
     72       3.2757      2.00000
     73       3.3561      2.00000
     74       3.3561      2.00000
     75       3.4166      2.00000
     76       3.4166      2.00000
     77       3.4235      2.00000
     78       3.4403      2.00000
     79       3.4403      2.00000
     80       3.4543      2.00000
     81       3.5012      2.00000
     82       3.5146      2.00000
     83       3.5146      2.00000
     84       3.6522      2.00000
     85       3.6522      2.00000
     86       3.7141      2.00000
     87       3.8859      2.00000
     88       3.9870      2.00000
     89       3.9870      2.00000
     90       4.0560      2.00000
     91       4.0560      2.00000
     92       4.1253      2.00000
     93       4.4299      2.00000
     94       4.4299      2.00000
     95       4.4688      2.00000
     96       4.5284      2.00000
     97       4.5620      2.00000
     98       4.5620      2.00000
     99       4.6516      2.00000
    100       4.6516      2.00000
    101       4.8134      2.00000
    102       4.8134      2.00000
    103       4.8521      2.00000
    104       4.9617      2.00000
    105       5.0565      2.00000
    106       5.0565      2.00000
    107       5.6644      0.00003
    108       5.6644      0.00003
    109       6.5401      0.00000
    110       6.7025      0.00000
    111       6.7025      0.00000
    112       6.8245      0.00000
    113       7.0169      0.00000
    114       7.0169      0.00000
    115       7.0890      0.00000
    116       7.1199      0.00000
    117       7.1199      0.00000
    118       7.3303      0.00000
    119       7.5190      0.00000
    120       7.6858      0.00000
    121       7.6858      0.00000
    122       7.7640      0.00000
    123       7.8343      0.00000
    124       7.8343      0.00000
    125       7.8656      0.00000
    126       7.9147      0.00000
    127       7.9379      0.00000
    128       7.9379      0.00000
    129       7.9948      0.00000
    130       7.9948      0.00000
    131       8.0099      0.00000
    132       8.0428      0.00000
    133       8.0463      0.00000
    134       8.0463      0.00000
    135       8.1369      0.00000
    136       8.1548      0.00000
    137       8.1548      0.00000
    138       8.3966      0.00000
    139       8.5563      0.00000
    140       8.5563      0.00000
    141       8.6088      0.00000
    142       8.6356      0.00000
    143       8.6356      0.00000
    144       8.9889      0.00000

 k-point     3 :       0.5000    0.0000    0.0000
  band No.  band energies     occupation 
      1      -6.6881      2.00000
      2      -5.7297      2.00000
      3      -5.4670      2.00000
      4      -4.8705      2.00000
      5      -4.8705      2.00000
      6      -4.7817      2.00000
      7      -4.7817      2.00000
      8      -4.7659      2.00000
      9      -4.3906      2.00000
     10      -4.0489      2.00000
     11      -4.0392      2.00000
     12      -4.0392      2.00000
     13      -3.9969      2.00000
     14      -3.9969      2.00000
     15      -3.8183      2.00000
     16      -3.3950      2.00000
     17      -3.0955      2.00000
     18      -3.0824      2.00000
     19      -3.0824      2.00000
     20      -3.0449      2.00000
     21      -3.0449      2.00000
     22      -2.9324      2.00000
     23      -2.8835      2.00000
     24      -2.8835      2.00000
     25      -2.8484      2.00000
     26      -2.8100      2.00000
     27      -2.8100      2.00000
     28      -1.4657      2.00000
     29      -1.2021      2.00000
     30      -1.1082      2.00000
     31      -1.1082      2.00000
     32      -1.0070      2.00000
     33      -0.9753      2.00000
     34      -0.9753      2.00000
     35      -0.8794      2.00000
     36      -0.7555      2.00000
     37      -0.7555      2.00000
     38      -0.7320      2.00000
     39      -0.7156      2.00000
     40      -0.7156      2.00000
     41      -0.2413      2.00000
     42      -0.2413      2.00000
     43      -0.2398      2.00000
     44      -0.1643      2.00000
     45      -0.1530      2.00000
     46      -0.1530      2.00000
     47       1.1650      2.00000
     48       1.1878      2.00000
     49       1.1878      2.00000
     50       1.4111      2.00000
     51       1.4111      2.00000
     52       1.4408      2.00000
     53       1.6610      2.00000
     54       1.6610      2.00000
     55       1.7695      2.00000
     56       1.8616      2.00000
     57       1.8670      2.00000
     58       1.8670      2.00000
     59       1.8808      2.00000
     60       2.1533      2.00000
     61       2.1533      2.00000
     62       2.2229      2.00000
     63       2.2229      2.00000
     64       2.2400      2.00000
     65       2.5081      2.00000
     66       2.7350      2.00000
     67       2.7475      2.00000
     68       2.7475      2.00000
     69       2.8043      2.00000
     70       2.8043      2.00000
     71       2.9831      2.00000
     72       2.9831      2.00000
     73       3.0085      2.00000
     74       3.0864      2.00000
     75       3.1092      2.00000
     76       3.1092      2.00000
     77       3.1239      2.00000
     78       3.1239      2.00000
     79       3.2606      2.00000
     80       3.3229      2.00000
     81       3.3229      2.00000
     82       3.3231      2.00000
     83       3.4012      2.00000
     84       3.4271      2.00000
     85       3.7251      2.00000
     86       3.7901      2.00000
     87       3.7901      2.00000
     88       3.8746      2.00000
     89       3.8819      2.00000
     90       3.8819      2.00000
     91       3.9236      2.00000
     92       3.9236      2.00000
     93       4.0836      2.00000
     94       4.0917      2.00000
     95       4.0917      2.00000
     96       4.1105      2.00000
     97       4.4395      2.00000
     98       4.4395      2.00000
     99       4.5392      2.00000
    100       4.5404      2.00000
    101       4.5404      2.00000
    102       4.5629      2.00000
    103       4.6307      2.00000
    104       4.6307      2.00000
    105       5.3039      2.00000
    106       5.3039      2.00000
    107       5.4123      1.99666
    108       5.4123      1.99666
    109       6.6357      0.00000
    110       6.8286      0.00000
    111       6.8286      0.00000
    112       6.9549      0.00000
    113       6.9634      0.00000
    114       6.9634      0.00000
    115       7.2844      0.00000
    116       7.5657      0.00000
    117       7.7561      0.00000
    118       7.7561      0.00000
    119       7.7951      0.00000
    120       7.8295      0.00000
    121       7.8295      0.00000
    122       8.0486      0.00000
    123       8.1869      0.00000
    124       8.2460      0.00000
    125       8.2499      0.00000
    126       8.2499      0.00000
    127       8.3096      0.00000
    128       8.3096      0.00000
    129       8.3127      0.00000
    130       8.3833      0.00000
    131       8.5029      0.00000
    132       8.5029      0.00000
    133       8.5486      0.00000
    134       8.5667      0.00000
    135       8.5667      0.00000
    136       8.8814      0.00000
    137       8.8814      0.00000
    138       9.0072      0.00000
    139       9.0768      0.00000
    140       9.0769      0.00000
    141       9.1515      0.00000
    142       9.1524      0.00000
    143       9.1600      0.00000
    144       9.2005      0.00000

 k-point     4 :       0.2500    0.2500    0.0000
  band No.  band energies     occupation 
      1      -6.7018      2.00000
      2      -5.7747      2.00000
      3      -5.0688      2.00000
      4      -5.0688      2.00000
      5      -5.0468      2.00000
      6      -4.9945      2.00000
      7      -4.7018      2.00000
      8      -4.2711      2.00000
      9      -4.2711      2.00000
     10      -4.2235      2.00000
     11      -4.1368      2.00000
     12      -4.1108      2.00000
     13      -4.1108      2.00000
     14      -4.1062      2.00000
     15      -3.6669      2.00000
     16      -3.4119      2.00000
     17      -3.4119      2.00000
     18      -3.3774      2.00000
     19      -3.2608      2.00000
     20      -3.1483      2.00000
     21      -3.0782      2.00000
     22      -3.0782      2.00000
     23      -3.0653      2.00000
     24      -2.5135      2.00000
     25      -2.3511      2.00000
     26      -2.3511      2.00000
     27      -2.3170      2.00000
     28      -1.6546      2.00000
     29      -1.4596      2.00000
     30      -1.4596      2.00000
     31      -1.4064      2.00000
     32      -1.1073      2.00000
     33      -1.0131      2.00000
     34      -0.9918      2.00000
     35      -0.9918      2.00000
     36      -0.6831      2.00000
     37      -0.5014      2.00000
     38      -0.4376      2.00000
     39      -0.4376      2.00000
     40      -0.3703      2.00000
     41      -0.3078      2.00000
     42      -0.2800      2.00000
     43      -0.2800      2.00000
     44      -0.2501      2.00000
     45       0.5366      2.00000
     46       0.5821      2.00000
     47       0.5821      2.00000
     48       0.6576      2.00000
     49       1.1455      2.00000
     50       1.2642      2.00000
     51       1.2642      2.00000
     52       1.4112      2.00000
     53       1.5228      2.00000
     54       1.5235      2.00000
     55       1.5235      2.00000
     56       1.5969      2.00000
     57       1.6889      2.00000
     58       1.7094      2.00000
     59       1.7094      2.00000
     60       1.7139      2.00000
     61       1.8933      2.00000
     62       1.9401      2.00000
     63       1.9401      2.00000
     64       1.9631      2.00000
     65       2.2914      2.00000
     66       2.7098      2.00000
     67       2.7367      2.00000
     68       2.7367      2.00000
     69       2.9947      2.00000
     70       3.0522      2.00000
     71       3.0592      2.00000
     72       3.0592      2.00000
     73       3.0854      2.00000
     74       3.0990      2.00000
     75       3.0990      2.00000
     76       3.3242      2.00000
     77       3.3816      2.00000
     78       3.3816      2.00000
     79       3.4350      2.00000
     80       3.6256      2.00000
     81       3.6256      2.00000
     82       3.6809      2.00000
     83       3.7716      2.00000
     84       3.7737      2.00000
     85       3.7737      2.00000
     86       3.8203      2.00000
     87       3.8227      2.00000
     88       3.9589      2.00000
     89       3.9589      2.00000
     90       4.0100      2.00000
     91       4.1111      2.00000
     92       4.1111      2.00000
     93       4.1511      2.00000
     94       4.2460      2.00000
     95       4.2613      2.00000
     96       4.2613      2.00000
     97       4.2753      2.00000
     98       4.3732      2.00000
     99       4.3732      2.00000
    100       4.4366      2.00000
    101       4.4378      2.00000
    102       5.0643      2.00000
    103       5.0643      2.00000
    104       5.1087      2.00000
    105       5.1569      2.00000
    106       5.1596      2.00000
    107       5.3972      1.99922
    108       5.3972      1.99922
    109       6.3806      0.00000
    110       6.7276      0.00000
    111       7.0236      0.00000
    112       7.1083      0.00000
    113       7.1622      0.00000
    114       7.1622      0.00000
    115       7.2430      0.00000
    116       7.3961      0.00000
    117       7.4714      0.00000
    118       7.5591      0.00000
    119       7.5591      0.00000
    120       7.5717      0.00000
    121       7.5862      0.00000
    122       7.5862      0.00000
    123       7.6024      0.00000
    124       7.8109      0.00000
    125       7.9012      0.00000
    126       7.9646      0.00000
    127       7.9646      0.00000
    128       8.1094      0.00000
    129       8.1543      0.00000
    130       8.2329      0.00000
    131       8.2329      0.00000
    132       8.2798      0.00000
    133       8.2981      0.00000
    134       8.3161      0.00000
    135       8.3161      0.00000
    136       8.3346      0.00000
    137       8.3977      0.00000
    138       8.3977      0.00000
    139       8.4082      0.00000
    140       8.4155      0.00000
    141       8.8587      0.00000
    142       8.8587      0.00000
    143       8.9442      0.00000
    144       9.0720      0.00000

 k-point     5 :       0.5000    0.2500    0.0000
  band No.  band energies     occupation 
      1      -6.6831      2.00000
      2      -5.6780      2.00000
      3      -5.4405      2.00000
      4      -5.1965      2.00000
      5      -5.0896      2.00000
      6      -4.8398      2.00000
      7      -4.5880      2.00000
      8      -4.4014      2.00000
      9      -4.2506      2.00000
     10      -4.1606      2.00000
     11      -4.0082      2.00000
     12      -3.9656      2.00000
     13      -3.8867      2.00000
     14      -3.7937      2.00000
     15      -3.6482      2.00000
     16      -3.5283      2.00000
     17      -3.5125      2.00000
     18      -3.4316      2.00000
     19      -3.3346      2.00000
     20      -3.2867      2.00000
     21      -3.2114      2.00000
     22      -3.1966      2.00000
     23      -2.7098      2.00000
     24      -2.5434      2.00000
     25      -2.4925      2.00000
     26      -2.4154      2.00000
     27      -2.3753      2.00000
     28      -1.6472      2.00000
     29      -1.3773      2.00000
     30      -1.3627      2.00000
     31      -1.2925      2.00000
     32      -1.2916      2.00000
     33      -1.0740      2.00000
     34      -1.0105      2.00000
     35      -0.9383      2.00000
     36      -0.9371      2.00000
     37      -0.6723      2.00000
     38      -0.5897      2.00000
     39      -0.5805      2.00000
     40      -0.5501      2.00000
     41      -0.5393      2.00000
     42      -0.2457      2.00000
     43      -0.1924      2.00000
     44       0.0894      2.00000
     45       0.1365      2.00000
     46       0.1395      2.00000
     47       0.7916      2.00000
     48       0.8141      2.00000
     49       0.9144      2.00000
     50       1.5234      2.00000
     51       1.5509      2.00000
     52       1.6929      2.00000
     53       1.8185      2.00000
     54       1.8451      2.00000
     55       1.9379      2.00000
     56       1.9382      2.00000
     57       2.0741      2.00000
     58       2.1141      2.00000
     59       2.2769      2.00000
     60       2.2842      2.00000
     61       2.3590      2.00000
     62       2.3715      2.00000
     63       2.3733      2.00000
     64       2.3982      2.00000
     65       2.4955      2.00000
     66       2.5473      2.00000
     67       2.5929      2.00000
     68       2.6692      2.00000
     69       2.7326      2.00000
     70       2.7784      2.00000
     71       2.7973      2.00000
     72       2.8937      2.00000
     73       2.9016      2.00000
     74       2.9689      2.00000
     75       2.9821      2.00000
     76       3.0134      2.00000
     77       3.1229      2.00000
     78       3.1732      2.00000
     79       3.1842      2.00000
     80       3.2190      2.00000
     81       3.2473      2.00000
     82       3.2809      2.00000
     83       3.3995      2.00000
     84       3.5507      2.00000
     85       3.5847      2.00000
     86       3.6393      2.00000
     87       3.6628      2.00000
     88       3.7051      2.00000
     89       3.8516      2.00000
     90       3.8735      2.00000
     91       3.8937      2.00000
     92       3.9623      2.00000
     93       4.0005      2.00000
     94       4.1462      2.00000
     95       4.1495      2.00000
     96       4.2111      2.00000
     97       4.2355      2.00000
     98       4.2858      2.00000
     99       4.2871      2.00000
    100       4.3212      2.00000
    101       4.4376      2.00000
    102       4.4516      2.00000
    103       4.7927      2.00000
    104       4.8569      2.00000
    105       4.8656      2.00000
    106       5.0346      2.00000
    107       5.2116      2.00000
    108       5.4546      1.91815
    109       6.5726      0.00000
    110       7.0442      0.00000
    111       7.2186      0.00000
    112       7.3150      0.00000
    113       7.3341      0.00000
    114       7.5069      0.00000
    115       7.5545      0.00000
    116       7.5696      0.00000
    117       7.7303      0.00000
    118       7.8621      0.00000
    119       7.8944      0.00000
    120       7.9470      0.00000
    121       8.0022      0.00000
    122       8.0526      0.00000
    123       8.1713      0.00000
    124       8.2306      0.00000
    125       8.2901      0.00000
    126       8.3696      0.00000
    127       8.4039      0.00000
    128       8.4453      0.00000
    129       8.4860      0.00000
    130       8.4896      0.00000
    131       8.5239      0.00000
    132       8.6094      0.00000
    133       8.7172      0.00000
    134       8.7321      0.00000
    135       8.7960      0.00000
    136       8.8132      0.00000
    137       8.9027      0.00000
    138       8.9078      0.00000
    139       8.9555      0.00000
    140       8.9570      0.00000
    141       9.0008      0.00000
    142       9.0516      0.00000
    143       9.0660      0.00000
    144       9.0748      0.00000

 k-point     6 :      -0.2500    0.2500    0.0000
  band No.  band energies     occupation 
      1      -6.6890      2.00000
      2      -5.7219      2.00000
      3      -5.3946      2.00000
      4      -5.1800      2.00000
      5      -4.9394      2.00000
      6      -4.7788      2.00000
      7      -4.5298      2.00000
      8      -4.4918      2.00000
      9      -4.4859      2.00000
     10      -4.2706      2.00000
     11      -4.0608      2.00000
     12      -4.0261      2.00000
     13      -3.9259      2.00000
     14      -3.8660      2.00000
     15      -3.6483      2.00000
     16      -3.4528      2.00000
     17      -3.4142      2.00000
     18      -3.3819      2.00000
     19      -3.1931      2.00000
     20      -3.1098      2.00000
     21      -3.0413      2.00000
     22      -2.9435      2.00000
     23      -2.9088      2.00000
     24      -2.9062      2.00000
     25      -2.6784      2.00000
     26      -2.6103      2.00000
     27      -2.1795      2.00000
     28      -1.7994      2.00000
     29      -1.3593      2.00000
     30      -1.1167      2.00000
     31      -1.1110      2.00000
     32      -1.0330      2.00000
     33      -0.9453      2.00000
     34      -0.8885      2.00000
     35      -0.8430      2.00000
     36      -0.8307      2.00000
     37      -0.7955      2.00000
     38      -0.7795      2.00000
     39      -0.7041      2.00000
     40      -0.6735      2.00000
     41      -0.6434      2.00000
     42      -0.6411      2.00000
     43       0.2297      2.00000
     44       0.2735      2.00000
     45       0.3849      2.00000
     46       0.4539      2.00000
     47       0.5043      2.00000
     48       0.5755      2.00000
     49       0.5786      2.00000
     50       1.4593      2.00000
     51       1.4660      2.00000
     52       1.5777      2.00000
     53       1.7739      2.00000
     54       1.8126      2.00000
     55       1.8635      2.00000
     56       1.9174      2.00000
     57       1.9447      2.00000
     58       1.9619      2.00000
     59       2.0556      2.00000
     60       2.1564      2.00000
     61       2.2146      2.00000
     62       2.2232      2.00000
     63       2.2724      2.00000
     64       2.3985      2.00000
     65       2.4030      2.00000
     66       2.5169      2.00000
     67       2.5845      2.00000
     68       2.7020      2.00000
     69       2.7667      2.00000
     70       2.8099      2.00000
     71       2.8508      2.00000
     72       2.8637      2.00000
     73       2.8879      2.00000
     74       3.0828      2.00000
     75       3.1151      2.00000
     76       3.1429      2.00000
     77       3.2050      2.00000
     78       3.2308      2.00000
     79       3.2966      2.00000
     80       3.3824      2.00000
     81       3.4148      2.00000
     82       3.4269      2.00000
     83       3.4763      2.00000
     84       3.4783      2.00000
     85       3.5399      2.00000
     86       3.6098      2.00000
     87       3.7175      2.00000
     88       3.8365      2.00000
     89       3.8518      2.00000
     90       3.8694      2.00000
     91       3.9423      2.00000
     92       3.9501      2.00000
     93       4.1549      2.00000
     94       4.2061      2.00000
     95       4.2264      2.00000
     96       4.3255      2.00000
     97       4.4183      2.00000
     98       4.5008      2.00000
     99       4.5491      2.00000
    100       4.5571      2.00000
    101       4.5707      2.00000
    102       4.6110      2.00000
    103       4.7320      2.00000
    104       4.7398      2.00000
    105       4.8530      2.00000
    106       4.8917      2.00000
    107       4.9906      2.00000
    108       5.6841      0.00000
    109       6.6960      0.00000
    110       6.9856      0.00000
    111       7.0269      0.00000
    112       7.1184      0.00000
    113       7.2733      0.00000
    114       7.3485      0.00000
    115       7.5391      0.00000
    116       7.6098      0.00000
    117       7.6281      0.00000
    118       7.6594      0.00000
    119       7.7201      0.00000
    120       7.7433      0.00000
    121       7.7538      0.00000
    122       7.8340      0.00000
    123       7.9159      0.00000
    124       8.1449      0.00000
    125       8.2431      0.00000
    126       8.2987      0.00000
    127       8.3113      0.00000
    128       8.3191      0.00000
    129       8.3535      0.00000
    130       8.4137      0.00000
    131       8.4446      0.00000
    132       8.5125      0.00000
    133       8.5134      0.00000
    134       8.5346      0.00000
    135       8.5469      0.00000
    136       8.6486      0.00000
    137       8.7127      0.00000
    138       8.7254      0.00000
    139       8.8484      0.00000
    140       8.9961      0.00000
    141       9.0433      0.00000
    142       9.1162      0.00000
    143       9.1572      0.00000
    144       9.1945      0.00000

 k-point     7 :       0.5000    0.5000    0.0000
  band No.  band energies     occupation 
      1      -6.6778      2.00000
      2      -5.6268      2.00000
      3      -5.4209      2.00000
      4      -5.1764      2.00000
      5      -5.1764      2.00000
      6      -5.1465      2.00000
      7      -4.6430      2.00000
      8      -3.9266      2.00000
      9      -3.9266      2.00000
     10      -3.8478      2.00000
     11      -3.8424      2.00000
     12      -3.7999      2.00000
     13      -3.7999      2.00000
     14      -3.7908      2.00000
     15      -3.7067      2.00000
     16      -3.6800      2.00000
     17      -3.6374      2.00000
     18      -3.6374      2.00000
     19      -3.6101      2.00000
     20      -3.5978      2.00000
     21      -3.5978      2.00000
     22      -3.5816      2.00000
     23      -2.3601      2.00000
     24      -2.0418      2.00000
     25      -1.9375      2.00000
     26      -1.9375      2.00000
     27      -1.9330      2.00000
     28      -1.8696      2.00000
     29      -1.8632      2.00000
     30      -1.8447      2.00000
     31      -1.8447      2.00000
     32      -1.8332      2.00000
     33      -0.9692      2.00000
     34      -0.8830      2.00000
     35      -0.8830      2.00000
     36      -0.8688      2.00000
     37      -0.7382      2.00000
     38      -0.7315      2.00000
     39      -0.7263      2.00000
     40      -0.7263      2.00000
     41      -0.0483      2.00000
     42       0.0789      2.00000
     43       0.0789      2.00000
     44       0.1752      2.00000
     45       0.2010      2.00000
     46       0.2133      2.00000
     47       0.2133      2.00000
     48       0.2283      2.00000
     49       1.5986      2.00000
     50       1.7074      2.00000
     51       1.7074      2.00000
     52       1.9890      2.00000
     53       2.1406      2.00000
     54       2.1406      2.00000
     55       2.1503      2.00000
     56       2.1869      2.00000
     57       2.1932      2.00000
     58       2.2074      2.00000
     59       2.2074      2.00000
     60       2.2076      2.00000
     61       2.2706      2.00000
     62       2.2945      2.00000
     63       2.2945      2.00000
     64       2.2952      2.00000
     65       2.3006      2.00000
     66       2.3097      2.00000
     67       2.3097      2.00000
     68       2.3183      2.00000
     69       2.7749      2.00000
     70       2.8650      2.00000
     71       2.8650      2.00000
     72       2.9824      2.00000
     73       3.0388      2.00000
     74       3.0388      2.00000
     75       3.0625      2.00000
     76       3.0749      2.00000
     77       3.0749      2.00000
     78       3.0913      2.00000
     79       3.2985      2.00000
     80       3.3568      2.00000
     81       3.3568      2.00000
     82       3.4387      2.00000
     83       3.5088      2.00000
     84       3.5118      2.00000
     85       3.5118      2.00000
     86       3.5355      2.00000
     87       3.5799      2.00000
     88       3.5799      2.00000
     89       3.5826      2.00000
     90       3.5961      2.00000
     91       3.7647      2.00000
     92       3.7853      2.00000
     93       3.8442      2.00000
     94       3.8442      2.00000
     95       4.0445      2.00000
     96       4.0448      2.00000
     97       4.0928      2.00000
     98       4.0932      2.00000
     99       4.0968      2.00000
    100       4.0968      2.00000
    101       4.5830      2.00000
    102       4.5830      2.00000
    103       4.6489      2.00000
    104       4.6489      2.00000
    105       5.2118      2.00000
    106       5.2118      2.00000
    107       5.2729      2.00000
    108       5.2770      2.00000
    109       6.5056      0.00000
    110       6.5276      0.00000
    111       7.3485      0.00000
    112       7.4516      0.00000
    113       7.6589      0.00000
    114       7.7702      0.00000
    115       7.8766      0.00000
    116       7.8766      0.00000
    117       7.9277      0.00000
    118       7.9277      0.00000
    119       7.9314      0.00000
    120       7.9383      0.00000
    121       8.3340      0.00000
    122       8.3340      0.00000
    123       8.3357      0.00000
    124       8.4758      0.00000
    125       8.5511      0.00000
    126       8.5672      0.00000
    127       8.5672      0.00000
    128       8.6052      0.00000
    129       8.6641      0.00000
    130       8.6981      0.00000
    131       8.6981      0.00000
    132       8.6988      0.00000
    133       8.7153      0.00000
    134       8.7153      0.00000
    135       8.7173      0.00000
    136       8.7175      0.00000
    137       8.8158      0.00000
    138       8.8310      0.00000
    139       8.8971      0.00000
    140       8.8971      0.00000
    141       9.2390      0.00000
    142       9.2390      0.00000
    143       9.3601      0.00000
    144       9.4057      0.00000

 k-point     8 :      -0.2500    0.5000    0.2500
  band No.  band energies     occupation 
      1      -6.6773      2.00000
      2      -5.5262      2.00000
      3      -5.4924      2.00000
      4      -5.4702      2.00000
      5      -5.0708      2.00000
      6      -4.6341      2.00000
      7      -4.6124      2.00000
      8      -4.5780      2.00000
      9      -4.2592      2.00000
     10      -3.8635      2.00000
     11      -3.8344      2.00000
     12      -3.8100      2.00000
     13      -3.7436      2.00000
     14      -3.7431      2.00000
     15      -3.7374      2.00000
     16      -3.7218      2.00000
     17      -3.5942      2.00000
     18      -3.5806      2.00000
     19      -3.5340      2.00000
     20      -3.5324      2.00000
     21      -3.0246      2.00000
     22      -2.9490      2.00000
     23      -2.8987      2.00000
     24      -2.8692      2.00000
     25      -2.1946      2.00000
     26      -2.0102      2.00000
     27      -1.9729      2.00000
     28      -1.9267      2.00000
     29      -1.8365      2.00000
     30      -1.8360      2.00000
     31      -1.2051      2.00000
     32      -1.1010      2.00000
     33      -1.0866      2.00000
     34      -1.0569      2.00000
     35      -0.8766      2.00000
     36      -0.8539      2.00000
     37      -0.8027      2.00000
     38      -0.7930      2.00000
     39      -0.3597      2.00000
     40      -0.3071      2.00000
     41      -0.2714      2.00000
     42      -0.2399      2.00000
     43      -0.1728      2.00000
     44      -0.1659      2.00000
     45      -0.1602      2.00000
     46      -0.1494      2.00000
     47       1.0419      2.00000
     48       1.0430      2.00000
     49       1.0653      2.00000
     50       1.1499      2.00000
     51       1.6615      2.00000
     52       1.7850      2.00000
     53       1.8062      2.00000
     54       2.0475      2.00000
     55       2.0887      2.00000
     56       2.1254      2.00000
     57       2.1513      2.00000
     58       2.2981      2.00000
     59       2.5180      2.00000
     60       2.5324      2.00000
     61       2.5846      2.00000
     62       2.5897      2.00000
     63       2.6285      2.00000
     64       2.6339      2.00000
     65       2.6500      2.00000
     66       2.6645      2.00000
     67       2.6722      2.00000
     68       2.7006      2.00000
     69       2.7086      2.00000
     70       2.7101      2.00000
     71       2.7103      2.00000
     72       2.7231      2.00000
     73       2.7635      2.00000
     74       2.7651      2.00000
     75       2.7742      2.00000
     76       2.7824      2.00000
     77       3.0044      2.00000
     78       3.0643      2.00000
     79       3.0670      2.00000
     80       3.1025      2.00000
     81       3.1622      2.00000
     82       3.2236      2.00000
     83       3.2363      2.00000
     84       3.2477      2.00000
     85       3.5307      2.00000
     86       3.5909      2.00000
[...]
   50        0.750   0.925   0.000   1.675
   51        0.750   0.925   0.000   1.675
   52        0.751   0.933   0.000   1.683
   53        0.751   0.925   0.000   1.676
   54        0.751   0.933   0.000   1.683
--------------------------------------------------
tot         40.822  50.700   0.000  91.522
 
    CHARGE:  cpu time    0.1620: real time    0.1631
    FORLOC:  cpu time    0.0335: real time    0.0336
    FORNL :  cpu time    1.5698: real time    1.5828
    STRESS:  cpu time    6.1958: real time    6.2716
    FORCOR:  cpu time    0.0954: real time    0.0960
    FORHAR:  cpu time    0.0445: real time    0.0447
    MIXING:  cpu time    0.0804: real time    0.0868
    OFIELD:  cpu time    0.0001: real time    0.0001

  FORCE on cell =-STRESS in cart. coord.  units (eV):
  Direction    XX          YY          ZZ          XY          YZ          ZX
  --------------------------------------------------------------------------------------
  Alpha Z    93.56316    93.56316    93.56316
  Ewald   -2076.56669 -2076.56670 -2076.56670    -0.00000     0.00000     0.00000
  Hartree   137.44180   137.44180   137.44180    -0.00000     0.00000     0.00000
  E(xc)    -682.11566  -682.11566  -682.11568    -0.00001    -0.00001    -0.00002
  Local    -802.03784  -802.03794  -802.03744     0.00014     0.00025     0.00035
  n-local  2093.14873  2108.18488  2118.73030    -3.19165    -0.97586     0.69006
  augment  -318.43665  -318.43656  -318.43702    -0.00013    -0.00023    -0.00032
  Kinetic  1512.57641  1535.04767  1551.34078    -2.87045    -1.34484     0.95095
  Fock        0.00000     0.00000     0.00000     0.00000     0.00000     0.00000
  -------------------------------------------------------------------------------------
  Total      -8.47563    -8.47563    -8.47563     0.00000     0.00000     0.00000
  in kB     -12.56201   -12.56201   -12.56201     0.00000     0.00000     0.00000
  external pressure =      -12.56 kB  Pullay stress =        0.00 kB


 VOLUME and BASIS-vectors are now :
 -----------------------------------------------------------------------------
  energy-cutoff  :      550.00
  volume of cell :     1080.99
      direct lattice vectors                 reciprocal lattice vectors
     9.976465530  0.000000000  5.759915070     0.100235900 -0.035438742  0.000000000
     3.325488510  9.405901920  5.759915070     0.000000000  0.106316227  0.000000000
     0.000000000  0.000000000 11.519830140    -0.050117950 -0.035438742  0.086806836

  length of vectors
    11.519830124 11.519830136 11.519830140     0.106316227  0.106316227  0.106316227


 FORCES acting on ions
    electron-ion (+dipol)            ewald-force                    non-local-force                 convergence-correction
 -----------------------------------------------------------------------------------------------
   -.452E-06 -.221E-06 -.644E-06   0.148E-06 -.784E-07 0.146E-10   0.104E-16 0.694E-17 0.208E-16   -.173E-07 -.123E-07 -.300E-07
   -.128E+01 -.905E+00 -.286E+01   0.806E+00 0.570E+00 0.305E+01   0.469E+00 0.331E+00 -.177E+00   -.570E-03 -.403E-03 0.514E-03
   -.128E+01 -.905E+00 0.286E+01   0.806E+00 0.570E+00 -.305E+01   0.469E+00 0.331E+00 0.177E+00   -.570E-03 -.403E-03 -.514E-03
   -.147E+01 -.143E+01 -.254E+01   0.128E+01 0.192E+01 0.222E+01   0.183E+00 -.476E+00 0.317E+00   -.137E-03 0.823E-03 -.237E-03
   0.131E+00 -.465E-01 0.180E-05   -.162E+00 0.574E-01 0.459E-11   0.256E-01 -.903E-02 -.312E-16   -.582E-03 0.206E-03 -.517E-08
   -.147E+01 -.143E+01 0.254E+01   0.128E+01 0.192E+01 -.222E+01   0.183E+00 -.476E+00 -.317E+00   -.137E-03 0.823E-03 0.237E-03
   0.186E+00 0.324E+01 0.323E+00   -.477E+00 -.306E+01 -.826E+00   0.286E+00 -.187E+00 0.495E+00   -.434E-03 -.168E-04 -.751E-03
   0.186E+00 0.324E+01 -.323E+00   -.477E+00 -.306E+01 0.826E+00   0.286E+00 -.187E+00 -.495E+00   -.434E-03 -.168E-04 0.751E-03
   -.165E+00 0.584E-01 0.511E-06   0.110E+00 -.388E-01 -.579E-11   0.476E-01 -.168E-01 0.694E-17   0.137E-02 -.486E-03 0.114E-07
   -.184E+01 -.905E+00 -.254E+01   0.224E+01 0.570E+00 0.222E+01   -.388E+00 0.331E+00 0.317E+00   0.731E-03 -.403E-03 -.237E-03
   0.971E-06 0.139E+00 0.180E-05   0.116E-06 -.172E+00 0.460E-11   -.182E-16 0.271E-01 -.382E-16   -.302E-08 -.617E-03 -.517E-08
   -.184E+01 -.905E+00 0.254E+01   0.224E+01 0.570E+00 -.222E+01   -.388E+00 0.331E+00 -.317E+00   0.731E-03 -.403E-03 0.237E-03
   -.657E-01 -.465E-01 0.114E+00   0.812E-01 0.574E-01 -.141E+00   -.128E-01 -.903E-02 0.221E-01   0.291E-03 0.206E-03 -.504E-03
   -.657E-01 -.465E-01 -.114E+00   0.812E-01 0.574E-01 0.141E+00   -.128E-01 -.903E-02 -.221E-01   0.291E-03 0.206E-03 0.504E-03
   -.655E+00 -.463E+00 0.191E-06   0.695E+00 0.491E+00 -.102E-10   -.222E-01 -.157E-01 0.347E-16   -.453E-03 -.321E-03 0.186E-07
   -.373E+00 0.324E+01 -.691E-06   0.954E+00 -.306E+01 0.816E-12   -.571E+00 -.187E+00 0.520E-17   0.867E-03 -.168E-04 -.718E-07
   -.328E+00 0.463E+00 -.568E+00   0.347E+00 -.491E+00 0.602E+00   -.111E-01 0.157E-01 -.192E-01   -.227E-03 0.321E-03 -.393E-03
   -.328E+00 0.463E+00 0.568E+00   0.347E+00 -.491E+00 -.602E+00   -.111E-01 0.157E-01 0.192E-01   -.227E-03 0.321E-03 0.393E-03
   0.312E+01 -.905E+00 0.323E+00   -.304E+01 0.570E+00 -.826E+00   -.809E-01 0.331E+00 0.495E+00   -.160E-03 -.403E-03 -.751E-03
   0.312E+01 -.905E+00 -.323E+00   -.304E+01 0.570E+00 0.826E+00   -.809E-01 0.331E+00 -.495E+00   -.160E-03 -.403E-03 0.751E-03
   0.224E-06 -.175E+00 0.511E-06   0.124E-06 0.117E+00 -.572E-11   0.113E-16 0.505E-01 -.347E-17   0.657E-08 0.146E-02 0.114E-07
   0.293E+01 -.143E+01 -.691E-06   -.257E+01 0.192E+01 0.838E-12   -.366E+00 -.476E+00 -.824E-17   0.273E-03 0.823E-03 -.718E-07
   0.328E+00 -.463E+00 -.568E+00   -.347E+00 0.491E+00 0.602E+00   0.111E-01 -.157E-01 -.192E-01   0.227E-03 -.321E-03 -.393E-03
   0.328E+00 -.463E+00 0.568E+00   -.347E+00 0.491E+00 -.602E+00   0.111E-01 -.157E-01 0.192E-01   0.227E-03 -.321E-03 0.393E-03
   0.826E-01 0.584E-01 -.143E+00   -.549E-01 -.388E-01 0.951E-01   -.238E-01 -.168E-01 0.413E-01   -.687E-03 -.486E-03 0.119E-02
   0.655E+00 0.463E+00 0.153E-05   -.695E+00 -.491E+00 0.249E-11   0.222E-01 0.157E-01 -.520E-16   0.453E-03 0.321E-03 0.188E-07
   0.826E-01 0.584E-01 0.143E+00   -.549E-01 -.388E-01 -.951E-01   -.238E-01 -.168E-01 -.413E-01   -.687E-03 -.486E-03 -.119E-02
   0.689E-06 0.406E-06 0.108E-05   -.116E-06 0.617E-07 0.700E-11   0.781E-17 0.139E-16 0.173E-16   -.628E-08 -.447E-08 -.109E-07
   0.146E+01 0.103E+01 0.266E+00   -.152E+01 -.107E+01 -.246E+00   0.408E-01 0.289E-01 -.270E-01   -.104E-02 -.734E-03 -.201E-03
   0.146E+01 0.103E+01 -.266E+00   -.152E+01 -.107E+01 0.246E+00   0.408E-01 0.289E-01 0.270E-01   -.104E-02 -.734E-03 0.201E-03
   0.805E+00 -.813E+00 0.139E+01   -.830E+00 0.872E+00 -.144E+01   0.126E-01 -.509E-01 0.219E-01   -.577E-03 0.569E-03 -.999E-03
   0.708E+01 -.250E+01 -.855E-06   -.104E+02 0.366E+01 0.119E-10   0.328E+01 -.116E+01 -.486E-16   0.144E-02 -.508E-03 -.665E-07
   0.805E+00 -.813E+00 -.139E+01   -.830E+00 0.872E+00 0.144E+01   0.126E-01 -.509E-01 -.219E-01   -.577E-03 0.569E-03 0.999E-03
   0.651E+00 -.125E+01 0.113E+01   -.687E+00 0.127E+01 -.119E+01   0.282E-01 -.683E-02 0.488E-01   -.461E-03 0.898E-03 -.798E-03
   0.651E+00 -.125E+01 -.113E+01   -.687E+00 0.127E+01 0.119E+01   0.282E-01 -.683E-02 -.488E-01   -.461E-03 0.898E-03 0.798E-03
   0.668E-01 -.236E-01 -.767E-07   -.833E-01 0.294E-01 0.775E-11   0.177E-02 -.626E-03 0.104E-16   0.576E-03 -.204E-03 0.644E-08
   -.498E+00 0.103E+01 0.139E+01   0.545E+00 -.107E+01 -.144E+01   -.438E-01 0.289E-01 0.219E-01   0.344E-03 -.734E-03 -.999E-03
   -.412E-06 0.751E+01 -.855E-06   -.119E-06 -.110E+02 0.119E-10   -.833E-16 0.348E+01 -.347E-16   -.384E-07 0.152E-02 -.665E-07
   -.498E+00 0.103E+01 -.139E+01   0.545E+00 -.107E+01 0.144E+01   -.438E-01 0.289E-01 -.219E-01   0.344E-03 -.734E-03 0.999E-03
   -.354E+01 -.250E+01 0.613E+01   0.518E+01 0.366E+01 -.897E+01   -.164E+01 -.116E+01 0.284E+01   -.718E-03 -.508E-03 0.124E-02
   -.354E+01 -.250E+01 -.613E+01   0.518E+01 0.366E+01 0.897E+01   -.164E+01 -.116E+01 -.284E+01   -.718E-03 -.508E-03 -.124E-02
   0.513E+00 0.363E+00 -.321E-06   -.404E-01 -.286E-01 0.845E-11   -.492E+00 -.348E+00 -.694E-17   -.742E-04 -.525E-04 0.264E-07
   -.130E+01 -.125E+01 0.120E-05   0.137E+01 0.127E+01 -.105E-11   -.564E-01 -.683E-02 -.104E-16   0.921E-03 0.898E-03 -.524E-09
   0.257E+00 -.363E+00 0.444E+00   -.202E-01 0.286E-01 -.350E-01   -.246E+00 0.348E+00 -.426E+00   -.371E-04 0.525E-04 -.643E-04
   0.257E+00 -.363E+00 -.444E+00   -.202E-01 0.286E-01 0.350E-01   -.246E+00 0.348E+00 0.426E+00   -.371E-04 0.525E-04 0.642E-04
   -.958E+00 0.103E+01 0.113E+01   0.972E+00 -.107E+01 -.119E+01   0.295E-02 0.289E-01 0.488E-01   0.693E-03 -.734E-03 -.798E-03
   -.958E+00 0.103E+01 -.113E+01   0.972E+00 -.107E+01 0.119E+01   0.295E-02 0.289E-01 -.488E-01   0.693E-03 -.734E-03 0.798E-03
   0.290E-07 0.709E-01 -.767E-07   -.121E-06 -.883E-01 0.775E-11   -.104E-16 0.188E-02 0.312E-16   0.368E-08 0.611E-03 0.644E-08
   -.161E+01 -.813E+00 0.120E-05   0.166E+01 0.872E+00 -.101E-11   -.252E-01 -.509E-01 -.347E-17   0.115E-02 0.569E-03 -.525E-09
   -.257E+00 0.363E+00 0.444E+00   0.202E-01 -.286E-01 -.350E-01   0.246E+00 -.348E+00 -.426E+00   0.371E-04 -.525E-04 -.643E-04
   -.257E+00 0.363E+00 -.444E+00   0.202E-01 -.286E-01 0.350E-01   0.246E+00 -.348E+00 0.426E+00   0.371E-04 -.525E-04 0.642E-04
   -.334E-01 -.236E-01 0.579E-01   0.416E-01 0.294E-01 -.721E-01   -.885E-03 -.626E-03 0.153E-02   -.288E-03 -.204E-03 0.499E-03
   -.513E+00 -.363E+00 -.651E-06   0.404E-01 0.286E-01 -.538E-12   0.492E+00 0.348E+00 -.867E-18   0.742E-04 0.525E-04 -.505E-07
   -.334E-01 -.236E-01 -.579E-01   0.416E-01 0.294E-01 0.721E-01   -.885E-03 -.626E-03 -.153E-02   -.288E-03 -.204E-03 -.499E-03
 -----------------------------------------------------------------------------------------------
   0.672E-05 0.473E-05 0.118E-04   0.375E-13 0.790E-13 -.103E-13   0.720E-15 -.531E-15 0.523E-15   -.645E-08 -.457E-08 -.112E-07
 
 
 POSITION                                       TOTAL-FORCE (eV/Angst)
 -----------------------------------------------------------------------------------
      3.87974      2.74339      6.71990        -0.000000      0.000000     -0.000000
      3.86745      2.73470     10.55972        -0.006602     -0.004669      0.007510
      3.86745      2.73470     14.39991        -0.006602     -0.004669     -0.007510
      4.98206      5.88727      8.62917        -0.001133      0.010801     -0.001963
      4.98448      5.88001     12.47982        -0.005892      0.002083     -0.000000
      4.98206      5.88727     16.33046        -0.001133      0.010801      0.001963
      6.09062      9.02278     10.54927        -0.005469     -0.001464     -0.009473
      6.09062      9.02278     14.41036        -0.005469     -0.001464      0.009473
      6.09457      9.01475     18.23973        -0.006389      0.002259     -0.000000
      7.21126      2.73470      8.62917         0.009805     -0.004669     -0.001963
      7.20523      2.73941     12.47982        -0.000000     -0.006250     -0.000000
      7.21126      2.73470     16.33046         0.009805     -0.004669      0.001963
      8.31560      5.88001     10.55660         0.002946      0.002083     -0.005103
      8.31560      5.88001     14.40303         0.002946      0.002083      0.005103
      8.31487      5.87950     18.23973         0.016748      0.011843     -0.000000
      9.43443      9.02278     12.47982         0.010938     -0.001464     -0.000000
      9.42279      9.01318     16.32075         0.008374     -0.011843      0.014504
      9.42279      9.01318     20.15871         0.008374     -0.011843     -0.014504
     10.53696      2.73470     10.54927        -0.003203     -0.004669     -0.009473
     10.53696      2.73470     14.41036        -0.003203     -0.004669      0.009473
     10.53071      2.74110     18.23973        -0.000000     -0.006777     -0.000000
     11.65156      5.88727     12.47982         0.002266      0.010801     -0.000000
     11.63864      5.87950     16.32075        -0.008374      0.011843      0.014504
     11.63864      5.87950     20.15871        -0.008374      0.011843     -0.014504
     12.74878      9.01475     14.39792         0.003195      0.002259     -0.005533
     12.74656      9.01318     18.23973        -0.016748     -0.011843     -0.000000
     12.74878      9.01475     22.08154         0.003195      0.002259      0.005533
      0.55425      0.39191      0.95999        -0.000000      0.000000     -0.000000
      0.54961      0.38863      4.80090        -0.021707     -0.015349     -0.008047
      0.54961      0.38863      8.63890        -0.021707     -0.015349      0.008047
      1.66070      3.53129      2.87642        -0.013176      0.008779     -0.022822
      1.66701      3.52570      6.71990        -0.001980      0.000700     -0.000000
      1.66070      3.53129     10.56338        -0.013176      0.008779      0.022822
      2.76864      6.66500      4.79542        -0.008530      0.021919     -0.014775
      2.76864      6.66500      8.64438        -0.008530      0.021919      0.014775
      2.77070      6.66270     12.47982        -0.014101      0.004986     -0.000000
      3.88290      0.38863      2.87642         0.003885     -0.015349     -0.022822
      3.87974      0.39644      6.71990        -0.000000     -0.002100     -0.000000
      3.88290      0.38863     10.56338         0.003885     -0.015349      0.022822
      4.98610      3.52570      4.80363         0.000990      0.000700     -0.001715
      4.98610      3.52570      8.63618         0.000990      0.000700      0.001715
      4.99689      3.53334     12.47982        -0.019460     -0.013760     -0.000000
      6.10193      6.66500      6.71990         0.017061      0.021919     -0.000000
      6.10106      6.65639     10.56734        -0.009730      0.013760     -0.016853
      6.10106      6.65639     14.39229        -0.009730      0.013760      0.016853
      7.20670      0.38863      4.79542         0.017822     -0.015349     -0.014775
      7.20670      0.38863      8.64438         0.017822     -0.015349      0.014775
      7.20523      0.39134     12.47982        -0.000000     -0.014957     -0.000000
      8.31780      3.53129      6.71990         0.026353      0.008779     -0.000000
      8.30939      3.53334     10.56734         0.009730     -0.013760     -0.016853
      8.30939      3.53334     14.39229         0.009730     -0.013760      0.016853
      9.42249      6.66270      8.63941         0.007051      0.004986     -0.012212
      9.41356      6.65639     12.47982         0.019460      0.013760     -0.000000
      9.42249      6.66270     16.32023         0.007051      0.004986      0.012212
 -----------------------------------------------------------------------------------
    total drift:                                0.000007      0.000005      0.000012


--------------------------------------------------------------------------------------------------------



  FREE ENERGIE OF THE ION-ELECTRON SYSTEM (eV)
  ---------------------------------------------------
  free  energy   TOTEN  =      -304.70526204 eV

  energy  without entropy=     -304.70288145  energy(sigma->0) =     -304.70407175
 
 d Force = 0.3173520E-02[ 0.183E-02, 0.452E-02]  d Energy = 0.3187412E-02-0.139E-04
 d Force = 0.6050111E-01[ 0.473E-01, 0.737E-01]  d Ewald  = 0.6052350E-01-0.224E-04


--------------------------------------------------------------------------------------------------------


    POTLOK:  cpu time    0.0924: real time    0.0965


--------------------------------------------------------------------------------------------------------


 Conjugate gradient step on ions:
 trial-energy change:   -0.003187  1 .order   -0.003174   -0.004517   -0.001830
  (g-gl).g = 0.413E-02      g.g   = 0.438E-02  gl.gl    = 0.518E-01
 g(Force)  = 0.438E-02   g(Stress)= 0.000E+00 ortho     = 0.248E-03
 gamma     =   0.07965
 trial     =   1.02746
 opt step  =   1.72755  (harmonic =   1.72755) maximal distance =0.00564705
 next E    =  -304.705872   (d E  =  -0.00380)


--------------------------------------------------------------------------------------------------------


  
 reached required accuracy - stopping structural energy minimisation
 writing wavefunctions
     LOOP+:  cpu time   36.5445: real time   36.9550
    4ORBIT:  cpu time    0.0000: real time    0.0000
 


 total charge     
 
# of ion       s       p       d       tot
------------------------------------------
    1        1.017   1.467   0.000   2.484
    2        0.752   0.931   0.000   1.683
    3        0.752   0.931   0.000   1.683
    4        0.751   0.930   0.000   1.681
    5        0.751   0.936   0.000   1.687
    6        0.751   0.930   0.000   1.681
    7        0.751   0.930   0.000   1.681
    8        0.751   0.930   0.000   1.681
    9        0.751   0.934   0.000   1.685
   10        0.750   0.929   0.000   1.679
   11        0.751   0.935   0.000   1.686
   12        0.750   0.929   0.000   1.679
   13        0.751   0.935   0.000   1.686
   14        0.751   0.935   0.000   1.686
   15        0.751   0.933   0.000   1.684
   16        0.751   0.928   0.000   1.679
   17        0.751   0.933   0.000   1.684
   18        0.751   0.933   0.000   1.684
   19        0.751   0.929   0.000   1.679
   20        0.751   0.929   0.000   1.679
   21        0.751   0.933   0.000   1.684
   22        0.751   0.928   0.000   1.679
   23        0.751   0.933   0.000   1.684
   24        0.751   0.933   0.000   1.684
   25        0.751   0.933   0.000   1.683
   26        0.751   0.933   0.000   1.684
   27        0.751   0.933   0.000   1.683
   28        0.751   0.933   0.000   1.684
   29        0.751   0.934   0.000   1.685
   30        0.751   0.934   0.000   1.685
   31        0.751   0.935   0.000   1.685
   32        0.753   0.895   0.000   1.647
   33        0.751   0.935   0.000   1.685
   34        0.751   0.934   0.000   1.685
   35        0.751   0.934   0.000   1.685
   36        0.751   0.932   0.000   1.683
   37        0.751   0.935   0.000   1.686
   38        0.754   0.893   0.000   1.647
   39        0.751   0.935   0.000   1.686
   40        0.755   0.893   0.000   1.648
   41        0.755   0.893   0.000   1.648
   42        0.752   0.928   0.000   1.680
   43        0.751   0.936   0.000   1.687
   44        0.751   0.927   0.000   1.677
   45        0.751   0.927   0.000   1.677
   46        0.751   0.934   0.000   1.685
   47        0.751   0.934   0.000   1.685
   48        0.751   0.932   0.000   1.683
   49        0.751   0.935   0.000   1.686
   50        0.750   0.925   0.000   1.675
   51        0.750   0.925   0.000   1.675
   52        0.751   0.933   0.000   1.683
   53        0.751   0.925   0.000   1.676
   54        0.751   0.933   0.000   1.683
--------------------------------------------------
tot         40.822  50.700   0.000  91.522
 

 total amount of memory used by VASP MPI-rank0   140598. kBytes
=======================================================================

   base      :      30000. kBytes
   nonl-proj :      59902. kBytes
   fftplans  :       5382. kBytes
   grid      :      20451. kBytes
   one-center:        165. kBytes
   wavefun   :      24698. kBytes
 
  
  
 General timing and accounting informations for this job:
 ========================================================
  
                  Total CPU time used (sec):      157.217
                            User time (sec):      152.047
                          System time (sec):        5.169
                         Elapsed time (sec):      162.616
  
                   Maximum memory used (kb):      394068.
                   Average memory used (kb):           0.
  
                          Minor page faults:        43052
                          Major page faults:            0
                 Voluntary context switches:         4960
