 vasp.5.4.4.18Apr17-6-g9f103f2a35 (build Jun 19 2019 10:34:07) complex          
  
 executed on               LB-5.4 date 2023.05.15  18:33:03
 running on   96 total cores
 distrk:  each k-point on   24 cores,    4 groups
 distr:  one band on NCORES_PER_BAND=   1 cores,   24 groups


--------------------------------------------------------------------------------------------------------


 INCAR:
 POTCAR:    PAW_PBE B 06Sep2000                   
 POTCAR:    PAW_PBE Si 05Jan2001                  

 ----------------------------------------------------------------------------- 
|                                                                             |
|           W    W    AA    RRRRR   N    N  II  N    N   GGGG   !!!           |
|           W    W   A  A   R    R  NN   N  II  NN   N  G    G  !!!           |
|           W    W  A    A  R    R  N N  N  II  N N  N  G       !!!           |
|           W WW W  AAAAAA  RRRRR   N  N N  II  N  N N  G  GGG   !            |
|           WW  WW  A    A  R   R   N   NN  II  N   NN  G    G                |
|           W    W  A    A  R    R  N    N  II  N    N   GGGG   !!!           |
|                                                                             |
|      For optimal performance we recommend to set                            |
|        NCORE= 4 - approx SQRT( number of cores)                             |
|      NCORE specifies how many cores store one orbital (NPAR=cpu/NCORE).     |
|      This setting can  greatly improve the performance of VASP for DFT.     |
|      The default,   NCORE=1            might be grossly inefficient         |
|      on modern multi-core architectures or massively parallel machines.     |
|      Do your own testing !!!!                                               |
|      Unfortunately you need to use the default for GW and RPA calculations. |
|      (for HF NCORE is supported but not extensively tested yet)             |
|                                                                             |
 ----------------------------------------------------------------------------- 


 ----------------------------------------------------------------------------- 
|                                                                             |
|           W    W    AA    RRRRR   N    N  II  N    N   GGGG   !!!           |
|           W    W   A  A   R    R  NN   N  II  NN   N  G    G  !!!           |
|           W    W  A    A  R    R  N N  N  II  N N  N  G       !!!           |
|           W WW W  AAAAAA  RRRRR   N  N N  II  N  N N  G  GGG   !            |
|           WW  WW  A    A  R   R   N   NN  II  N   NN  G    G                |
|           W    W  A    A  R    R  N    N  II  N    N   GGGG   !!!           |
|                                                                             |
|      You have enabled k-point parallelism (KPAR>1).                         |
|      This developmental code was originally  written by Paul Kent at ORNL,  |
|      and carefully double checked in Vienna.                                |
|      GW as well as linear response parallelism added by Martijn Marsman     |
|      and Georg Kresse.                                                      |
|      Carefully verify results versus KPAR=1.                                |
|      Report problems to Paul Kent and Vienna.                               |
|                                                                             |
 ----------------------------------------------------------------------------- 

 POTCAR:    PAW_PBE B 06Sep2000                   
   VRHFIN =B: s2p1                                                              
   LEXCH  = PE                                                                  
   EATOM  =    71.1703 eV,    5.2309 Ry                                         
                                                                                
   TITEL  = PAW_PBE B 06Sep2000                                                 
   LULTRA =        F    use ultrasoft PP ?                                      
   IUNSCR =        1    unscreen: 0-lin 1-nonlin 2-no                           
   RPACOR =    1.200    partial core radius                                     
   POMASS =   10.811; ZVAL   =    3.000    mass and valenz                      
   RCORE  =    1.700    outmost cutoff radius                                   
   RWIGS  =    1.710; RWIGS  =    0.905    wigner-seitz radius (au A)           
   ENMAX  =  318.614; ENMIN  =  238.960 eV                                      
   ICORE  =        2    local potential                                         
   LCOR   =        T    correct aug charges                                     
   LPAW   =        T    paw PP                                                  
   EAUG   =  535.514                                                            
   DEXC   =    0.000                                                            
   RMAX   =    1.732    core radius for proj-oper                               
   RAUG   =    1.300    factor for augmentation sphere                          
   RDEP   =    1.757    radius for radial grids                                 
   RDEPT  =    1.436    core radius for aug-charge                              
                                                                                
   Atomic configuration                                                         
    4 entries                                                                   
     n  l   j            E        occ.                                          
     1  0  0.50      -180.5896   2.0000                                         
     2  0  0.50        -9.4431   2.0000                                         
     2  1  0.50        -3.6068   1.0000                                         
     3  2  1.50        -4.0817   0.0000                                         
   Description                                                                  
     l       E           TYP  RCUT    TYP  RCUT                                 
     0     -9.4430752     23  1.500                                             
     0      0.8675899     23  1.500                                             
     1     -3.6067955     23  1.700                                             
     1      6.1086146     23  1.700                                             
     2     -4.0817478      7  1.700                                             
  local pseudopotential read in
  partial core-charges read in
  partial kinetic energy density read in
  atomic valenz-charges read in
  non local Contribution for L=           0  read in
    real space projection operators read in
  non local Contribution for L=           0  read in
    real space projection operators read in
  non local Contribution for L=           1  read in
    real space projection operators read in
  non local Contribution for L=           1  read in
    real space projection operators read in
    PAW grid and wavefunctions read in
 
   number of l-projection  operators is LMAX  =           4
   number of lm-projection operators is LMMAX =           8
 
 POTCAR:    PAW_PBE Si 05Jan2001                  
   VRHFIN =Si: s2p2                                                             
   LEXCH  = PE                                                                  
   EATOM  =   103.0669 eV,    7.5752 Ry                                         
                                                                                
   TITEL  = PAW_PBE Si 05Jan2001                                                
   LULTRA =        F    use ultrasoft PP ?                                      
   IUNSCR =        1    unscreen: 0-lin 1-nonlin 2-no                           
   RPACOR =    1.500    partial core radius                                     
   POMASS =   28.085; ZVAL   =    4.000    mass and valenz                      
   RCORE  =    1.900    outmost cutoff radius                                   
   RWIGS  =    2.480; RWIGS  =    1.312    wigner-seitz radius (au A)           
   ENMAX  =  245.345; ENMIN  =  184.009 eV                                      
   ICORE  =        2    local potential                                         
   LCOR   =        T    correct aug charges                                     
   LPAW   =        T    paw PP                                                  
   EAUG   =  322.069                                                            
   DEXC   =    0.000                                                            
   RMAX   =    1.950    core radius for proj-oper                               
   RAUG   =    1.300    factor for augmentation sphere                          
   RDEP   =    1.993    radius for radial grids                                 
   RDEPT  =    1.837    core radius for aug-charge                              
                                                                                
   Atomic configuration                                                         
    6 entries                                                                   
     n  l   j            E        occ.                                          
     1  0  0.50     -1785.8828   2.0000                                         
     2  0  0.50      -139.4969   2.0000                                         
     2  1  1.50       -95.5546   6.0000                                         
     3  0  0.50       -10.8127   2.0000                                         
     3  1  0.50        -4.0811   2.0000                                         
     3  2  1.50        -4.0817   0.0000                                         
   Description                                                                  
     l       E           TYP  RCUT    TYP  RCUT                                 
     0    -10.8127223     23  1.900                                             
     0     -7.6451159     23  1.900                                             
     1     -4.0811372     23  1.900                                             
     1      2.4879257     23  1.900                                             
     2     -4.0817478      7  1.900                                             
  local pseudopotential read in
  partial core-charges read in
  partial kinetic energy density read in
  atomic valenz-charges read in
  non local Contribution for L=           0  read in
    real space projection operators read in
  non local Contribution for L=           0  read in
    real space projection operators read in
  non local Contribution for L=           1  read in
    real space projection operators read in
  non local Contribution for L=           1  read in
    real space projection operators read in
    PAW grid and wavefunctions read in
 
   number of l-projection  operators is LMAX  =           4
   number of lm-projection operators is LMMAX =           8
 

 ----------------------------------------------------------------------------- 
|                                                                             |
|  ADVICE TO THIS USER RUNNING 'VASP/VAMP'   (HEAR YOUR MASTER'S VOICE ...):  |
|                                                                             |
|      You have a (more or less) 'large supercell' and for larger cells       |
|      it might be more efficient to use real space projection opertators     |
|      So try LREAL= Auto  in the INCAR   file.                               |
|      Mind:          For very  accurate calculation you might also keep the  |
|      reciprocal projection scheme          (i.e. LREAL=.FALSE.)             |
|                                                                             |
 ----------------------------------------------------------------------------- 

  PAW_PBE B 06Sep2000                   :
 energy of atom  1       EATOM=  -71.1703
 kinetic energy error for atom=    0.0009 (will be added to EATOM!!)
  PAW_PBE Si 05Jan2001                  :
 energy of atom  2       EATOM= -103.0669
 kinetic energy error for atom=    0.0004 (will be added to EATOM!!)
 
 
 POSCAR: Si53 B1                                 
  positions in direct lattice
  No initial velocities read in
 exchange correlation table for  LEXCH =        8
   RHO(1)=    0.500       N(1)  =     2000
   RHO(2)=  100.500       N(2)  =     4000
 


--------------------------------------------------------------------------------------------------------


 ion  position               nearest neighbor table
   1  0.292  0.292  0.292-  32 2.35  40 2.35  41 2.35  38 2.35
   2  0.292  0.292  0.625-  33 2.35  41 2.35  42 2.35  39 2.35
   3  0.292  0.292  0.958-  31 2.35  40 2.35  42 2.35  37 2.35
   4  0.292  0.625  0.292-  35 2.35  43 2.35  44 2.35  41 2.35
   5  0.292  0.625  0.625-  36 2.35  44 2.35  45 2.35  42 2.35
   6  0.292  0.625  0.958-  34 2.35  43 2.35  45 2.35  40 2.35
   7  0.292  0.958  0.292-  29 2.35  37 2.35  38 2.35  44 2.35
   8  0.292  0.958  0.625-  30 2.35  38 2.35  39 2.35  45 2.35
   9  0.292  0.958  0.958-  28 2.35  37 2.35  39 2.35  43 2.35
  10  0.625  0.292  0.292-  41 2.35  49 2.35  50 2.35  47 2.35
  11  0.625  0.292  0.625-  42 2.35  50 2.35  51 2.35  48 2.35
  12  0.625  0.292  0.958-  40 2.35  49 2.35  51 2.35  46 2.35
  13  0.625  0.625  0.292-  44 2.35  52 2.35  53 2.35  50 2.35
  14  0.625  0.625  0.625-  45 2.35  53 2.35  54 2.35  51 2.35
  15  0.625  0.625  0.958-  43 2.35  52 2.35  54 2.35  49 2.35
  16  0.625  0.958  0.292-  38 2.35  46 2.35  47 2.35  53 2.35
  17  0.625  0.958  0.625-  39 2.35  47 2.35  48 2.35  54 2.35
  18  0.625  0.958  0.958-  37 2.35  46 2.35  48 2.35  52 2.35
  19  0.958  0.292  0.292-  50 2.35  32 2.35  31 2.35  29 2.35
  20  0.958  0.292  0.625-  51 2.35  33 2.35  32 2.35  30 2.35
  21  0.958  0.292  0.958-  49 2.35  31 2.35  33 2.35  28 2.35
  22  0.958  0.625  0.292-  53 2.35  35 2.35  34 2.35  32 2.35
  23  0.958  0.625  0.625-  54 2.35  36 2.35  35 2.35  33 2.35
  24  0.958  0.625  0.958-  52 2.35  34 2.35  36 2.35  31 2.35
  25  0.958  0.958  0.292-  47 2.35  29 2.35  28 2.35  35 2.35
  26  0.958  0.958  0.625-  48 2.35  30 2.35  29 2.35  36 2.35
  27  0.958  0.958  0.958-  46 2.35  28 2.35  30 2.35  34 2.35
  28  0.042  0.042  0.042-   9 2.35  27 2.35  25 2.35  21 2.35
  29  0.042  0.042  0.375-   7 2.35  25 2.35  26 2.35  19 2.35
  30  0.042  0.042  0.708-   8 2.35  26 2.35  27 2.35  20 2.35
  31  0.042  0.375  0.042-   3 2.35  21 2.35  19 2.35  24 2.35
  32  0.042  0.375  0.375-   1 2.35  19 2.35  20 2.35  22 2.35
  33  0.042  0.375  0.708-   2 2.35  20 2.35  21 2.35  23 2.35
  34  0.042  0.708  0.042-   6 2.35  24 2.35  22 2.35  27 2.35
  35  0.042  0.708  0.375-   4 2.35  22 2.35  23 2.35  25 2.35
  36  0.042  0.708  0.708-   5 2.35  23 2.35  24 2.35  26 2.35
  37  0.375  0.042  0.042-  18 2.35   9 2.35   7 2.35   3 2.35
  38  0.375  0.042  0.375-  16 2.35   8 2.35   7 2.35   1 2.35
  39  0.375  0.042  0.708-  17 2.35   9 2.35   8 2.35   2 2.35
  40  0.375  0.375  0.042-  12 2.35   3 2.35   1 2.35   6 2.35
  41  0.375  0.375  0.375-  10 2.35   2 2.35   1 2.35   4 2.35
  42  0.375  0.375  0.708-  11 2.35   3 2.35   2 2.35   5 2.35
  43  0.375  0.708  0.042-  15 2.35   6 2.35   4 2.35   9 2.35
  44  0.375  0.708  0.375-  13 2.35   5 2.35   4 2.35   7 2.35
  45  0.375  0.708  0.708-  14 2.35   6 2.35   5 2.35   8 2.35
  46  0.708  0.042  0.042-  27 2.35  18 2.35  16 2.35  12 2.35
  47  0.708  0.042  0.375-  25 2.35  17 2.35  16 2.35  10 2.35
  48  0.708  0.042  0.708-  26 2.35  18 2.35  17 2.35  11 2.35
  49  0.708  0.375  0.042-  21 2.35  12 2.35  10 2.35  15 2.35
  50  0.708  0.375  0.375-  19 2.35  11 2.35  10 2.35  13 2.35
  51  0.708  0.375  0.708-  20 2.35  12 2.35  11 2.35  14 2.35
  52  0.708  0.708  0.042-  24 2.35  15 2.35  13 2.35  18 2.35
  53  0.708  0.708  0.375-  22 2.35  14 2.35  13 2.35  16 2.35
  54  0.708  0.708  0.708-  23 2.35  15 2.35  14 2.35  17 2.35
 
  LATTYP: Found a face centered cubic cell.
 ALAT       =    16.2915000202
  
  Lattice vectors:
  
 A1 = (   9.9764655300,   0.0000000000,   5.7599150700)
 A2 = (   3.3254885100,   9.4059019200,   5.7599150700)
 A3 = (   0.0000000000,   0.0000000000,  11.5198301400)


Analysis of symmetry for initial positions (statically):
=====================================================================
 Subroutine PRICEL returns:
 Original cell was already a primitive cell.
 

 Routine SETGRP: Setting up the symmetry group for a 
 face centered cubic supercell.


 Subroutine GETGRP returns: Found 24 space group operations
 (whereof  6 operations were pure point group operations)
 out of a pool of 48 trial point group operations.


The static configuration has the point symmetry C_3v.
 The point group associated with its full space group is T_d .


Analysis of symmetry for dynamics (positions and initial velocities):
=====================================================================
 Subroutine PRICEL returns:
 Original cell was already a primitive cell.
 

 Routine SETGRP: Setting up the symmetry group for a 
 face centered cubic supercell.


 Subroutine GETGRP returns: Found 24 space group operations
 (whereof  6 operations were pure point group operations)
 out of a pool of 48 trial point group operations.


The dynamic configuration has the point symmetry C_3v.
 The point group associated with its full space group is T_d .


 Subroutine INISYM returns: Found 24 space group operations
 (whereof  6 operations are pure point group operations),
 and found     1 'primitive' translations

 
 
 KPOINTS: Automatic kpoint scheme                 

Automatic generation of k-mesh.
Space group operators:
 irot       det(A)        alpha          n_x          n_y          n_z        tau_x        tau_y        tau_z
    1     1.000000     0.000000     1.000000     0.000000     0.000000     0.000000     0.000000     0.000000
    2     1.000000   120.000000    -0.471405    -0.333333    -0.816497     0.000000     0.000000     0.000000
    3     1.000000   120.000000     0.471405     0.333333     0.816497     0.000000     0.000000     0.000000
    4    -1.000000   180.000000     0.288675     0.816497    -0.500000     0.000000     0.000000     0.000000
    5    -1.000000   180.000000     0.577350    -0.816497     0.000000     0.000000     0.000000     0.000000
    6    -1.000000   180.000000     0.866025     0.000000    -0.500000     0.000000     0.000000     0.000000
    7    -1.000000    90.000000    -0.816497    -0.577350    -0.000000     0.166667     0.000000     0.000000
    8    -1.000000   180.000000     0.866025     0.000000     0.500000     0.166667     0.000000     0.000000
    9    -1.000000    90.000000     0.408248    -0.577350     0.707107     0.166667     0.000000     0.000000
   10     1.000000   180.000000     0.816497     0.577350     0.000000     0.000000     0.000000     0.166667
   11     1.000000   120.000000     0.942809    -0.333333     0.000000     0.000000     0.000000     0.166667
   12     1.000000   120.000000    -0.000000    -1.000000    -0.000000     0.000000     0.000000     0.166667
   13    -1.000000    90.000000     0.816497     0.577350    -0.000000     0.000000     0.166667    -0.000000
   14    -1.000000    90.000000     0.408248    -0.577350    -0.707107     0.000000     0.166667    -0.000000
   15    -1.000000   180.000000     0.288675     0.816497     0.500000     0.000000     0.166667    -0.000000
   16     1.000000   120.000000    -0.000000     1.000000    -0.000000     0.166667     0.000000     0.000000
   17     1.000000   120.000000     0.471405     0.333333    -0.816497     0.166667     0.000000     0.000000
   18     1.000000   180.000000    -0.408248     0.577350     0.707107     0.166667     0.000000     0.000000
   19    -1.000000    90.000000    -0.408248     0.577350    -0.707107     0.000000     0.000000     0.166667
   20    -1.000000   180.000000     0.000000    -0.000000     1.000000     0.000000     0.000000     0.166667
   21    -1.000000    90.000000    -0.408248     0.577350     0.707107     0.000000     0.000000     0.166667
   22     1.000000   120.000000    -0.942809     0.333333     0.000000     0.000000     0.166667    -0.000000
   23     1.000000   180.000000    -0.408248     0.577350    -0.707107     0.000000     0.166667    -0.000000
   24     1.000000   120.000000    -0.471405    -0.333333     0.816497     0.000000     0.166667    -0.000000
 
 Subroutine IBZKPT returns following result:
 ===========================================
 
 Found      8 irreducible k-points:
 
 Following reciprocal coordinates:
            Coordinates               Weight
  0.000000  0.000000  0.000000      1.000000
  0.250000  0.000000  0.000000      8.000000
  0.500000  0.000000  0.000000      4.000000
  0.250000  0.250000  0.000000      6.000000
  0.500000  0.250000  0.000000     24.000000
 -0.250000  0.250000  0.000000     12.000000
  0.500000  0.500000  0.000000      3.000000
 -0.250000  0.500000  0.250000      6.000000
 
 Following cartesian coordinates:
            Coordinates               Weight
  0.000000  0.000000  0.000000      1.000000
  0.025059 -0.008860  0.000000      8.000000
  0.050118 -0.017719  0.000000      4.000000
  0.025059  0.017719  0.000000      6.000000
  0.050118  0.008860  0.000000     24.000000
 -0.025059  0.035439  0.000000     12.000000
  0.050118  0.035439  0.000000      3.000000
 -0.037588  0.053158  0.021702      6.000000
 


--------------------------------------------------------------------------------------------------------




 Dimension of arrays:
   k-points           NKPTS =      8   k-points in BZ     NKDIM =      8   number of bands    NBANDS=    144
   number of dos      NEDOS =    301   number of ions     NIONS =     54
   non local maximal  LDIM  =      4   non local SUM 2l+1 LMDIM =      8
   total plane-waves  NPLWV = 343000
   max r-space proj   IRMAX =      1   max aug-charges    IRDMAX=  10807
   dimension x,y,z NGX =    70 NGY =   70 NGZ =   70
   dimension x,y,z NGXF=   140 NGYF=  140 NGZF=  140
   support grid    NGXF=   140 NGYF=  140 NGZF=  140
   ions per type =               1  53
   NGX,Y,Z   is equivalent  to a cutoff of  10.10, 10.10, 10.10 a.u.
   NGXF,Y,Z  is equivalent  to a cutoff of  20.20, 20.20, 20.20 a.u.

 SYSTEM =  Si                                      
 POSCAR =  Si53 B1                                 

 Startparameter for this run:
   NWRITE =      2    write-flag & timer
   PREC   = normal    normal or accurate (medium, high low for compatibility)
   ISTART =      0    job   : 0-new  1-cont  2-samecut
   ICHARG =      2    charge: 1-file 2-atom 10-const
   ISPIN  =      1    spin polarized calculation?
   LNONCOLLINEAR =      F non collinear calculations
   LSORBIT =      F    spin-orbit coupling
   INIWAV =      1    electr: 0-lowe 1-rand  2-diag
   LASPH  =      F    aspherical Exc in radial PAW
   METAGGA=      F    non-selfconsistent MetaGGA calc.

 Electronic Relaxation 1
   ENCUT  =  550.0 eV  40.42 Ry    6.36 a.u.  22.03 22.03 22.03*2*pi/ulx,y,z
   ENINI  =  550.0     initial cutoff
   ENAUG  =  535.5 eV  augmentation charge cutoff
   NELM   =    200;   NELMIN=  2; NELMDL= -5     # of ELM steps 
   EDIFF  = 0.1E-05   stopping-criterion for ELM
   LREAL  =      F    real-space projection
   NLSPLINE    = F    spline interpolate recip. space projectors
   LCOMPAT=      F    compatible to vasp.4.4
   GGA_COMPAT  = T    GGA compatible to vasp.4.4-vasp.4.6
   LMAXPAW     = -100 max onsite density
   LMAXMIX     =    2 max onsite mixed and CHGCAR
   VOSKOWN=      0    Vosko Wilk Nusair interpolation
   ROPT   =    0.00000   0.00000
 Ionic relaxation
   EDIFFG = -.5E-01   stopping-criterion for IOM
   NSW    =      0    number of steps for IOM
   NBLOCK =      1;   KBLOCK =      1    inner block; outer block 
   IBRION =     -1    ionic relax: 0-MD 1-quasi-New 2-CG
   NFREE  =      1    steps in history (QN), initial steepest desc. (CG)
   ISIF   =      2    stress and relaxation
   IWAVPR =     10    prediction:  0-non 1-charg 2-wave 3-comb
   ISYM   =      2    0-nonsym 1-usesym 2-fastsym
   LCORR  =      T    Harris-Foulkes like correction to forces

   POTIM  = 0.5000    time-step for ionic-motion
   TEIN   =    0.0    initial temperature
   TEBEG  =    0.0;   TEEND  =   0.0 temperature during run
   SMASS  =  -3.00    Nose mass-parameter (am)
   estimated Nose-frequenzy (Omega)   =  0.10E-29 period in steps =****** mass=  -0.303E-26a.u.
   SCALEE = 1.0000    scale energy and forces
   NPACO  =    256;   APACO  = 16.0  distance and # of slots for P.C.
   PSTRESS=    0.0 pullay stress

  Mass of Ions in am
   POMASS =  10.81 28.09
  Ionic Valenz
   ZVAL   =   3.00  4.00
  Atomic Wigner-Seitz radii
   RWIGS  =  -1.00 -1.00
  virtual crystal weights 
   VCA    =   1.00  1.00
   NELECT =     216.0000    total number of electrons
   NUPDOWN=      -1.0000    fix difference up-down

 DOS related values:
   EMIN   =  10.00;   EMAX   =-10.00  energy-range for DOS
   EFERMI =   0.00
   ISMEAR =     0;   SIGMA  =   0.05  broadening in eV -4-tet -1-fermi 0-gaus

 Electronic relaxation 2 (details)
   IALGO  =     38    algorithm
   LDIAG  =      T    sub-space diagonalisation (order eigenvalues)
   LSUBROT=      F    optimize rotation matrix (better conditioning)
   TURBO    =      0    0=normal 1=particle mesh
   IRESTART =      0    0=no restart 2=restart with 2 vectors
   NREBOOT  =      0    no. of reboots
   NMIN     =      0    reboot dimension
   EREF     =   0.00    reference energy to select bands
   IMIX   =      4    mixing-type and parameters
     AMIX     =   0.20;   BMIX     =  1.00
     AMIX_MAG =   0.80;   BMIX_MAG =  1.00
     AMIN     =   0.10
     WC   =   100.;   INIMIX=   1;  MIXPRE=   1;  MAXMIX= -45

 Intra band minimization:
   WEIMIN = 0.0000     energy-eigenvalue tresh-hold
   EBREAK =  0.17E-08  absolut break condition
   DEPER  =   0.30     relativ break condition  

   TIME   =   0.40     timestep for ELM

  volume/ion in A,a.u.               =      20.02       135.09
  Fermi-wavevector in a.u.,A,eV,Ry     =   0.957088  1.808633 12.463162  0.916017
  Thomas-Fermi vector in A             =   2.086074
 
 Write flags
   LWAVE        =      T    write WAVECAR
   LDOWNSAMPLE  =      F    k-point downsampling of WAVECAR
   LCHARG       =      T    write CHGCAR
   LVTOT        =      F    write LOCPOT, total local potential
   LVHAR        =      F    write LOCPOT, Hartree potential only
   LELF         =      F    write electronic localiz. function (ELF)
   LORBIT       =     10    0 simple, 1 ext, 2 COOP (PROOUT), +10 PAW based schemes


 Dipole corrections
   LMONO  =      F    monopole corrections only (constant potential shift)
   LDIPOL =      F    correct potential (dipole corrections)
   IDIPOL =      0    1-x, 2-y, 3-z, 4-all directions 
   EPSILON=  1.0000000 bulk dielectric constant

 Exchange correlation treatment:
   GGA     =    --    GGA type
   LEXCH   =     8    internal setting for exchange type
   VOSKOWN=      0    Vosko Wilk Nusair interpolation
   LHFCALC =     F    Hartree Fock is set to
   LHFONE  =     F    Hartree Fock one center treatment
   AEXX    =    0.0000 exact exchange contribution

 Linear response parameters
   LEPSILON=     F    determine dielectric tensor
   LRPA    =     F    only Hartree local field effects (RPA)
   LNABLA  =     F    use nabla operator in PAW spheres
   LVEL    =     F    velocity operator in full k-point grid
   LINTERFAST=   F  fast interpolation
   KINTER  =     0    interpolate to denser k-point grid
   CSHIFT  =0.1000    complex shift for real part using Kramers Kronig
   OMEGAMAX=  -1.0    maximum frequency
   DEG_THRESHOLD= 0.2000000E-02 threshold for treating states as degnerate
   RTIME   =   -0.100 relaxation time in fs
  (WPLASMAI=    0.000 imaginary part of plasma frequency in eV, 0.658/RTIME)
   DFIELD  = 0.0000000 0.0000000 0.0000000 field for delta impulse in time
 
 Orbital magnetization related:
   ORBITALMAG=     F  switch on orbital magnetization
   LCHIMAG   =     F  perturbation theory with respect to B field
   DQ        =  0.001000  dq finite difference perturbation B field
   LLRAUG    =     F  two centre corrections for induced B field



--------------------------------------------------------------------------------------------------------


 Static calculation
 charge density and potential will be updated during run
 non-spin polarized calculation
 Variant of blocked Davidson
 Davidson routine will perform the subspace rotation
 perform sub-space diagonalisation
    after iterative eigenvector-optimisation
 modified Broyden-mixing scheme, WC =      100.0
 initial mixing is a Kerker type mixing with AMIX =  0.2000 and BMIX =      1.0000
 Hartree-type preconditioning will be used
 using additional bands           36
 reciprocal scheme for non local part
 use partial core corrections
 calculate Harris-corrections to forces 
   (improved forces if not selfconsistent)
 use gradient corrections 
 use of overlap-Matrix (Vanderbilt PP)
 Gauss-broadening in eV      SIGMA  =   0.05


--------------------------------------------------------------------------------------------------------


  energy-cutoff  :      550.00
  volume of cell :     1080.99
      direct lattice vectors                 reciprocal lattice vectors
     9.976465530  0.000000000  5.759915070     0.100235900 -0.035438742  0.000000000
     3.325488510  9.405901920  5.759915070     0.000000000  0.106316227  0.000000000
     0.000000000  0.000000000 11.519830140    -0.050117950 -0.035438742  0.086806836

  length of vectors
    11.519830124 11.519830136 11.519830140     0.106316227  0.106316227  0.106316227


 
 k-points in units of 2pi/SCALE and weight: Automatic kpoint scheme                 
   0.00000000  0.00000000  0.00000000       0.016
   0.02505897 -0.00885969  0.00000000       0.125
   0.05011795 -0.01771937  0.00000000       0.062
   0.02505897  0.01771937  0.00000000       0.094
   0.05011795  0.00885969  0.00000000       0.375
  -0.02505897  0.03543874  0.00000000       0.188
   0.05011795  0.03543874  0.00000000       0.047
  -0.03758846  0.05315811  0.02170171       0.094
 
 k-points in reciprocal lattice and weights: Automatic kpoint scheme                 
   0.00000000  0.00000000  0.00000000       0.016
   0.25000000  0.00000000  0.00000000       0.125
   0.50000000  0.00000000  0.00000000       0.062
   0.25000000  0.25000000  0.00000000       0.094
   0.50000000  0.25000000  0.00000000       0.375
  -0.25000000  0.25000000  0.00000000       0.188
   0.50000000  0.50000000  0.00000000       0.047
  -0.25000000  0.50000000  0.25000000       0.094
 
 position of ions in fractional coordinates (direct lattice) 
   0.29166667  0.29166667  0.29166667
   0.29166667  0.29166667  0.62500000
   0.29166667  0.29166667  0.95833333
   0.29166667  0.62500000  0.29166667
   0.29166667  0.62500000  0.62500000
   0.29166667  0.62500000  0.95833333
   0.29166667  0.95833333  0.29166667
   0.29166667  0.95833333  0.62500000
   0.29166667  0.95833333  0.95833333
   0.62500000  0.29166667  0.29166667
   0.62500000  0.29166667  0.62500000
   0.62500000  0.29166667  0.95833333
   0.62500000  0.62500000  0.29166667
   0.62500000  0.62500000  0.62500000
   0.62500000  0.62500000  0.95833333
   0.62500000  0.95833333  0.29166667
   0.62500000  0.95833333  0.62500000
   0.62500000  0.95833333  0.95833333
   0.95833333  0.29166667  0.29166667
   0.95833333  0.29166667  0.62500000
   0.95833333  0.29166667  0.95833333
   0.95833333  0.62500000  0.29166667
   0.95833333  0.62500000  0.62500000
   0.95833333  0.62500000  0.95833333
   0.95833333  0.95833333  0.29166667
   0.95833333  0.95833333  0.62500000
   0.95833333  0.95833333  0.95833333
   0.04166667  0.04166667  0.04166667
   0.04166667  0.04166667  0.37500000
   0.04166667  0.04166667  0.70833333
   0.04166667  0.37500000  0.04166667
   0.04166667  0.37500000  0.37500000
   0.04166667  0.37500000  0.70833333
   0.04166667  0.70833333  0.04166667
   0.04166667  0.70833333  0.37500000
   0.04166667  0.70833333  0.70833333
   0.37500000  0.04166667  0.04166667
   0.37500000  0.04166667  0.37500000
   0.37500000  0.04166667  0.70833333
   0.37500000  0.37500000  0.04166667
   0.37500000  0.37500000  0.37500000
   0.37500000  0.37500000  0.70833333
   0.37500000  0.70833333  0.04166667
   0.37500000  0.70833333  0.37500000
   0.37500000  0.70833333  0.70833333
   0.70833333  0.04166667  0.04166667
   0.70833333  0.04166667  0.37500000
   0.70833333  0.04166667  0.70833333
   0.70833333  0.37500000  0.04166667
   0.70833333  0.37500000  0.37500000
   0.70833333  0.37500000  0.70833333
   0.70833333  0.70833333  0.04166667
   0.70833333  0.70833333  0.37500000
   0.70833333  0.70833333  0.70833333
 
 position of ions in cartesian coordinates  (Angst):
   3.87973659  2.74338806  6.71990091
   3.87973659  2.74338806 10.55984429
   3.87973659  2.74338806 14.39978767
   4.98823276  5.87868870  8.63987260
   4.98823276  5.87868870 12.47981598
   4.98823276  5.87868870 16.31975937
   6.09672893  9.01398934 10.55984429
   6.09672893  9.01398934 14.39978767
   6.09672893  9.01398934 18.23973106
   7.20522510  2.74338806  8.63987260
   7.20522510  2.74338806 12.47981598
   7.20522510  2.74338806 16.31975937
   8.31372128  5.87868870 10.55984429
   8.31372128  5.87868870 14.39978767
   8.31372128  5.87868870 18.23973106
   9.42221745  9.01398934 12.47981598
   9.42221745  9.01398934 16.31975937
   9.42221745  9.01398934 20.15970275
  10.53071362  2.74338806 10.55984429
  10.53071362  2.74338806 14.39978767
  10.53071362  2.74338806 18.23973106
  11.63920979  5.87868870 12.47981598
  11.63920979  5.87868870 16.31975937
  11.63920979  5.87868870 20.15970275
  12.74770596  9.01398934 14.39978767
  12.74770596  9.01398934 18.23973106
  12.74770596  9.01398934 22.07967444
   0.55424808  0.39191258  0.95998584
   0.55424808  0.39191258  4.79992922
   0.55424808  0.39191258  8.63987260
   1.66274425  3.52721322  2.87995753
   1.66274425  3.52721322  6.71990091
   1.66274425  3.52721322 10.55984430
   2.77124042  6.66251386  4.79992922
   2.77124042  6.66251386  8.63987261
   2.77124042  6.66251386 12.47981599
   3.87973659  0.39191258  2.87995753
   3.87973659  0.39191258  6.71990091
   3.87973659  0.39191258 10.55984430
   4.98823277  3.52721322  4.79992922
   4.98823277  3.52721322  8.63987261
   4.98823277  3.52721322 12.47981599
   6.09672894  6.66251386  6.71990091
   6.09672894  6.66251386 10.55984430
   6.09672894  6.66251386 14.39978768
   7.20522511  0.39191258  4.79992922
   7.20522511  0.39191258  8.63987261
   7.20522511  0.39191258 12.47981599
   8.31372128  3.52721322  6.71990091
   8.31372128  3.52721322 10.55984430
   8.31372128  3.52721322 14.39978768
   9.42221745  6.66251386  8.63987260
   9.42221745  6.66251386 12.47981599
   9.42221745  6.66251386 16.31975937
 


--------------------------------------------------------------------------------------------------------


 k-point  1 :   0.0000 0.0000 0.0000  plane waves:   31415
 k-point  2 :   0.2500 0.0000 0.0000  plane waves:   31608
 k-point  3 :   0.5000 0.0000 0.0000  plane waves:   31638
 k-point  4 :   0.2500 0.2500 0.0000  plane waves:   31695
 k-point  5 :   0.5000 0.2500 0.0000  plane waves:   31649
 k-point  6 :  -0.2500 0.2500 0.0000  plane waves:   31674
 k-point  7 :   0.5000 0.5000 0.0000  plane waves:   31716
 k-point  8 :  -0.2500 0.5000 0.2500  plane waves:   31684

 maximum and minimum number of plane-waves per node :     31716    31415

 maximum number of plane-waves:     31716
 maximum index in each direction: 
   IXMAX=   22   IYMAX=   22   IZMAX=   22
   IXMIN=  -22   IYMIN=  -22   IZMIN=  -22


 serial   3D FFT for wavefunctions
 parallel 3D FFT for charge:
    minimum data exchange during FFTs selected (reduces bandwidth)


 total amount of memory used by VASP MPI-rank0   140598. kBytes
=======================================================================

   base      :      30000. kBytes
   nonl-proj :      59902. kBytes
   fftplans  :       5382. kBytes
   grid      :      20451. kBytes
   one-center:        165. kBytes
   wavefun   :      24698. kBytes
 
     INWAV:  cpu time    0.0001: real time    0.0001
 Broyden mixing: mesh for mixing (old mesh)
   NGX = 45   NGY = 45   NGZ = 45
  (NGX  =140   NGY  =140   NGZ  =140)
  gives a total of  91125 points

 initial charge density was supplied:
 charge density of overlapping atoms calculated
 number of electron     215.0000000 magnetization 
 keeping initial charge density in first step


--------------------------------------------------------------------------------------------------------


 Maximum index for augmentation-charges          503 (set IRDMAX)


--------------------------------------------------------------------------------------------------------


 First call to EWALD:  gamma=   0.173
 Maximum number of real-space cells 3x 3x 3
 Maximum number of reciprocal cells 3x 3x 3

    FEWALD:  cpu time    0.0717: real time    0.0724


--------------------------------------- Iteration      1(   1)  ---------------------------------------


    POTLOK:  cpu time    0.2112: real time    0.2149
    SETDIJ:  cpu time    0.0131: real time    0.0134
     EDDAV:  cpu time    4.7471: real time    4.8020
       DOS:  cpu time    0.1042: real time    0.1072
    --------------------------------------------
      LOOP:  cpu time    5.0755: real time    5.1375

 eigenvalue-minimisations  :  2304
 total energy-change (2. order) : 0.5700910E+03  (-0.8579556E+04)
 number of electron     215.0000000 magnetization 
 augmentation part      215.0000000 magnetization 

 Free energy of the ion-electron system (eV)
  ---------------------------------------------------
  alpha Z        PSCENC =        93.27357238
  Ewald energy   TEWEN  =     -6115.53854741
  -Hartree energ DENC   =      -300.67959059
  -exchange      EXHF   =         0.00000000
  -V(xc)+E(xc)   XCENC  =      -487.55551508
  PAW double counting   =      4714.06124509    -3780.76198842
  entropy T*S    EENTRO =        -0.02282817
  eigenvalues    EBANDS =       913.62240016
  atomic energy  EATOM  =      5533.69225236
  Solvation  Ediel_sol  =         0.00000000
  ---------------------------------------------------
  free energy    TOTEN  =       570.09100031 eV

  energy without entropy =      570.11382848  energy(sigma->0) =      570.10241440


--------------------------------------------------------------------------------------------------------




--------------------------------------- Iteration      1(   2)  ---------------------------------------


     EDDAV:  cpu time    4.0791: real time    4.1152
       DOS:  cpu time    0.0033: real time    0.0033
    --------------------------------------------
      LOOP:  cpu time    4.0824: real time    4.1185

 eigenvalue-minimisations  :  2856
 total energy-change (2. order) :-0.8119909E+03  (-0.7808561E+03)
 number of electron     215.0000000 magnetization 
 augmentation part      215.0000000 magnetization 

 Free energy of the ion-electron system (eV)
  ---------------------------------------------------
  alpha Z        PSCENC =        93.27357238
  Ewald energy   TEWEN  =     -6115.53854741
  -Hartree energ DENC   =      -300.67959059
  -exchange      EXHF   =         0.00000000
  -V(xc)+E(xc)   XCENC  =      -487.55551508
  PAW double counting   =      4714.06124509    -3780.76198842
  entropy T*S    EENTRO =        -0.00000000
  eigenvalues    EBANDS =       101.60866970
  atomic energy  EATOM  =      5533.69225236
  Solvation  Ediel_sol  =         0.00000000
  ---------------------------------------------------
  free energy    TOTEN  =      -241.89990197 eV

  energy without entropy =     -241.89990197  energy(sigma->0) =     -241.89990197


--------------------------------------------------------------------------------------------------------




--------------------------------------- Iteration      1(   3)  ---------------------------------------


     EDDAV:  cpu time    4.0654: real time    4.1051
       DOS:  cpu time    0.0040: real time    0.0040
    --------------------------------------------
      LOOP:  cpu time    4.0694: real time    4.1090

 eigenvalue-minimisations  :  2880
 total energy-change (2. order) :-0.4890500E+02  (-0.4839385E+02)
 number of electron     215.0000000 magnetization 
 augmentation part      215.0000000 magnetization 

 Free energy of the ion-electron system (eV)
  ---------------------------------------------------
  alpha Z        PSCENC =        93.27357238
  Ewald energy   TEWEN  =     -6115.53854741
  -Hartree energ DENC   =      -300.67959059
  -exchange      EXHF   =         0.00000000
  -V(xc)+E(xc)   XCENC  =      -487.55551508
  PAW double counting   =      4714.06124509    -3780.76198842
  entropy T*S    EENTRO =        -0.00000000
  eigenvalues    EBANDS =        52.70367145
  atomic energy  EATOM  =      5533.69225236
  Solvation  Ediel_sol  =         0.00000000
  ---------------------------------------------------
  free energy    TOTEN  =      -290.80490022 eV

  energy without entropy =     -290.80490022  energy(sigma->0) =     -290.80490022


--------------------------------------------------------------------------------------------------------




--------------------------------------- Iteration      1(   4)  ---------------------------------------


     EDDAV:  cpu time    4.5371: real time    4.5836
       DOS:  cpu time    0.0038: real time    0.0038
    --------------------------------------------
      LOOP:  cpu time    4.5409: real time    4.5874

 eigenvalue-minimisations  :  2880
 total energy-change (2. order) :-0.9658879E+00  (-0.9616535E+00)
 number of electron     215.0000000 magnetization 
 augmentation part      215.0000000 magnetization 

 Free energy of the ion-electron system (eV)
  ---------------------------------------------------
  alpha Z        PSCENC =        93.27357238
  Ewald energy   TEWEN  =     -6115.53854741
  -Hartree energ DENC   =      -300.67959059
  -exchange      EXHF   =         0.00000000
  -V(xc)+E(xc)   XCENC  =      -487.55551508
  PAW double counting   =      4714.06124509    -3780.76198842
  entropy T*S    EENTRO =        -0.00000000
  eigenvalues    EBANDS =        51.73778357
  atomic energy  EATOM  =      5533.69225236
  Solvation  Ediel_sol  =         0.00000000
  ---------------------------------------------------
  free energy    TOTEN  =      -291.77078810 eV

  energy without entropy =     -291.77078810  energy(sigma->0) =     -291.77078810


--------------------------------------------------------------------------------------------------------




--------------------------------------- Iteration      1(   5)  ---------------------------------------


     EDDAV:  cpu time    3.9856: real time    4.0207
       DOS:  cpu time    0.0036: real time    0.0036
    CHARGE:  cpu time    0.1668: real time    0.1693
    MIXING:  cpu time    0.0160: real time    0.0221
    --------------------------------------------
      LOOP:  cpu time    4.1721: real time    4.2157

 eigenvalue-minimisations  :  2832
 total energy-change (2. order) :-0.2102181E-01  (-0.2100798E-01)
 number of electron     215.9999999 magnetization 
 augmentation part      -12.4987461 magnetization 

 Broyden mixing:
  rms(total) = 0.25239E+01    rms(broyden)= 0.25238E+01
  rms(prec ) = 0.29270E+01
  weight for this iteration     100.00

 Free energy of the ion-electron system (eV)
  ---------------------------------------------------
  alpha Z        PSCENC =        93.27357238
  Ewald energy   TEWEN  =     -6115.53854741
  -Hartree energ DENC   =      -300.67959059
  -exchange      EXHF   =         0.00000000
  -V(xc)+E(xc)   XCENC  =      -487.55551508
  PAW double counting   =      4714.06124509    -3780.76198842
  entropy T*S    EENTRO =        -0.00000000
  eigenvalues    EBANDS =        51.71676176
  atomic energy  EATOM  =      5533.69225236
  Solvation  Ediel_sol  =         0.00000000
  ---------------------------------------------------
  free energy    TOTEN  =      -291.79180991 eV

  energy without entropy =     -291.79180991  energy(sigma->0) =     -291.79180991


--------------------------------------------------------------------------------------------------------




--------------------------------------- Iteration      1(   6)  ---------------------------------------


    POTLOK:  cpu time    0.0842: real time    0.0851
    SETDIJ:  cpu time    0.0039: real time    0.0039
     EDDAV:  cpu time    4.5438: real time    4.5859
       DOS:  cpu time    0.0060: real time    0.0060
    CHARGE:  cpu time    0.1614: real time    0.1624
    MIXING:  cpu time    0.0285: real time    0.0293
    --------------------------------------------
      LOOP:  cpu time    4.8278: real time    4.8727

 eigenvalue-minimisations  :  3048
 total energy-change (2. order) : 0.2414850E+01  (-0.1073209E+00)
 number of electron     215.9999999 magnetization 
 augmentation part      -12.4384539 magnetization 

 Broyden mixing:
  rms(total) = 0.20360E+01    rms(broyden)= 0.20360E+01
  rms(prec ) = 0.23361E+01
  weight for this iteration     100.00

 eigenvalues of (default mixing * dielectric matrix)
  average eigenvalue GAMMA=   5.0251
  5.0251

 Free energy of the ion-electron system (eV)
  ---------------------------------------------------
  alpha Z        PSCENC =        93.27357238
  Ewald energy   TEWEN  =     -6115.53854741
  -Hartree energ DENC   =      -320.48262624
  -exchange      EXHF   =         0.00000000
  -V(xc)+E(xc)   XCENC  =      -481.67322967
  PAW double counting   =      7097.41521596    -6165.57824799
  entropy T*S    EENTRO =        -0.00000000
  eigenvalues    EBANDS =        69.51465030
  atomic energy  EATOM  =      5533.69225236
  Solvation  Ediel_sol  =         0.00000000
  ---------------------------------------------------
  free energy    TOTEN  =      -289.37696032 eV

  energy without entropy =     -289.37696032  energy(sigma->0) =     -289.37696032


--------------------------------------------------------------------------------------------------------




--------------------------------------- Iteration      1(   7)  ---------------------------------------


    POTLOK:  cpu time    0.0747: real time    0.0762
    SETDIJ:  cpu time    0.4006: real time    0.4057
     EDDAV:  cpu time    4.3313: real time    4.3855
       DOS:  cpu time    0.3194: real time    0.3236
    CHARGE:  cpu time    0.8104: real time    0.8220
    MIXING:  cpu time    0.2305: real time    0.2337
    --------------------------------------------
      LOOP:  cpu time    6.1669: real time    6.2467

 eigenvalue-minimisations  :  3000
 total energy-change (2. order) : 0.2963875E+01  (-0.9161827E+00)
 number of electron     215.9999999 magnetization 
 augmentation part      -12.2192539 magnetization 

 Broyden mixing:
  rms(total) = 0.30838E+00    rms(broyden)= 0.30838E+00
  rms(prec ) = 0.42911E+00
  weight for this iteration     100.00

 eigenvalues of (default mixing * dielectric matrix)
  average eigenvalue GAMMA=   3.3774
  1.8129  4.9420

 Free energy of the ion-electron system (eV)
  ---------------------------------------------------
  alpha Z        PSCENC =        93.27357238
  Ewald energy   TEWEN  =     -6115.53854741
  -Hartree energ DENC   =      -401.75919184
  -exchange      EXHF   =         0.00000000
  -V(xc)+E(xc)   XCENC  =      -468.91284473
  PAW double counting   =     21302.95127324   -20376.34371044
  entropy T*S    EENTRO =        -0.00000026
  eigenvalues    EBANDS =       146.22411168
  atomic energy  EATOM  =      5533.69225236
  Solvation  Ediel_sol  =         0.00000000
  ---------------------------------------------------
  free energy    TOTEN  =      -286.41308501 eV

  energy without entropy =     -286.41308475  energy(sigma->0) =     -286.41308488


--------------------------------------------------------------------------------------------------------




--------------------------------------- Iteration      1(   8)  ---------------------------------------


    POTLOK:  cpu time    0.1818: real time    0.1843
    SETDIJ:  cpu time    0.0641: real time    0.0649
     EDDAV:  cpu time    4.2500: real time    4.2956
       DOS:  cpu time    0.0065: real time    0.0065
    CHARGE:  cpu time    0.1623: real time    0.1633
    MIXING:  cpu time    0.0043: real time    0.0043
    --------------------------------------------
      LOOP:  cpu time    4.6690: real time    4.7188

 eigenvalue-minimisations  :  2880
 total energy-change (2. order) : 0.1002869E+00  (-0.1264878E+00)
 number of electron     215.9999999 magnetization 
 augmentation part      -12.1912211 magnetization 

 Broyden mixing:
  rms(total) = 0.11414E+00    rms(broyden)= 0.11414E+00
  rms(prec ) = 0.13811E+00
  weight for this iteration     100.00

 eigenvalues of (default mixing * dielectric matrix)
  average eigenvalue GAMMA=   2.5209
  4.9622  1.8047  0.7958

 Free energy of the ion-electron system (eV)
  ---------------------------------------------------
  alpha Z        PSCENC =        93.27357238
  Ewald energy   TEWEN  =     -6115.53854741
  -Hartree energ DENC   =      -407.06099142
  -exchange      EXHF   =         0.00000000
  -V(xc)+E(xc)   XCENC  =      -467.84496981
  PAW double counting   =     23156.84557573   -22230.22843466
  entropy T*S    EENTRO =        -0.00000000
  eigenvalues    EBANDS =       150.54874467
  atomic energy  EATOM  =      5533.69225236
  Solvation  Ediel_sol  =         0.00000000
  ---------------------------------------------------
  free energy    TOTEN  =      -286.31279816 eV

  energy without entropy =     -286.31279816  energy(sigma->0) =     -286.31279816


--------------------------------------------------------------------------------------------------------




--------------------------------------- Iteration      1(   9)  ---------------------------------------


    POTLOK:  cpu time    0.0857: real time    0.0905
    SETDIJ:  cpu time    0.0033: real time    0.0033
     EDDAV:  cpu time    3.6967: real time    3.7300
       DOS:  cpu time    0.0058: real time    0.0058
    CHARGE:  cpu time    0.1617: real time    0.1627
    MIXING:  cpu time    0.0046: real time    0.0046
    --------------------------------------------
      LOOP:  cpu time    3.9578: real time    3.9969

 eigenvalue-minimisations  :  2688
 total energy-change (2. order) :-0.1015540E-01  (-0.9941802E-02)
 number of electron     215.9999999 magnetization 
 augmentation part      -12.1903633 magnetization 

 Broyden mixing:
  rms(total) = 0.72539E-01    rms(broyden)= 0.72539E-01
  rms(prec ) = 0.91671E-01
  weight for this iteration     100.00

 eigenvalues of (default mixing * dielectric matrix)
  average eigenvalue GAMMA=   2.4056
  4.8645  2.3188  1.0334  1.4058

 Free energy of the ion-electron system (eV)
  ---------------------------------------------------
  alpha Z        PSCENC =        93.27357238
  Ewald energy   TEWEN  =     -6115.53854741
  -Hartree energ DENC   =      -406.90769176
  -exchange      EXHF   =         0.00000000
  -V(xc)+E(xc)   XCENC  =      -467.78390261
  PAW double counting   =     23293.04458154   -22366.27799546
  entropy T*S    EENTRO =        -0.00000000
  eigenvalues    EBANDS =       150.17477739
  atomic energy  EATOM  =      5533.69225236
  Solvation  Ediel_sol  =         0.00000000
  ---------------------------------------------------
  free energy    TOTEN  =      -286.32295356 eV

  energy without entropy =     -286.32295356  energy(sigma->0) =     -286.32295356


--------------------------------------------------------------------------------------------------------




--------------------------------------- Iteration      1(  10)  ---------------------------------------


    POTLOK:  cpu time    0.2808: real time    0.2844
    SETDIJ:  cpu time    0.1057: real time    0.1071
     EDDAV:  cpu time    4.3744: real time    4.4236
       DOS:  cpu time    0.1656: real time    0.1675
    CHARGE:  cpu time    0.2581: real time    0.2610
    MIXING:  cpu time    0.0122: real time    0.0124
    --------------------------------------------
      LOOP:  cpu time    5.1969: real time    5.2559

 eigenvalue-minimisations  :  2784
 total energy-change (2. order) :-0.4648979E-02  (-0.1445617E-02)
 number of electron     215.9999999 magnetization 
 augmentation part      -12.1972803 magnetization 

 Broyden mixing:
  rms(total) = 0.42543E-01    rms(broyden)= 0.42543E-01
  rms(prec ) = 0.52207E-01
  weight for this iteration     100.00

 eigenvalues of (default mixing * dielectric matrix)
  average eigenvalue GAMMA=   2.6655
  4.6825  4.6825  1.9750  0.9936  0.9936

 Free energy of the ion-electron system (eV)
  ---------------------------------------------------
  alpha Z        PSCENC =        93.27357238
  Ewald energy   TEWEN  =     -6115.53854741
  -Hartree energ DENC   =      -406.05731017
  -exchange      EXHF   =         0.00000000
  -V(xc)+E(xc)   XCENC  =      -467.80915729
  PAW double counting   =     23255.52584144   -22328.51964137
  entropy T*S    EENTRO =        -0.00000000
  eigenvalues    EBANDS =       149.10538752
  atomic energy  EATOM  =      5533.69225236
  Solvation  Ediel_sol  =         0.00000000
  ---------------------------------------------------
  free energy    TOTEN  =      -286.32760254 eV

  energy without entropy =     -286.32760254  energy(sigma->0) =     -286.32760254


--------------------------------------------------------------------------------------------------------




--------------------------------------- Iteration      1(  11)  ---------------------------------------


    POTLOK:  cpu time    0.1291: real time    0.1312
    SETDIJ:  cpu time    0.0874: real time    0.0884
     EDDAV:  cpu time    3.9527: real time    3.9897
       DOS:  cpu time    0.0050: real time    0.0051
    CHARGE:  cpu time    0.1611: real time    0.1621
    MIXING:  cpu time    0.0048: real time    0.0049
    --------------------------------------------
      LOOP:  cpu time    4.3402: real time    4.3814

 eigenvalue-minimisations  :  2688
 total energy-change (2. order) :-0.7147368E-02  (-0.1379989E-02)
 number of electron     215.9999999 magnetization 
 augmentation part      -12.2073983 magnetization 

 Broyden mixing:
  rms(total) = 0.22826E-01    rms(broyden)= 0.22826E-01
  rms(prec ) = 0.27663E-01
  weight for this iteration     100.00

 eigenvalues of (default mixing * dielectric matrix)
  average eigenvalue GAMMA=   2.2687
  4.6739  4.6739  1.9839  1.0028  1.0028  0.2749

 Free energy of the ion-electron system (eV)
  ---------------------------------------------------
  alpha Z        PSCENC =        93.27357238
  Ewald energy   TEWEN  =     -6115.53854741
  -Hartree energ DENC   =      -405.49328310
  -exchange      EXHF   =         0.00000000
  -V(xc)+E(xc)   XCENC  =      -467.78377896
  PAW double counting   =     23238.19158507   -22310.94128045
  entropy T*S    EENTRO =        -0.00000000
  eigenvalues    EBANDS =       148.26473020
  atomic energy  EATOM  =      5533.69225236
  Solvation  Ediel_sol  =         0.00000000
  ---------------------------------------------------
  free energy    TOTEN  =      -286.33474991 eV

  energy without entropy =     -286.33474991  energy(sigma->0) =     -286.33474991


--------------------------------------------------------------------------------------------------------




--------------------------------------- Iteration      1(  12)  ---------------------------------------


    POTLOK:  cpu time    0.0877: real time    0.0891
    SETDIJ:  cpu time    0.0032: real time    0.0032
     EDDAV:  cpu time    4.0233: real time    4.0584
       DOS:  cpu time    0.0045: real time    0.0045
    CHARGE:  cpu time    0.1616: real time    0.1627
    MIXING:  cpu time    0.0045: real time    0.0046
    --------------------------------------------
      LOOP:  cpu time    4.2849: real time    4.3225

 eigenvalue-minimisations  :  2952
 total energy-change (2. order) :-0.7130031E-03  (-0.1398787E-03)
 number of electron     215.9999999 magnetization 
 augmentation part      -12.2080052 magnetization 

 Broyden mixing:
  rms(total) = 0.17148E-01    rms(broyden)= 0.17148E-01
  rms(prec ) = 0.20208E-01
  weight for this iteration     100.00

 eigenvalues of (default mixing * dielectric matrix)
  average eigenvalue GAMMA=   2.5759
  5.3317  4.8455  2.0427  1.9650  1.9650  0.9406  0.9406

 Free energy of the ion-electron system (eV)
  ---------------------------------------------------
  alpha Z        PSCENC =        93.27357238
  Ewald energy   TEWEN  =     -6115.53854741
  -Hartree energ DENC   =      -405.52291520
  -exchange      EXHF   =         0.00000000
  -V(xc)+E(xc)   XCENC  =      -467.77915107
  PAW double counting   =     23152.29366268   -22225.02395977
  entropy T*S    EENTRO =        -0.00000000
  eigenvalues    EBANDS =       148.26962311
  atomic energy  EATOM  =      5533.69225236
  Solvation  Ediel_sol  =         0.00000000
  ---------------------------------------------------
  free energy    TOTEN  =      -286.33546291 eV

  energy without entropy =     -286.33546291  energy(sigma->0) =     -286.33546291


--------------------------------------------------------------------------------------------------------




--------------------------------------- Iteration      1(  13)  ---------------------------------------


    POTLOK:  cpu time    0.0882: real time    0.0895
    SETDIJ:  cpu time    0.0033: real time    0.0034
     EDDAV:  cpu time    4.4502: real time    4.4922
       DOS:  cpu time    0.1525: real time    0.1537
    CHARGE:  cpu time    0.2255: real time    0.2277
    MIXING:  cpu time    0.0193: real time    0.0195
    --------------------------------------------
      LOOP:  cpu time    4.9390: real time    4.9859

 eigenvalue-minimisations  :  2712
 total energy-change (2. order) :-0.1397526E-02  (-0.1852382E-03)
 number of electron     215.9999999 magnetization 
 augmentation part      -12.2093159 magnetization 

 Broyden mixing:
  rms(total) = 0.10290E-01    rms(broyden)= 0.10290E-01
  rms(prec ) = 0.11587E-01
  weight for this iteration     100.00

 eigenvalues of (default mixing * dielectric matrix)
  average eigenvalue GAMMA=   2.5324
  5.3369  5.0718  2.9385  2.2654  1.8556  0.9696  0.9696  0.8515

 Free energy of the ion-electron system (eV)
  ---------------------------------------------------
  alpha Z        PSCENC =        93.27357238
  Ewald energy   TEWEN  =     -6115.53854741
  -Hartree energ DENC   =      -405.97716196
  -exchange      EXHF   =         0.00000000
  -V(xc)+E(xc)   XCENC  =      -467.68470046
  PAW double counting   =     23130.38697936   -22203.07154787
  entropy T*S    EENTRO =        -0.00000000
  eigenvalues    EBANDS =       148.58229317
  atomic energy  EATOM  =      5533.69225236
  Solvation  Ediel_sol  =         0.00000000
  ---------------------------------------------------
  free energy    TOTEN  =      -286.33686044 eV

  energy without entropy =     -286.33686044  energy(sigma->0) =     -286.33686044


--------------------------------------------------------------------------------------------------------




--------------------------------------- Iteration      1(  14)  ---------------------------------------


    POTLOK:  cpu time    0.0711: real time    0.0725
    SETDIJ:  cpu time    0.1471: real time    0.1483
     EDDAV:  cpu time    4.2616: real time    4.3052
       DOS:  cpu time    0.0058: real time    0.0058
    CHARGE:  cpu time    0.1726: real time    0.1738
    MIXING:  cpu time    0.0049: real time    0.0050
    --------------------------------------------
      LOOP:  cpu time    4.6633: real time    4.7107

 eigenvalue-minimisations  :  2880
 total energy-change (2. order) :-0.3860194E-04  (-0.2406901E-04)
 number of electron     215.9999999 magnetization 
 augmentation part      -12.2090975 magnetization 

 Broyden mixing:
  rms(total) = 0.57482E-02    rms(broyden)= 0.57482E-02
  rms(prec ) = 0.62541E-02
  weight for this iteration     100.00

 eigenvalues of (default mixing * dielectric matrix)
  average eigenvalue GAMMA=   2.5513
  5.8847  5.0875  3.7182  2.2603  1.7818  0.9364  0.9364  1.1784  1.1784

 Free energy of the ion-electron system (eV)
  ---------------------------------------------------
  alpha Z        PSCENC =        93.27357238
  Ewald energy   TEWEN  =     -6115.53854741
  -Hartree energ DENC   =      -406.11559439
  -exchange      EXHF   =         0.00000000
  -V(xc)+E(xc)   XCENC  =      -467.67132580
  PAW double counting   =     23086.43160346   -22159.12477403
  entropy T*S    EENTRO =        -0.00000000
  eigenvalues    EBANDS =       148.71591439
  atomic energy  EATOM  =      5533.69225236
  Solvation  Ediel_sol  =         0.00000000
  ---------------------------------------------------
  free energy    TOTEN  =      -286.33689904 eV

  energy without entropy =     -286.33689904  energy(sigma->0) =     -286.33689904


--------------------------------------------------------------------------------------------------------




--------------------------------------- Iteration      1(  15)  ---------------------------------------


    POTLOK:  cpu time    0.0877: real time    0.0890
    SETDIJ:  cpu time    0.0031: real time    0.0031
     EDDAV:  cpu time    6.0331: real time    6.1035
       DOS:  cpu time    0.1658: real time    0.1676
    CHARGE:  cpu time    0.2373: real time    0.2401
    MIXING:  cpu time    0.0198: real time    0.0200
    --------------------------------------------
      LOOP:  cpu time    6.5467: real time    6.6233

 eigenvalue-minimisations  :  3024
 total energy-change (2. order) :-0.4055869E-04  (-0.1083999E-04)
 number of electron     215.9999999 magnetization 
 augmentation part      -12.2084467 magnetization 

 Broyden mixing:
  rms(total) = 0.25607E-02    rms(broyden)= 0.25607E-02
  rms(prec ) = 0.28292E-02
  weight for this iteration     100.00

 eigenvalues of (default mixing * dielectric matrix)
  average eigenvalue GAMMA=   2.4933
  5.8935  4.7357  3.3877  2.5717  2.5717  1.7703  1.1885  0.8713  0.9711  0.9711

 Free energy of the ion-electron system (eV)
  ---------------------------------------------------
  alpha Z        PSCENC =        93.27357238
  Ewald energy   TEWEN  =     -6115.53854741
  -Hartree energ DENC   =      -406.24427440
  -exchange      EXHF   =         0.00000000
  -V(xc)+E(xc)   XCENC  =      -467.65994830
  PAW double counting   =     23041.20310857   -22113.90371419
  entropy T*S    EENTRO =        -0.00000000
  eigenvalues    EBANDS =       148.84061138
  atomic energy  EATOM  =      5533.69225236
  Solvation  Ediel_sol  =         0.00000000
  ---------------------------------------------------
  free energy    TOTEN  =      -286.33693960 eV

  energy without entropy =     -286.33693960  energy(sigma->0) =     -286.33693960


--------------------------------------------------------------------------------------------------------




--------------------------------------- Iteration      1(  16)  ---------------------------------------


    POTLOK:  cpu time    0.0716: real time    0.0731
    SETDIJ:  cpu time    0.1588: real time    0.1607
     EDDAV:  cpu time    7.8860: real time    7.9845
       DOS:  cpu time    0.1526: real time    0.1536
    CHARGE:  cpu time    0.2285: real time    0.2299
    MIXING:  cpu time    0.0124: real time    0.0124
    --------------------------------------------
      LOOP:  cpu time    8.5100: real time    8.6142

 eigenvalue-minimisations  :  2928
 total energy-change (2. order) :-0.2752182E-05  (-0.1267503E-05)
 number of electron     215.9999999 magnetization 
 augmentation part      -12.2083409 magnetization 

 Broyden mixing:
  rms(total) = 0.16339E-02    rms(broyden)= 0.16339E-02
  rms(prec ) = 0.17534E-02
  weight for this iteration     100.00

 eigenvalues of (default mixing * dielectric matrix)
  average eigenvalue GAMMA=   2.4483
  5.9538  4.8040  3.3659  3.3659  2.6803  1.8068  1.2651  0.9434  0.9434  0.9014
  0.9014

 Free energy of the ion-electron system (eV)
  ---------------------------------------------------
  alpha Z        PSCENC =        93.27357238
  Ewald energy   TEWEN  =     -6115.53854741
  -Hartree energ DENC   =      -406.29386583
  -exchange      EXHF   =         0.00000000
  -V(xc)+E(xc)   XCENC  =      -467.65408061
  PAW double counting   =     23048.01783760   -22120.72190928
  entropy T*S    EENTRO =        -0.00000000
  eigenvalues    EBANDS =       148.88779843
  atomic energy  EATOM  =      5533.69225236
  Solvation  Ediel_sol  =         0.00000000
  ---------------------------------------------------
  free energy    TOTEN  =      -286.33694235 eV

  energy without entropy =     -286.33694235  energy(sigma->0) =     -286.33694235


--------------------------------------------------------------------------------------------------------




--------------------------------------- Iteration      1(  17)  ---------------------------------------


    POTLOK:  cpu time    0.1433: real time    0.1450
    SETDIJ:  cpu time    0.0802: real time    0.0806
     EDDAV:  cpu time    4.5783: real time    4.6324
       DOS:  cpu time    0.1772: real time    0.1797
    CHARGE:  cpu time    0.2741: real time    0.2773
    MIXING:  cpu time    0.0120: real time    0.0121
    --------------------------------------------
      LOOP:  cpu time    5.2650: real time    5.3270

 eigenvalue-minimisations  :  2592
 total energy-change (2. order) :-0.1408611E-05  (-0.3882683E-06)
 number of electron     215.9999999 magnetization 
 augmentation part      -12.2082677 magnetization 

 Broyden mixing:
  rms(total) = 0.10757E-02    rms(broyden)= 0.10757E-02
  rms(prec ) = 0.11811E-02
  weight for this iteration     100.00

 eigenvalues of (default mixing * dielectric matrix)
  average eigenvalue GAMMA=   2.4054
  6.2126  4.8314  3.4996  3.4996  2.8062  1.9061  1.1636  1.1636  1.0505  0.9392
  0.9392  0.8529

 Free energy of the ion-electron system (eV)
  ---------------------------------------------------
  alpha Z        PSCENC =        93.27357238
  Ewald energy   TEWEN  =     -6115.53854741
  -Hartree energ DENC   =      -406.29890361
  -exchange      EXHF   =         0.00000000
  -V(xc)+E(xc)   XCENC  =      -467.65436771
  PAW double counting   =     23046.07115557   -22118.77529482
  entropy T*S    EENTRO =        -0.00000000
  eigenvalues    EBANDS =       148.89318948
  atomic energy  EATOM  =      5533.69225236
  Solvation  Ediel_sol  =         0.00000000
  ---------------------------------------------------
  free energy    TOTEN  =      -286.33694376 eV

  energy without entropy =     -286.33694376  energy(sigma->0) =     -286.33694376


--------------------------------------------------------------------------------------------------------




--------------------------------------- Iteration      1(  18)  ---------------------------------------


    POTLOK:  cpu time    0.1267: real time    0.1288
    SETDIJ:  cpu time    0.1045: real time    0.1058
     EDDAV:  cpu time    4.8723: real time    4.9255
       DOS:  cpu time    0.2247: real time    0.2275
    CHARGE:  cpu time    0.4647: real time    0.4707
    MIXING:  cpu time    0.0192: real time    0.0194
    --------------------------------------------
      LOOP:  cpu time    5.8122: real time    5.8778

 eigenvalue-minimisations  :  2304
 total energy-change (2. order) :-0.3314424E-05  (-0.3039704E-06)
 number of electron     215.9999999 magnetization 
 augmentation part      -12.2081577 magnetization 

 Broyden mixing:
  rms(total) = 0.59018E-03    rms(broyden)= 0.59018E-03
  rms(prec ) = 0.65716E-03
  weight for this iteration     100.00

 eigenvalues of (default mixing * dielectric matrix)
  average eigenvalue GAMMA=   2.4247
  6.2342  4.8112  4.5662  2.7768  2.7768  2.4756  1.7039  1.3679  1.0593  0.9228
  0.9228  0.9518  0.9518

 Free energy of the ion-electron system (eV)
  ---------------------------------------------------
  alpha Z        PSCENC =        93.27357238
  Ewald energy   TEWEN  =     -6115.53854741
  -Hartree energ DENC   =      -406.32198516
  -exchange      EXHF   =         0.00000000
  -V(xc)+E(xc)   XCENC  =      -467.65281085
  PAW double counting   =     23040.78975169   -22113.49567765
  entropy T*S    EENTRO =        -0.00000000
  eigenvalues    EBANDS =       148.91649757
  atomic energy  EATOM  =      5533.69225236
  Solvation  Ediel_sol  =         0.00000000
  ---------------------------------------------------
  free energy    TOTEN  =      -286.33694707 eV

  energy without entropy =     -286.33694707  energy(sigma->0) =     -286.33694707


--------------------------------------------------------------------------------------------------------




--------------------------------------- Iteration      1(  19)  ---------------------------------------


    POTLOK:  cpu time    0.1302: real time    0.1323
    SETDIJ:  cpu time    0.0796: real time    0.0805
     EDDAV:  cpu time    3.3638: real time    3.4015
       DOS:  cpu time    0.1517: real time    0.1536
    CHARGE:  cpu time    0.2584: real time    0.2608
    MIXING:  cpu time    0.0123: real time    0.0125
    --------------------------------------------
      LOOP:  cpu time    3.9960: real time    4.0412

 eigenvalue-minimisations  :  1728
 total energy-change (2. order) :-0.1041226E-05  (-0.6997081E-07)
 number of electron     215.9999999 magnetization 
 augmentation part      -12.2080916 magnetization 

 Broyden mixing:
  rms(total) = 0.39502E-03    rms(broyden)= 0.39502E-03
  rms(prec ) = 0.44747E-03
  weight for this iteration     100.00

 eigenvalues of (default mixing * dielectric matrix)
  average eigenvalue GAMMA=   2.4195
  6.2906  4.9722  4.1059  4.1059  2.6024  2.6024  1.7920  1.2310  1.2310  1.1851
  0.9740  0.9740  0.9380  0.8680

 Free energy of the ion-electron system (eV)
  ---------------------------------------------------
  alpha Z        PSCENC =        93.27357238
  Ewald energy   TEWEN  =     -6115.53854741
  -Hartree energ DENC   =      -406.32862030
  -exchange      EXHF   =         0.00000000
  -V(xc)+E(xc)   XCENC  =      -467.65256255
  PAW double counting   =     23041.25805218   -22113.96456262
  entropy T*S    EENTRO =        -0.00000000
  eigenvalues    EBANDS =       148.92346785
  atomic energy  EATOM  =      5533.69225236
  Solvation  Ediel_sol  =         0.00000000
  ---------------------------------------------------
  free energy    TOTEN  =      -286.33694811 eV

  energy without entropy =     -286.33694811  energy(sigma->0) =     -286.33694811


--------------------------------------------------------------------------------------------------------




--------------------------------------- Iteration      1(  20)  ---------------------------------------


    POTLOK:  cpu time    0.1398: real time    0.1420
    SETDIJ:  cpu time    0.0708: real time    0.0716
     EDDAV:  cpu time    3.3870: real time    3.4266
       DOS:  cpu time    0.1518: real time    0.1535
    CHARGE:  cpu time    0.2451: real time    0.2479
    MIXING:  cpu time    0.0123: real time    0.0125
    --------------------------------------------
      LOOP:  cpu time    4.0067: real time    4.0540

 eigenvalue-minimisations  :  1824
 total energy-change (2. order) : 0.1024242E-05  (-0.4129980E-07)
 number of electron     215.9999999 magnetization 
 augmentation part      -12.2081156 magnetization 

 Broyden mixing:
  rms(total) = 0.17099E-03    rms(broyden)= 0.17099E-03
  rms(prec ) = 0.19101E-03
  weight for this iteration     100.00

 eigenvalues of (default mixing * dielectric matrix)
  average eigenvalue GAMMA=   2.4668
  6.4028  4.9825  4.5561  4.5561  2.6755  2.6755  1.7890  1.7890  1.5792  1.2111
  0.8987  0.9654  0.9654  0.9781  0.9781

 Free energy of the ion-electron system (eV)
  ---------------------------------------------------
  alpha Z        PSCENC =        93.27357238
  Ewald energy   TEWEN  =     -6115.53854741
  -Hartree energ DENC   =      -406.32480707
  -exchange      EXHF   =         0.00000000
  -V(xc)+E(xc)   XCENC  =      -467.65298909
  PAW double counting   =     23043.02536046   -22115.73109340
  entropy T*S    EENTRO =        -0.00000000
  eigenvalues    EBANDS =       148.91930469
  atomic energy  EATOM  =      5533.69225236
  Solvation  Ediel_sol  =         0.00000000
  ---------------------------------------------------
  free energy    TOTEN  =      -286.33694709 eV

  energy without entropy =     -286.33694709  energy(sigma->0) =     -286.33694709


--------------------------------------------------------------------------------------------------------




--------------------------------------- Iteration      1(  21)  ---------------------------------------


    POTLOK:  cpu time    0.1551: real time    0.1575
    SETDIJ:  cpu time    0.0684: real time    0.0691
     EDDAV:  cpu time    3.7301: real time    3.7665
       DOS:  cpu time    0.0042: real time    0.0042
    --------------------------------------------
      LOOP:  cpu time    3.9577: real time    3.9972

 eigenvalue-minimisations  :  1728
 total energy-change (2. order) :-0.3790574E-06  (-0.1796250E-07)
 number of electron     215.9999999 magnetization 
 augmentation part      -12.2081156 magnetization 

 Free energy of the ion-electron system (eV)
  ---------------------------------------------------
  alpha Z        PSCENC =        93.27357238
  Ewald energy   TEWEN  =     -6115.53854741
  -Hartree energ DENC   =      -406.32811736
  -exchange      EXHF   =         0.00000000
  -V(xc)+E(xc)   XCENC  =      -467.65277464
  PAW double counting   =     23044.28809304   -22116.99400982
  entropy T*S    EENTRO =        -0.00000000
  eigenvalues    EBANDS =       148.92258399
  atomic energy  EATOM  =      5533.69225236
  Solvation  Ediel_sol  =         0.00000000
  ---------------------------------------------------
  free energy    TOTEN  =      -286.33694747 eV

  energy without entropy =     -286.33694747  energy(sigma->0) =     -286.33694747


--------------------------------------------------------------------------------------------------------




 average (electrostatic) potential at core
  the test charge radii are     0.7672  0.9892
  (the norm of the test charge is              1.0000)
       1 -26.5806       2 -83.3076       3 -83.3075       4 -83.3076       5 -83.4411
       6 -83.3076       7 -83.3075       8 -83.3076       9 -83.4281      10 -83.3076
      11 -83.4411      12 -83.3076      13 -83.4411      14 -83.4411      15 -83.4754
      16 -83.3076      17 -83.4754      18 -83.4754      19 -83.3075      20 -83.3076
      21 -83.4281      22 -83.3076      23 -83.4754      24 -83.4754      25 -83.4281
      26 -83.4754      27 -83.4281      28 -83.4772      29 -83.4174      30 -83.4174
      31 -83.4174      32 -83.1061      33 -83.4174      34 -83.4174      35 -83.4174
      36 -83.4830      37 -83.4174      38 -83.1061      39 -83.4174      40 -83.1061
      41 -83.1061      42 -83.3540      43 -83.4174      44 -83.3540      45 -83.3540
      46 -83.4174      47 -83.4174      48 -83.4830      49 -83.4174      50 -83.3540
      51 -83.3540      52 -83.4830      53 -83.3540      54 -83.4830
 
 
 
 E-fermi :   6.0697     XC(G=0):  -9.4021     alpha+bet :-11.8640


 k-point     1 :       0.0000    0.0000    0.0000
  band No.  band energies     occupation 
      1      -6.2470      2.00000
      2      -4.9438      2.00000
      3      -4.9129      2.00000
      4      -4.9129      2.00000
      5      -4.9129      2.00000
      6      -4.8711      2.00000
      7      -4.8711      2.00000
      8      -4.8711      2.00000
      9      -4.7306      2.00000
     10      -4.3716      2.00000
     11      -4.3716      2.00000
     12      -4.3277      2.00000
     13      -4.3277      2.00000
     14      -4.3277      2.00000
     15      -4.0125      2.00000
     16      -3.0523      2.00000
     17      -3.0523      2.00000
     18      -3.0523      2.00000
     19      -3.0271      2.00000
     20      -3.0271      2.00000
     21      -2.9910      2.00000
     22      -2.9910      2.00000
     23      -2.9910      2.00000
     24      -2.8884      2.00000
     25      -2.8884      2.00000
     26      -2.8884      2.00000
     27      -2.3324      2.00000
     28      -1.1229      2.00000
     29      -1.1229      2.00000
     30      -1.1229      2.00000
     31      -1.0951      2.00000
     32      -1.0951      2.00000
     33      -1.0579      2.00000
     34      -1.0579      2.00000
     35      -1.0579      2.00000
     36      -0.9374      2.00000
     37      -0.9374      2.00000
     38      -0.9374      2.00000
     39      -0.5759      2.00000
     40       0.3430      2.00000
     41       0.3612      2.00000
     42       0.3612      2.00000
     43       0.3612      2.00000
     44       0.4111      2.00000
     45       0.4111      2.00000
     46       0.4111      2.00000
     47       0.4147      2.00000
     48       0.6863      2.00000
     49       0.6863      2.00000
     50       0.7659      2.00000
     51       0.7659      2.00000
     52       0.7659      2.00000
     53       1.1010      2.00000
     54       1.2364      2.00000
     55       1.2364      2.00000
     56       1.2364      2.00000
     57       1.2386      2.00000
     58       1.2386      2.00000
     59       1.2386      2.00000
     60       1.2756      2.00000
     61       1.3455      2.00000
     62       1.3455      2.00000
     63       1.5661      2.00000
     64       1.5661      2.00000
     65       1.5661      2.00000
     66       3.2533      2.00000
     67       3.2533      2.00000
     68       3.2533      2.00000
     69       3.2810      2.00000
     70       3.2810      2.00000
     71       3.2810      2.00000
     72       3.2842      2.00000
     73       3.2842      2.00000
     74       3.2842      2.00000
     75       3.3264      2.00000
     76       3.3264      2.00000
     77       3.3264      2.00000
     78       3.5682      2.00000
     79       3.5682      2.00000
     80       3.5682      2.00000
     81       3.5768      2.00000
     82       3.6018      2.00000
     83       3.6018      2.00000
     84       3.6257      2.00000
     85       3.6257      2.00000
     86       3.6257      2.00000
     87       3.8563      2.00000
     88       3.8563      2.00000
     89       3.8563      2.00000
     90       4.6597      2.00000
     91       4.6597      2.00000
     92       4.6597      2.00000
     93       4.6619      2.00000
     94       4.6619      2.00000
     95       4.6700      2.00000
     96       4.6700      2.00000
     97       4.6700      2.00000
     98       4.7354      2.00000
     99       4.7354      2.00000
    100       4.7472      2.00000
    101       4.7472      2.00000
    102       4.7472      2.00000
    103       5.0860      2.00000
    104       5.0860      2.00000
    105       5.0860      2.00000
    106       5.8328      2.00000
    107       5.8328      2.00000
    108       5.8328      2.00000
    109       6.4269      0.00000
    110       6.4325      0.00000
    111       6.4325      0.00000
    112       6.4493      0.00000
    113       6.4493      0.00000
    114       6.4493      0.00000
    115       7.2315      0.00000
    116       7.2396      0.00000
    117       7.2396      0.00000
    118       7.2396      0.00000
    119       7.2503      0.00000
    120       7.2503      0.00000
    121       7.2503      0.00000
    122       7.3048      0.00000
    123       7.3048      0.00000
    124       7.3048      0.00000
    125       7.3213      0.00000
    126       7.3213      0.00000
    127       7.4256      0.00000
    128       7.4256      0.00000
    129       7.4256      0.00000
    130       7.4394      0.00000
    131       7.5168      0.00000
    132       7.5770      0.00000
    133       7.5770      0.00000
[...]
   32        0.752   0.901   0.000   1.653
   33        0.752   0.945   0.000   1.698
   34        0.752   0.946   0.000   1.698
   35        0.752   0.946   0.000   1.698
   36        0.752   0.946   0.000   1.698
   37        0.752   0.946   0.000   1.697
   38        0.751   0.901   0.000   1.652
   39        0.752   0.945   0.000   1.697
   40        0.751   0.901   0.000   1.652
   41        0.751   0.901   0.000   1.652
   42        0.752   0.945   0.000   1.697
   43        0.752   0.946   0.000   1.698
   44        0.753   0.946   0.000   1.699
   45        0.752   0.946   0.000   1.699
   46        0.752   0.946   0.000   1.698
   47        0.752   0.946   0.000   1.698
   48        0.752   0.946   0.000   1.698
   49        0.752   0.946   0.000   1.698
   50        0.753   0.947   0.000   1.700
   51        0.753   0.947   0.000   1.700
   52        0.752   0.946   0.000   1.698
   53        0.752   0.947   0.000   1.700
   54        0.752   0.946   0.000   1.698
--------------------------------------------------
tot         40.502  50.839   0.000  91.341
 
    CHARGE:  cpu time    0.1597: real time    0.1607
    FORLOC:  cpu time    0.0336: real time    0.0341
    FORNL :  cpu time    1.5551: real time    1.5682
    STRESS:  cpu time    6.9523: real time    7.0324
    FORCOR:  cpu time    0.1618: real time    0.1890
    FORHAR:  cpu time    0.0705: real time    0.0709
    MIXING:  cpu time    0.1465: real time    0.1473
    OFIELD:  cpu time    0.0001: real time    0.0003

  FORCE on cell =-STRESS in cart. coord.  units (eV):
  Direction    XX          YY          ZZ          XY          YZ          ZX
  --------------------------------------------------------------------------------------
  Alpha Z    93.27357    93.27357    93.27357
  Ewald   -2038.52485 -2038.52486 -2038.52486    -0.00000     0.00000     0.00000
  Hartree   135.44245   135.44245   135.44245    -0.00000    -0.00000    -0.00000
  E(xc)    -683.10047  -683.10046  -683.10048    -0.00001    -0.00001    -0.00001
  Local    -783.49995  -783.50005  -783.49956     0.00014     0.00024     0.00034
  n-local  2050.77619  2067.28439  2081.73667    -2.30364    -0.95715     0.67683
  augment  -309.25465  -309.25456  -309.25500    -0.00012    -0.00021    -0.00030
  Kinetic  1510.02154  1536.09684  1559.07562    -1.62755    -1.35644     0.95914
  Fock        0.00000     0.00000     0.00000     0.00000     0.00000     0.00000
  -------------------------------------------------------------------------------------
  Total      15.99985    15.99985    15.99985     0.00000    -0.00000    -0.00000
  in kB      23.71392    23.71392    23.71392     0.00000    -0.00000    -0.00000
  external pressure =       23.71 kB  Pullay stress =        0.00 kB


 VOLUME and BASIS-vectors are now :
 -----------------------------------------------------------------------------
  energy-cutoff  :      550.00
  volume of cell :     1080.99
      direct lattice vectors                 reciprocal lattice vectors
     9.976465530  0.000000000  5.759915070     0.100235900 -0.035438742  0.000000000
     3.325488510  9.405901920  5.759915070     0.000000000  0.106316227  0.000000000
     0.000000000  0.000000000 11.519830140    -0.050117950 -0.035438742  0.086806836

  length of vectors
    11.519830124 11.519830136 11.519830140     0.106316227  0.106316227  0.106316227


 FORCES acting on ions
    electron-ion (+dipol)            ewald-force                    non-local-force                 convergence-correction
 -----------------------------------------------------------------------------------------------
   -.694E-06 -.437E-06 -.113E-05   0.893E-07 -.474E-07 0.775E-11   -.186E-16 -.104E-16 0.000E+00   0.335E-08 0.237E-08 0.579E-08
   0.565E+00 0.399E+00 0.261E+01   0.119E-06 -.632E-07 -.298E+01   -.381E+00 -.269E+00 0.301E+00   -.111E-03 -.784E-04 0.172E-04
   0.565E+00 0.399E+00 -.261E+01   0.119E-06 -.632E-07 0.298E+01   -.381E+00 -.269E+00 -.301E+00   -.111E-03 -.784E-04 -.172E-04
   0.103E+01 0.173E+01 0.179E+01   -.861E+00 -.244E+01 -.149E+01   -.104E+00 0.515E+00 -.179E+00   -.505E-04 0.924E-04 -.874E-04
   0.117E+00 -.415E-01 0.182E-05   0.715E-01 -.253E-01 0.374E-12   -.131E+00 0.463E-01 0.104E-16   -.442E-04 0.156E-04 -.198E-08
   0.103E+01 0.173E+01 -.179E+01   -.861E+00 -.244E+01 0.149E+01   -.104E+00 0.515E+00 0.179E+00   -.505E-04 0.924E-04 0.874E-04
   -.470E+00 -.253E+01 -.814E+00   0.861E+00 0.244E+01 0.149E+01   -.277E+00 0.237E-01 -.480E+00   -.604E-04 0.643E-04 -.105E-03
   -.470E+00 -.253E+01 0.814E+00   0.861E+00 0.244E+01 -.149E+01   -.277E+00 0.237E-01 0.480E+00   -.604E-04 0.643E-04 0.105E-03
   0.268E+00 -.948E-01 0.412E-06   -.715E-01 0.253E-01 -.476E-11   -.123E+00 0.436E-01 -.520E-17   -.587E-04 0.207E-04 -.558E-08
   0.198E+01 0.399E+00 0.179E+01   -.258E+01 -.634E-07 -.149E+01   0.451E+00 -.269E+00 -.179E+00   0.703E-04 -.784E-04 -.874E-04
   0.980E-06 0.125E+00 0.182E-05   0.124E-06 0.758E-01 0.359E-12   0.260E-17 -.139E+00 0.104E-16   -.115E-08 -.468E-04 -.198E-08
   0.198E+01 0.399E+00 -.179E+01   -.258E+01 -.634E-07 0.149E+01   0.451E+00 -.269E+00 0.179E+00   0.703E-04 -.784E-04 0.874E-04
   -.587E-01 -.415E-01 0.102E+00   -.357E-01 -.253E-01 0.619E-01   0.655E-01 0.463E-01 -.113E+00   0.221E-04 0.156E-04 -.382E-04
   -.587E-01 -.415E-01 -.102E+00   -.357E-01 -.253E-01 -.619E-01   0.655E-01 0.463E-01 0.113E+00   0.221E-04 0.156E-04 0.383E-04
   0.811E+00 0.573E+00 0.276E-06   -.868E+00 -.614E+00 0.327E-12   0.471E-01 0.333E-01 0.347E-17   -.443E-04 -.313E-04 -.569E-08
   0.940E+00 -.253E+01 -.149E-05   -.172E+01 0.244E+01 0.451E-11   0.554E+00 0.237E-01 -.347E-17   0.121E-03 0.643E-04 0.787E-08
   0.406E+00 -.573E+00 0.702E+00   -.434E+00 0.614E+00 -.752E+00   0.235E-01 -.333E-01 0.408E-01   -.221E-04 0.313E-04 -.384E-04
   0.406E+00 -.573E+00 -.702E+00   -.434E+00 0.614E+00 0.752E+00   0.235E-01 -.333E-01 -.408E-01   -.221E-04 0.313E-04 0.383E-04
   -.254E+01 0.399E+00 -.814E+00   0.258E+01 -.630E-07 0.149E+01   -.701E-01 -.269E+00 -.480E+00   0.405E-04 -.784E-04 -.105E-03
   -.254E+01 0.399E+00 0.814E+00   0.258E+01 -.630E-07 -.149E+01   -.701E-01 -.269E+00 0.480E+00   0.405E-04 -.784E-04 0.105E-03
   0.173E-06 0.285E+00 0.412E-06   0.115E-06 -.758E-01 -.478E-11   0.694E-17 -.131E+00 0.520E-17   -.321E-08 -.622E-04 -.558E-08
   -.207E+01 0.173E+01 -.149E-05   0.172E+01 -.244E+01 0.451E-11   0.207E+00 0.515E+00 -.208E-16   0.101E-03 0.924E-04 0.787E-08
   -.406E+00 0.573E+00 0.702E+00   0.434E+00 -.614E+00 -.752E+00   -.235E-01 0.333E-01 0.408E-01   0.221E-04 -.313E-04 -.384E-04
   -.406E+00 0.573E+00 -.702E+00   0.434E+00 -.614E+00 0.752E+00   -.235E-01 0.333E-01 -.408E-01   0.221E-04 -.313E-04 0.383E-04
   -.134E+00 -.948E-01 0.232E+00   0.357E-01 0.253E-01 -.619E-01   0.616E-01 0.436E-01 -.107E+00   0.293E-04 0.207E-04 -.508E-04
   -.811E+00 -.573E+00 0.118E-05   0.868E+00 0.614E+00 -.107E-10   -.471E-01 -.333E-01 -.330E-16   0.443E-04 0.313E-04 -.169E-08
   -.134E+00 -.948E-01 -.232E+00   0.357E-01 0.253E-01 0.619E-01   0.616E-01 0.436E-01 0.107E+00   0.293E-04 0.207E-04 0.508E-04
   0.589E-06 0.328E-06 0.896E-06   -.122E-06 0.650E-07 0.105E-10   -.954E-17 -.347E-17 -.520E-16   -.118E-08 -.839E-09 -.205E-08
   -.127E+01 -.900E+00 -.878E+00   0.142E+01 0.101E+01 0.718E+00   -.112E+00 -.789E-01 0.103E+00   -.136E-04 -.963E-05 -.347E-04
   -.127E+01 -.900E+00 0.878E+00   0.142E+01 0.101E+01 -.718E+00   -.112E+00 -.789E-01 -.103E+00   -.136E-04 -.962E-05 0.347E-04
   -.890E+00 0.183E+00 -.154E+01   0.919E+00 -.420E+00 0.159E+01   -.259E-01 0.163E+00 -.449E-01   -.168E-04 -.187E-04 -.291E-04
   -.859E+01 0.304E+01 -.188E-05   0.932E+01 -.329E+01 0.460E-11   0.143E+01 -.506E+00 -.503E-16   -.238E-03 0.843E-04 0.779E-08
   -.890E+00 0.183E+00 0.154E+01   0.919E+00 -.420E+00 -.159E+01   -.259E-01 0.163E+00 0.449E-01   -.168E-04 -.187E-04 0.291E-04
   -.383E+00 0.162E+01 -.663E+00   0.504E+00 -.159E+01 0.873E+00   -.857E-01 -.562E-02 -.148E+00   0.320E-05 0.379E-04 0.555E-05
   -.383E+00 0.162E+01 0.663E+00   0.504E+00 -.159E+01 -.873E+00   -.857E-01 -.562E-02 0.148E+00   0.320E-05 0.379E-04 -.554E-05
   -.326E+00 0.115E+00 -.766E-07   0.334E+00 -.118E+00 -.471E-11   -.128E-01 0.452E-02 0.104E-16   0.102E-04 -.361E-05 -.546E-08
   -.124E+00 -.900E+00 -.154E+01   -.899E-01 0.101E+01 0.159E+01   0.145E+00 -.789E-01 -.449E-01   -.232E-04 -.963E-05 -.291E-04
   -.102E-05 -.911E+01 -.188E-05   -.119E-06 0.988E+01 0.458E-11   -.486E-16 0.152E+01 -.130E-16   0.450E-08 -.253E-03 0.779E-08
   -.124E+00 -.900E+00 0.154E+01   -.899E-01 0.101E+01 -.159E+01   0.145E+00 -.789E-01 0.449E-01   -.232E-04 -.963E-05 0.291E-04
   0.430E+01 0.304E+01 -.744E+01   -.466E+01 -.329E+01 0.807E+01   -.716E+00 -.506E+00 0.124E+01   0.119E-03 0.843E-04 -.207E-03
   0.430E+01 0.304E+01 0.744E+01   -.466E+01 -.329E+01 -.807E+01   -.716E+00 -.506E+00 -.124E+01   0.119E-03 0.843E-04 0.207E-03
   -.248E+00 -.175E+00 -.168E-06   -.215E+00 -.152E+00 -.974E-11   0.304E+00 0.215E+00 0.304E-17   0.147E-04 0.104E-04 -.557E-08
   0.766E+00 0.162E+01 0.155E-05   -.101E+01 -.159E+01 -.556E-12   0.171E+00 -.562E-02 -.139E-16   -.640E-05 0.379E-04 -.207E-08
   -.124E+00 0.175E+00 -.214E+00   -.108E+00 0.152E+00 -.186E+00   0.152E+00 -.215E+00 0.264E+00   0.735E-05 -.104E-04 0.127E-04
   -.124E+00 0.175E+00 0.214E+00   -.108E+00 0.152E+00 0.186E+00   0.152E+00 -.215E+00 -.264E+00   0.736E-05 -.104E-04 -.127E-04
   0.140E+01 -.900E+00 -.663E+00   -.133E+01 0.101E+01 0.873E+00   -.338E-01 -.789E-01 -.148E+00   0.368E-04 -.962E-05 0.555E-05
   0.140E+01 -.900E+00 0.663E+00   -.133E+01 0.101E+01 -.873E+00   -.338E-01 -.789E-01 0.148E+00   0.368E-04 -.963E-05 -.554E-05
   0.232E-07 -.346E+00 -.766E-07   -.116E-06 0.354E+00 -.472E-11   -.520E-17 -.135E-01 -.347E-17   -.316E-08 0.108E-04 -.546E-08
   0.178E+01 0.183E+00 0.155E-05   -.184E+01 -.420E+00 -.552E-12   0.518E-01 0.163E+00 -.208E-16   0.336E-04 -.187E-04 -.207E-08
   0.124E+00 -.175E+00 -.214E+00   0.108E+00 -.152E+00 -.186E+00   -.152E+00 0.215E+00 0.264E+00   -.736E-05 0.104E-04 0.127E-04
   0.124E+00 -.175E+00 0.214E+00   0.108E+00 -.152E+00 0.186E+00   -.152E+00 0.215E+00 -.264E+00   -.735E-05 0.104E-04 -.127E-04
   0.163E+00 0.115E+00 -.283E+00   -.167E+00 -.118E+00 0.289E+00   0.639E-02 0.452E-02 -.111E-01   -.511E-05 -.361E-05 0.884E-05
   0.248E+00 0.175E+00 -.189E-05   0.215E+00 0.152E+00 -.542E-12   -.304E+00 -.215E+00 0.104E-16   -.147E-04 -.104E-04 0.745E-08
   0.163E+00 0.115E+00 0.283E+00   -.167E+00 -.118E+00 -.289E+00   0.639E-02 0.452E-02 0.111E-01   -.511E-05 -.361E-05 -.885E-05
 -----------------------------------------------------------------------------------------------
   -.410E-07 -.627E-07 -.102E-06   0.360E-13 -.200E-13 -.169E-13   -.818E-15 -.184E-15 -.146E-14   -.112E-08 -.789E-09 -.194E-08
 
 
 POSITION                                       TOTAL-FORCE (eV/Angst)
 -----------------------------------------------------------------------------------
      3.87974      2.74339      6.71990         0.000000      0.000000     -0.000000
      3.87974      2.74339     10.55984         0.183856      0.130006     -0.076053
      3.87974      2.74339     14.39979         0.183856      0.130006      0.076053
      4.98823      5.87869      8.63987         0.069974     -0.192103      0.121198
      4.98823      5.87869     12.47982         0.057904     -0.020472     -0.000000
      4.98823      5.87869     16.31976         0.069974     -0.192103     -0.121198
      6.09673      9.01399     10.55984         0.113883     -0.067909      0.197251
      6.09673      9.01399     14.39979         0.113883     -0.067909     -0.197251
      6.09673      9.01399     18.23973         0.073509     -0.025990     -0.000000
      7.20523      2.74339      8.63987        -0.157792      0.130006      0.121198
      7.20523      2.74339     12.47982         0.000000      0.061416     -0.000000
      7.20523      2.74339     16.31976        -0.157792      0.130006     -0.121198
      8.31372      5.87869     10.55984        -0.028952     -0.020472      0.050146
      8.31372      5.87869     14.39979        -0.028952     -0.020472     -0.050146
      8.31372      5.87869     18.23973        -0.010053     -0.007109     -0.000000
      9.42222      9.01399     12.47982        -0.227766     -0.067909     -0.000000
      9.42222      9.01399     16.31976        -0.005027      0.007109     -0.008706
      9.42222      9.01399     20.15970        -0.005027      0.007109      0.008706
     10.53071      2.74339     10.55984        -0.026064      0.130006      0.197251
     10.53071      2.74339     14.39979        -0.026064      0.130006     -0.197251
     10.53071      2.74339     18.23973        -0.000000      0.077969     -0.000000
     11.63921      5.87869     12.47982        -0.139947     -0.192103     -0.000000
     11.63921      5.87869     16.31976         0.005027     -0.007109     -0.008706
     11.63921      5.87869     20.15970         0.005027     -0.007109      0.008706
     12.74771      9.01399     14.39979        -0.036755     -0.025990      0.063661
     12.74771      9.01399     18.23973         0.010053      0.007109     -0.000000
     12.74771      9.01399     22.07967        -0.036755     -0.025990     -0.063661
      0.55425      0.39191      0.95999         0.000000      0.000000     -0.000000
      0.55425      0.39191      4.79993         0.038520      0.027237     -0.056562
      0.55425      0.39191      8.63987         0.038520      0.027237      0.056562
      1.66274      3.52721      2.87996         0.002932     -0.073420      0.005078
      1.66274      3.52721      6.71990         2.156867     -0.762568     -0.000000
      1.66274      3.52721     10.55984         0.002932     -0.073420     -0.005078
      2.77124      6.66251      4.79993         0.035588      0.018946      0.061640
      2.77124      6.66251      8.63987         0.035588      0.018946     -0.061640
      2.77124      6.66251     12.47982        -0.005241      0.001853     -0.000000
      3.87974      0.39191      2.87996        -0.068244      0.027237      0.005078
      3.87974      0.39191      6.71990        -0.000000      2.287703     -0.000000
      3.87974      0.39191     10.55984        -0.068244      0.027237     -0.005078
      4.98823      3.52721      4.79993        -1.078433     -0.762568      1.867901
      4.98823      3.52721      8.63987        -1.078433     -0.762568     -1.867901
      4.98823      3.52721     12.47982        -0.158275     -0.111917     -0.000000
      6.09673      6.66251      6.71990        -0.071176      0.018946     -0.000000
      6.09673      6.66251     10.55984        -0.079137      0.111917     -0.137070
      6.09673      6.66251     14.39979        -0.079137      0.111917      0.137070
      7.20523      0.39191      4.79993         0.029725      0.027237      0.061640
      7.20523      0.39191      8.63987         0.029725      0.027237     -0.061640
      7.20523      0.39191     12.47982         0.000000     -0.005559     -0.000000
      8.31372      3.52721      6.71990        -0.005863     -0.073420     -0.000000
      8.31372      3.52721     10.55984         0.079137     -0.111917     -0.137070
      8.31372      3.52721     14.39979         0.079137     -0.111917      0.137070
      9.42222      6.66251      8.63987         0.002621      0.001853     -0.004539
      9.42222      6.66251     12.47982         0.158275      0.111917     -0.000000
      9.42222      6.66251     16.31976         0.002621      0.001853      0.004539
 -----------------------------------------------------------------------------------
    total drift:                               -0.000000     -0.000000     -0.000000


--------------------------------------------------------------------------------------------------------



  FREE ENERGIE OF THE ION-ELECTRON SYSTEM (eV)
  ---------------------------------------------------
  free  energy   TOTEN  =      -286.33694747 eV

  energy  without entropy=     -286.33694747  energy(sigma->0) =     -286.33694747
 


--------------------------------------------------------------------------------------------------------


    POTLOK:  cpu time    0.5415: real time    0.5474


--------------------------------------------------------------------------------------------------------


 writing wavefunctions
     LOOP+:  cpu time  117.5121: real time  118.8512
    4ORBIT:  cpu time    0.0000: real time    0.0000
 


 total charge     
 
# of ion       s       p       d       tot
------------------------------------------
    1        0.643   0.881   0.000   1.524
    2        0.752   0.944   0.000   1.696
    3        0.752   0.944   0.000   1.696
    4        0.752   0.946   0.000   1.698
    5        0.752   0.946   0.000   1.697
    6        0.752   0.945   0.000   1.698
    7        0.752   0.946   0.000   1.698
    8        0.752   0.946   0.000   1.698
    9        0.752   0.946   0.000   1.698
   10        0.753   0.946   0.000   1.699
   11        0.752   0.946   0.000   1.698
   12        0.753   0.946   0.000   1.699
   13        0.752   0.946   0.000   1.698
   14        0.752   0.946   0.000   1.698
   15        0.752   0.946   0.000   1.698
   16        0.752   0.946   0.000   1.698
   17        0.752   0.946   0.000   1.698
   18        0.752   0.946   0.000   1.698
   19        0.752   0.947   0.000   1.699
   20        0.752   0.947   0.000   1.699
   21        0.752   0.947   0.000   1.699
   22        0.752   0.946   0.000   1.698
   23        0.752   0.946   0.000   1.698
   24        0.752   0.946   0.000   1.698
   25        0.752   0.947   0.000   1.699
   26        0.752   0.946   0.000   1.698
   27        0.752   0.947   0.000   1.699
   28        0.752   0.946   0.000   1.698
   29        0.752   0.946   0.000   1.698
   30        0.752   0.946   0.000   1.698
   31        0.752   0.945   0.000   1.697
   32        0.752   0.901   0.000   1.653
   33        0.752   0.945   0.000   1.698
   34        0.752   0.946   0.000   1.698
   35        0.752   0.946   0.000   1.698
   36        0.752   0.946   0.000   1.698
   37        0.752   0.946   0.000   1.697
   38        0.751   0.901   0.000   1.652
   39        0.752   0.945   0.000   1.697
   40        0.751   0.901   0.000   1.652
   41        0.751   0.901   0.000   1.652
   42        0.752   0.945   0.000   1.697
   43        0.752   0.946   0.000   1.698
   44        0.753   0.946   0.000   1.699
   45        0.752   0.946   0.000   1.699
   46        0.752   0.946   0.000   1.698
   47        0.752   0.946   0.000   1.698
   48        0.752   0.946   0.000   1.698
   49        0.752   0.946   0.000   1.698
   50        0.753   0.947   0.000   1.700
   51        0.753   0.947   0.000   1.700
   52        0.752   0.946   0.000   1.698
   53        0.752   0.947   0.000   1.700
   54        0.752   0.946   0.000   1.698
--------------------------------------------------
tot         40.502  50.839   0.000  91.341
 

 total amount of memory used by VASP MPI-rank0   140598. kBytes
=======================================================================

   base      :      30000. kBytes
   nonl-proj :      59902. kBytes
   fftplans  :       5382. kBytes
   grid      :      20451. kBytes
   one-center:        165. kBytes
   wavefun   :      24698. kBytes
 
  
  
 General timing and accounting informations for this job:
 ========================================================
  
                  Total CPU time used (sec):      133.807
                            User time (sec):      127.503
                          System time (sec):        6.304
                         Elapsed time (sec):      138.853
  
                   Maximum memory used (kb):      390336.
                   Average memory used (kb):           0.
  
                          Minor page faults:        57101
                          Major page faults:            0
                 Voluntary context switches:         5407
