<?xml version="1.0" encoding="ISO-8859-1"?>
<modeling>
 <generator>
  <i name="program" type="string">vasp </i>
  <i name="version" type="string">5.4.4.18Apr17-6-g9f103f2a35  </i>
  <i name="subversion" type="string">(build Jun 19 2019 10:34:07) complex            parallel </i>
  <i name="platform" type="string">LB-5.4 </i>
  <i name="date" type="string">2023 05 15 </i>
  <i name="time" type="string">18:33:03 </i>
 </generator>
 <incar>
  <i type="string" name="SYSTEM"> Si</i>
  <i type="string" name="PREC">normal</i>
  <i type="string" name="ALGO"> Normal</i>
  <i type="int" name="ISPIN">     1</i>
  <i name="AMIX">      0.20000000</i>
  <i type="int" name="NELM">   200</i>
  <i type="int" name="IBRION">     2</i>
  <i name="EDIFF">      0.00000100</i>
  <i name="EDIFFG">     -0.05000000</i>
  <i type="int" name="NSW">     0</i>
  <i type="int" name="ISIF">     2</i>
  <i type="int" name="ISYM">     2</i>
  <i name="ENCUT">    550.00000000</i>
  <i name="NELECT">    216.00000000</i>
  <i type="logical" name="LREAL"> F  </i>
  <i type="int" name="ISMEAR">     0</i>
  <i name="SIGMA">      0.05000000</i>
  <i type="logical" name="LWAVE"> T  </i>
  <i type="logical" name="LCHARG"> T  </i>
  <i type="int" name="LORBIT">    10</i>
  <v type="int" name="KPOINT_BSE">    -1     0     0     0</v>
  <i type="int" name="NELM">   200</i>
 </incar>
 <structure name="primitive_cell" >
  <crystal>
   <varray name="basis" >
    <v>       9.97646553       0.00000000       5.75991507 </v>
    <v>       3.32548851       9.40590192       5.75991507 </v>
    <v>       0.00000000       0.00000000      11.51983014 </v>
   </varray>
   <i name="volume">   1080.99386112 </i>
   <varray name="rec_basis" >
    <v>       0.10023590      -0.03543874       0.00000000 </v>
    <v>       0.00000000       0.10631623       0.00000000 </v>
    <v>      -0.05011795      -0.03543874       0.08680684 </v>
   </varray>
  </crystal>
  <varray name="positions" >
   <v>       0.29166667       0.29166667       0.29166667 </v>
   <v>       0.04166667       0.37500000       0.37500000 </v>
   <v>       0.37500000       0.37500000       0.04166667 </v>
   <v>       0.37500000       0.37500000       0.37500000 </v>
   <v>       0.37500000       0.04166667       0.37500000 </v>
   <v>      -0.04166667       0.29166667       0.29166667 </v>
   <v>      -0.37500000       0.29166667      -0.04166667 </v>
   <v>      -0.04166667       0.29166667      -0.37500000 </v>
   <v>      -0.37500000       0.29166667       0.29166667 </v>
   <v>      -0.37500000      -0.04166667       0.29166667 </v>
   <v>      -0.04166667      -0.37500000       0.29166667 </v>
   <v>       0.29166667      -0.04166667       0.29166667 </v>
   <v>       0.29166667      -0.37500000      -0.04166667 </v>
   <v>       0.29166667      -0.04166667      -0.37500000 </v>
   <v>       0.29166667      -0.37500000       0.29166667 </v>
   <v>       0.29166667       0.29166667      -0.04166667 </v>
   <v>       0.29166667       0.29166667      -0.37500000 </v>
   <v>      -0.29166667       0.37500000       0.04166667 </v>
   <v>       0.04166667       0.04166667       0.37500000 </v>
   <v>      -0.29166667       0.04166667       0.04166667 </v>
   <v>       0.04166667       0.04166667      -0.29166667 </v>
   <v>      -0.29166667       0.04166667       0.37500000 </v>
   <v>       0.37500000      -0.29166667       0.04166667 </v>
   <v>       0.04166667       0.37500000       0.04166667 </v>
   <v>       0.04166667       0.37500000      -0.29166667 </v>
   <v>       0.04166667      -0.29166667       0.04166667 </v>
   <v>       0.04166667      -0.29166667       0.37500000 </v>
   <v>       0.37500000       0.04166667       0.04166667 </v>
   <v>       0.37500000       0.04166667      -0.29166667 </v>
   <v>      -0.04166667      -0.04166667      -0.37500000 </v>
   <v>      -0.37500000      -0.37500000      -0.04166667 </v>
   <v>      -0.37500000      -0.04166667      -0.04166667 </v>
   <v>      -0.04166667      -0.37500000      -0.04166667 </v>
   <v>      -0.37500000      -0.04166667      -0.37500000 </v>
   <v>      -0.04166667      -0.37500000      -0.37500000 </v>
   <v>      -0.29166667       0.37500000       0.37500000 </v>
   <v>      -0.29166667       0.37500000      -0.29166667 </v>
   <v>      -0.29166667      -0.29166667       0.37500000 </v>
   <v>       0.37500000      -0.29166667      -0.29166667 </v>
   <v>       0.37500000      -0.29166667       0.37500000 </v>
   <v>       0.37500000       0.37500000      -0.29166667 </v>
   <v>      -0.37500000       0.29166667      -0.37500000 </v>
   <v>      -0.04166667       0.29166667      -0.04166667 </v>
   <v>      -0.37500000      -0.37500000       0.29166667 </v>
   <v>      -0.04166667      -0.04166667      -0.04166667 </v>
   <v>      -0.37500000      -0.37500000      -0.37500000 </v>
   <v>      -0.04166667      -0.04166667       0.29166667 </v>
   <v>       0.29166667      -0.37500000      -0.37500000 </v>
   <v>       0.29166667      -0.04166667      -0.04166667 </v>
   <v>      -0.29166667       0.04166667      -0.29166667 </v>
   <v>       0.04166667       0.04166667       0.04166667 </v>
   <v>      -0.29166667      -0.29166667      -0.29166667 </v>
   <v>      -0.29166667      -0.29166667       0.04166667 </v>
   <v>       0.04166667      -0.29166667      -0.29166667 </v>
  </varray>
 </structure>
 <varray name="primitive_index" >
  <v type="int" >        1 </v>
  <v type="int" >       32 </v>
  <v type="int" >       40 </v>
  <v type="int" >       41 </v>
  <v type="int" >       38 </v>
  <v type="int" >       19 </v>
  <v type="int" >       12 </v>
  <v type="int" >       20 </v>
  <v type="int" >       10 </v>
  <v type="int" >       16 </v>
  <v type="int" >       22 </v>
  <v type="int" >        7 </v>
  <v type="int" >        6 </v>
  <v type="int" >        8 </v>
  <v type="int" >        4 </v>
  <v type="int" >        3 </v>
  <v type="int" >        2 </v>
  <v type="int" >       49 </v>
  <v type="int" >       29 </v>
  <v type="int" >       46 </v>
  <v type="int" >       30 </v>
  <v type="int" >       47 </v>
  <v type="int" >       43 </v>
  <v type="int" >       31 </v>
  <v type="int" >       33 </v>
  <v type="int" >       34 </v>
  <v type="int" >       35 </v>
  <v type="int" >       37 </v>
  <v type="int" >       39 </v>
  <v type="int" >       26 </v>
  <v type="int" >       15 </v>
  <v type="int" >       18 </v>
  <v type="int" >       24 </v>
  <v type="int" >       17 </v>
  <v type="int" >       23 </v>
  <v type="int" >       50 </v>
  <v type="int" >       51 </v>
  <v type="int" >       53 </v>
  <v type="int" >       45 </v>
  <v type="int" >       44 </v>
  <v type="int" >       42 </v>
  <v type="int" >       11 </v>
  <v type="int" >       21 </v>
  <v type="int" >       13 </v>
  <v type="int" >       27 </v>
  <v type="int" >       14 </v>
  <v type="int" >       25 </v>
  <v type="int" >        5 </v>
  <v type="int" >        9 </v>
  <v type="int" >       48 </v>
  <v type="int" >       28 </v>
  <v type="int" >       54 </v>
  <v type="int" >       52 </v>
  <v type="int" >       36 </v>
 </varray>
 <kpoints>
  <generation param="Gamma">
   <v type="int" name="divisions">       4        4        4 </v>
   <v name="usershift">      0.00000000       0.00000000       0.00000000 </v>
   <v name="genvec1">      0.25000000       0.00000000       0.00000000 </v>
   <v name="genvec2">      0.00000000       0.25000000       0.00000000 </v>
   <v name="genvec3">     -0.00000000      -0.00000000       0.25000000 </v>
   <v name="shift">      0.00000000       0.00000000       0.00000000 </v>
  </generation>
  <varray name="kpointlist" >
   <v>       0.00000000       0.00000000       0.00000000 </v>
   <v>       0.25000000       0.00000000       0.00000000 </v>
   <v>       0.50000000       0.00000000       0.00000000 </v>
   <v>       0.25000000       0.25000000       0.00000000 </v>
   <v>       0.50000000       0.25000000       0.00000000 </v>
   <v>      -0.25000000       0.25000000       0.00000000 </v>
   <v>       0.50000000       0.50000000       0.00000000 </v>
   <v>      -0.25000000       0.50000000       0.25000000 </v>
  </varray>
  <varray name="weights" >
   <v>       0.01562500 </v>
   <v>       0.12500000 </v>
   <v>       0.06250000 </v>
   <v>       0.09375000 </v>
   <v>       0.37500000 </v>
   <v>       0.18750000 </v>
   <v>       0.04687500 </v>
   <v>       0.09375000 </v>
  </varray>
 </kpoints>
 <parameters>
  <separator name="general" >
   <i type="string" name="SYSTEM">Si</i>
   <i type="logical" name="LCOMPAT"> F  </i>
  </separator>
  <separator name="electronic" >
   <i type="string" name="PREC">normal</i>
   <i name="ENMAX">    550.00000000</i>
   <i name="ENAUG">    535.51400000</i>
   <i name="EDIFF">      0.00000100</i>
   <i type="int" name="IALGO">    38</i>
   <i type="int" name="IWAVPR">    10</i>
   <i type="int" name="NBANDS">   144</i>
   <i name="NELECT">    216.00000000</i>
   <i type="int" name="TURBO">     0</i>
   <i type="int" name="IRESTART">     0</i>
   <i type="int" name="NREBOOT">     0</i>
   <i type="int" name="NMIN">     0</i>
   <i name="EREF">      0.00000000</i>
   <separator name="electronic smearing" >
    <i type="int" name="ISMEAR">     0</i>
    <i name="SIGMA">      0.05000000</i>
    <i name="KSPACING">      0.50000000</i>
    <i type="logical" name="KGAMMA"> T  </i>
   </separator>
   <separator name="electronic projectors" >
    <i type="logical" name="LREAL"> F  </i>
    <v name="ROPT">      0.00000000      0.00000000</v>
    <i type="int" name="LMAXPAW">  -100</i>
    <i type="int" name="LMAXMIX">     2</i>
    <i type="logical" name="NLSPLINE"> F  </i>
   </separator>
   <separator name="electronic startup" >
    <i type="int" name="ISTART">     0</i>
    <i type="int" name="ICHARG">     2</i>
    <i type="int" name="INIWAV">     1</i>
   </separator>
   <separator name="electronic spin" >
    <i type="int" name="ISPIN">     1</i>
    <i type="logical" name="LNONCOLLINEAR"> F  </i>
    <v name="MAGMOM">      1.00000000      1.00000000      1.00000000      1.00000000      1.00000000      1.00000000      1.00000000      1.00000000      1.00000000      1.00000000      1.00000000      1.00000000      1.00000000      1.00000000      1.00000000      1.00000000      1.00000000      1.00000000      1.00000000      1.00000000
      1.00000000      1.00000000      1.00000000      1.00000000      1.00000000      1.00000000      1.00000000      1.00000000      1.00000000      1.00000000      1.00000000      1.00000000      1.00000000      1.00000000      1.00000000      1.00000000      1.00000000      1.00000000      1.00000000      1.00000000
      1.00000000      1.00000000      1.00000000      1.00000000      1.00000000      1.00000000      1.00000000      1.00000000      1.00000000      1.00000000      1.00000000      1.00000000      1.00000000      1.00000000</v>
    <i name="NUPDOWN">     -1.00000000</i>
    <i type="logical" name="LSORBIT"> F  </i>
    <v name="SAXIS">      0.00000000      0.00000000      1.00000000</v>
    <i type="logical" name="LSPIRAL"> F  </i>
    <v name="QSPIRAL">      0.00000000      0.00000000      0.00000000</v>
    <i type="logical" name="LZEROZ"> F  </i>
   </separator>
   <separator name="electronic exchange-correlation" >
    <i type="logical" name="LASPH"> F  </i>
    <i type="logical" name="LMETAGGA"> F  </i>
   </separator>
   <separator name="electronic convergence" >
    <i type="int" name="NELM">   200</i>
    <i type="int" name="NELMDL">    -5</i>
    <i type="int" name="NELMIN">     2</i>
    <i name="ENINI">    550.00000000</i>
    <separator name="electronic convergence detail" >
     <i type="logical" name="LDIAG"> T  </i>
     <i type="logical" name="LSUBROT"> F  </i>
     <i name="WEIMIN">      0.00000000</i>
     <i name="EBREAK">      0.00000000</i>
     <i name="DEPER">      0.30000000</i>
     <i type="int" name="NRMM">     4</i>
     <i name="TIME">      0.40000000</i>
    </separator>
   </separator>
   <separator name="electronic mixer" >
    <i name="AMIX">      0.20000000</i>
    <i name="BMIX">      1.00000000</i>
    <i name="AMIN">      0.10000000</i>
    <i name="AMIX_MAG">      0.80000000</i>
    <i name="BMIX_MAG">      1.00000000</i>
    <separator name="electronic mixer details" >
     <i type="int" name="IMIX">     4</i>
     <i type="logical" name="MIXFIRST"> F  </i>
     <i type="int" name="MAXMIX">   -45</i>
     <i name="WC">    100.00000000</i>
     <i type="int" name="INIMIX">     1</i>
     <i type="int" name="MIXPRE">     1</i>
     <i type="int" name="MREMOVE">     5</i>
    </separator>
   </separator>
   <separator name="electronic dipolcorrection" >
    <i type="logical" name="LDIPOL"> F  </i>
    <i type="logical" name="LMONO"> F  </i>
    <i type="int" name="IDIPOL">     0</i>
    <i name="EPSILON">      1.00000000</i>
    <v name="DIPOL">   -100.00000000   -100.00000000   -100.00000000</v>
    <i name="EFIELD">      0.00000000</i>
   </separator>
  </separator>
  <separator name="grids" >
   <i type="int" name="NGX">    70</i>
   <i type="int" name="NGY">    70</i>
   <i type="int" name="NGZ">    70</i>
   <i type="int" name="NGXF">   140</i>
   <i type="int" name="NGYF">   140</i>
   <i type="int" name="NGZF">   140</i>
   <i type="logical" name="ADDGRID"> F  </i>
  </separator>
  <separator name="ionic" >
   <i type="int" name="NSW">     0</i>
   <i type="int" name="IBRION">    -1</i>
   <i type="int" name="MDALGO">     0</i>
   <i type="int" name="ISIF">     2</i>
   <i name="PSTRESS">      0.00000000</i>
   <i name="EDIFFG">     -0.05000000</i>
   <i type="int" name="NFREE">     1</i>
   <i name="POTIM">      0.50000000</i>
   <i name="SMASS">     -3.00000000</i>
   <i name="SCALEE">      1.00000000</i>
  </separator>
  <separator name="ionic md" >
   <i name="TEBEG">      0.00010000</i>
   <i name="TEEND">      0.00010000</i>
   <i type="int" name="NBLOCK">     1</i>
   <i type="int" name="KBLOCK">     1</i>
   <i type="int" name="NPACO">   256</i>
   <i name="APACO">     16.00000000</i>
  </separator>
  <separator name="symmetry" >
   <i type="int" name="ISYM">     2</i>
   <i name="SYMPREC">      0.00001000</i>
  </separator>
  <separator name="dos" >
   <i type="int" name="LORBIT">    10</i>
   <v name="RWIGS">     -1.00000000     -1.00000000</v>
   <i type="int" name="NEDOS">   301</i>
   <i name="EMIN">     10.00000000</i>
   <i name="EMAX">    -10.00000000</i>
   <i name="EFERMI">      0.00000000</i>
  </separator>
  <separator name="writing" >
   <i type="int" name="NWRITE">     2</i>
   <i type="logical" name="LWAVE"> T  </i>
   <i type="logical" name="LDOWNSAMPLE"> F  </i>
   <i type="logical" name="LCHARG"> T  </i>
   <i type="logical" name="LPARD"> F  </i>
   <i type="logical" name="LVTOT"> F  </i>
   <i type="logical" name="LVHAR"> F  </i>
   <i type="logical" name="LELF"> F  </i>
   <i type="logical" name="LOPTICS"> F  </i>
   <v name="STM">      0.00000000      0.00000000      0.00000000      0.00000000      0.00000000      0.00000000      0.00000000</v>
  </separator>
  <separator name="performance" >
   <i type="int" name="NPAR">    24</i>
   <i type="int" name="NSIM">     4</i>
   <i type="int" name="NBLK">    -1</i>
   <i type="logical" name="LPLANE"> T  </i>
   <i type="logical" name="LSCALAPACK"> T  </i>
   <i type="logical" name="LSCAAWARE"> F  </i>
   <i type="logical" name="LSCALU"> F  </i>
   <i type="logical" name="LASYNC"> F  </i>
   <i type="logical" name="LORBITALREAL"> F  </i>
  </separator>
  <separator name="miscellaneous" >
   <i type="int" name="IDIOT">     3</i>
   <i type="int" name="ISPECIAL">     0</i>
   <i type="logical" name="LMUSIC"> F  </i>
   <v name="POMASS">     10.81100000     28.08500000</v>
   <v name="DARWINR">      0.00000000      0.00000000</v>
   <v name="DARWINV">      1.00000000      1.00000000</v>
   <i type="logical" name="LCORR"> T  </i>
  </separator>
  <i type="logical" name="GGA_COMPAT"> T  </i>
  <i type="logical" name="LBERRY"> F  </i>
  <i type="int" name="ICORELEVEL">     0</i>
  <i type="logical" name="LDAU"> F  </i>
  <i type="int" name="I_CONSTRAINED_M">     0</i>
  <separator name="electronic exchange-correlation" >
   <i type="string" name="GGA">--</i>
   <i type="int" name="VOSKOWN">     0</i>
   <i type="logical" name="LHFCALC"> F  </i>
   <i type="string" name="PRECFOCK"></i>
   <i type="logical" name="LSYMGRAD"> F  </i>
   <i type="logical" name="LHFONE"> F  </i>
   <i type="logical" name="LRHFCALC"> F  </i>
   <i type="logical" name="LTHOMAS"> F  </i>
   <i type="logical" name="LMODELHF"> F  </i>
   <i name="ENCUT4O">     -1.00000000</i>
   <i type="int" name="EXXOEP">     0</i>
   <i type="int" name="FOURORBIT">     0</i>
   <i name="AEXX">      0.00000000</i>
   <i name="HFALPHA">      0.00000000</i>
   <i name="MCALPHA">      0.00000000</i>
   <i name="ALDAX">      1.00000000</i>
   <i name="AGGAX">      1.00000000</i>
   <i name="ALDAC">      1.00000000</i>
   <i name="AGGAC">      1.00000000</i>
   <i type="int" name="NKREDX">     1</i>
   <i type="int" name="NKREDY">     1</i>
   <i type="int" name="NKREDZ">     1</i>
   <i type="logical" name="SHIFTRED"> F  </i>
   <i type="logical" name="ODDONLY"> F  </i>
   <i type="logical" name="EVENONLY"> F  </i>
   <i type="int" name="LMAXFOCK">     0</i>
   <i type="int" name="NMAXFOCKAE">     0</i>
   <i type="logical" name="LFOCKAEDFT"> F  </i>
   <i name="HFSCREEN">      0.00000000</i>
   <i name="HFSCREENC">      0.00000000</i>
   <i type="int" name="NBANDSGWLOW">     0</i>
  </separator>
  <separator name="vdW DFT" >
   <i type="logical" name="LUSE_VDW"> F  </i>
   <i name="Zab_VDW">     -0.84910000</i>
   <i name="PARAM1">      0.12340000</i>
   <i name="PARAM2">      1.00000000</i>
   <i name="PARAM3">      0.00000000</i>
  </separator>
  <separator name="model GW" >
   <i type="int" name="MODEL_GW">     0</i>
   <i name="MODEL_EPS0">     12.01104290</i>
   <i name="MODEL_ALPHA">      1.00000000</i>
  </separator>
  <separator name="linear response parameters" >
   <i type="logical" name="LEPSILON"> F  </i>
   <i type="logical" name="LRPA"> F  </i>
   <i type="logical" name="LNABLA"> F  </i>
   <i type="logical" name="LVEL"> F  </i>
   <i type="int" name="KINTER">     0</i>
   <i name="CSHIFT">      0.10000000</i>
   <i name="OMEGAMAX">     -1.00000000</i>
   <i name="DEG_THRESHOLD">      0.00200000</i>
   <i name="RTIME">     -0.10000000</i>
   <i name="WPLASMAI">      0.00000000</i>
   <v name="DFIELD">      0.00000000      0.00000000      0.00000000</v>
   <v name="WPLASMA">      0.00000000      0.00000000      0.00000000      0.00000000      0.00000000      0.00000000      0.00000000      0.00000000      0.00000000</v>
  </separator>
  <separator name="orbital magnetization" >
   <i type="logical" name="NUCIND"> F  </i>
   <v name="MAGPOS">      0.00000000      0.00000000      0.00000000</v>
   <i type="logical" name="LNICSALL"> T  </i>
   <i type="logical" name="ORBITALMAG"> F  </i>
   <i type="logical" name="LMAGBLOCH"> F  </i>
   <i type="logical" name="LCHIMAG"> F  </i>
   <i type="logical" name="LGAUGE"> T  </i>
   <i type="int" name="MAGATOM">     0</i>
   <v name="MAGDIPOL">      0.00000000      0.00000000      0.00000000</v>
   <v name="AVECCONST">      0.00000000      0.00000000      0.00000000</v>
  </separator>
  <separator name="response functions" >
   <i type="logical" name="LADDER"> F  </i>
   <i type="logical" name="LRPAFORCE"> F  </i>
   <i type="logical" name="LFXC"> F  </i>
   <i type="logical" name="LHARTREE"> T  </i>
   <i type="int" name="IBSE">     0</i>
   <v type="int" name="KPOINT">    -1     0     0     0</v>
   <i type="logical" name="LTCTE"> F  </i>
   <i type="logical" name="LTETE"> F  </i>
   <i type="logical" name="LTRIPLET"> F  </i>
   <i type="logical" name="LFXCEPS"> F  </i>
   <i type="logical" name="LFXHEG"> F  </i>
   <i type="int" name="NATURALO">     2</i>
   <i type="logical" name="L2ORDER"> F  </i>
   <i type="logical" name="LMP2LT"> F  </i>
   <i type="logical" name="LUSEW"> F  </i>
   <i name="ENCUTGW">     -2.00000000</i>
   <i name="ENCUTGWSOFT">     -2.00000000</i>
   <i name="ENCUTLF">     -1.00000000</i>
   <i type="int" name="LMAXMP2">    -1</i>
   <i name="SCISSOR">      0.00000000</i>
   <i type="int" name="NOMEGA">     0</i>
   <i type="int" name="NOMEGAR">     0</i>
   <i type="int" name="NBANDSGW">    -1</i>
   <i type="int" name="NBANDSO">    -1</i>
   <i type="int" name="NBANDSV">    -1</i>
   <i type="int" name="NELM">   200</i>
   <i type="int" name="NELMHF">     1</i>
   <i type="int" name="DIM">     3</i>
   <i type="int" name="ANTIRES">     0</i>
   <i name="OMEGAMAX">    -30.00000000</i>
   <i name="OMEGAMIN">    -30.00000000</i>
   <i name="OMEGATL">   -200.00000000</i>
   <i type="int" name="OMEGAGRID">   140</i>
   <i name="CSHIFT">     -0.10000000</i>
   <i type="logical" name="SELFENERGY"> F  </i>
   <i type="logical" name="LSPECTRAL"> F  </i>
   <i type="logical" name="LSPECTRALGW"> F  </i>
   <i type="logical" name="LSINGLES"> F  </i>
   <i type="logical" name="LFERMIGW"> F  </i>
   <i type="logical" name="ODDONLYGW"> F  </i>
   <i type="logical" name="EVENONLYGW"> F  </i>
   <i type="int" name="NKREDLFX">     1</i>
   <i type="int" name="NKREDLFY">     1</i>
   <i type="int" name="NKREDLFZ">     1</i>
   <i type="int" name="MAXMEM">  2800</i>
   <i type="int" name="TELESCOPE">     0</i>
   <i type="int" name="TAUPAR">     1</i>
   <i type="int" name="OMEGAPAR">    -1</i>
   <i name="LAMBDA">      1.00000000</i>
  </separator>
  <separator name="External order field" >
   <i name="OFIELD_KAPPA">      0.00000000</i>
   <v name="OFIELD_K">      0.00000000      0.00000000      0.00000000</v>
   <i name="OFIELD_Q6_NEAR">      0.00000000</i>
   <i name="OFIELD_Q6_FAR">      0.00000000</i>
   <i name="OFIELD_A">      0.00000000</i>
  </separator>
 </parameters>
 <atominfo>
  <atoms>      54 </atoms>
  <types>       2 </types>
  <array name="atoms" >
   <dimension dim="1">ion</dimension>
   <field type="string">element</field>
   <field type="int">atomtype</field>
   <set>
    <rc><c>B </c><c>   1</c></rc>
    <rc><c>Si</c><c>   2</c></rc>
    <rc><c>Si</c><c>   2</c></rc>
    <rc><c>Si</c><c>   2</c></rc>
    <rc><c>Si</c><c>   2</c></rc>
    <rc><c>Si</c><c>   2</c></rc>
    <rc><c>Si</c><c>   2</c></rc>
    <rc><c>Si</c><c>   2</c></rc>
    <rc><c>Si</c><c>   2</c></rc>
    <rc><c>Si</c><c>   2</c></rc>
    <rc><c>Si</c><c>   2</c></rc>
    <rc><c>Si</c><c>   2</c></rc>
    <rc><c>Si</c><c>   2</c></rc>
    <rc><c>Si</c><c>   2</c></rc>
    <rc><c>Si</c><c>   2</c></rc>
    <rc><c>Si</c><c>   2</c></rc>
    <rc><c>Si</c><c>   2</c></rc>
    <rc><c>Si</c><c>   2</c></rc>
    <rc><c>Si</c><c>   2</c></rc>
    <rc><c>Si</c><c>   2</c></rc>
    <rc><c>Si</c><c>   2</c></rc>
    <rc><c>Si</c><c>   2</c></rc>
    <rc><c>Si</c><c>   2</c></rc>
    <rc><c>Si</c><c>   2</c></rc>
    <rc><c>Si</c><c>   2</c></rc>
    <rc><c>Si</c><c>   2</c></rc>
    <rc><c>Si</c><c>   2</c></rc>
    <rc><c>Si</c><c>   2</c></rc>
    <rc><c>Si</c><c>   2</c></rc>
    <rc><c>Si</c><c>   2</c></rc>
    <rc><c>Si</c><c>   2</c></rc>
    <rc><c>Si</c><c>   2</c></rc>
    <rc><c>Si</c><c>   2</c></rc>
    <rc><c>Si</c><c>   2</c></rc>
    <rc><c>Si</c><c>   2</c></rc>
    <rc><c>Si</c><c>   2</c></rc>
    <rc><c>Si</c><c>   2</c></rc>
    <rc><c>Si</c><c>   2</c></rc>
    <rc><c>Si</c><c>   2</c></rc>
    <rc><c>Si</c><c>   2</c></rc>
    <rc><c>Si</c><c>   2</c></rc>
    <rc><c>Si</c><c>   2</c></rc>
    <rc><c>Si</c><c>   2</c></rc>
    <rc><c>Si</c><c>   2</c></rc>
    <rc><c>Si</c><c>   2</c></rc>
    <rc><c>Si</c><c>   2</c></rc>
    <rc><c>Si</c><c>   2</c></rc>
    <rc><c>Si</c><c>   2</c></rc>
    <rc><c>Si</c><c>   2</c></rc>
    <rc><c>Si</c><c>   2</c></rc>
    <rc><c>Si</c><c>   2</c></rc>
    <rc><c>Si</c><c>   2</c></rc>
    <rc><c>Si</c><c>   2</c></rc>
    <rc><c>Si</c><c>   2</c></rc>
   </set>
  </array>
  <array name="atomtypes" >
   <dimension dim="1">type</dimension>
   <field type="int">atomspertype</field>
   <field type="string">element</field>
   <field>mass</field>
   <field>valence</field>
   <field type="string">pseudopotential</field>
   <set>
    <rc><c>   1</c><c>B </c><c>     10.81100000</c><c>      3.00000000</c><c>  PAW_PBE B 06Sep2000                   </c></rc>
    <rc><c>  53</c><c>Si</c><c>     28.08500000</c><c>      4.00000000</c><c>  PAW_PBE Si 05Jan2001                  </c></rc>
   </set>
  </array>
 </atominfo>
 <structure name="initialpos" >
  <crystal>
   <varray name="basis" >
    <v>       9.97646553       0.00000000       5.75991507 </v>
    <v>       3.32548851       9.40590192       5.75991507 </v>
    <v>       0.00000000       0.00000000      11.51983014 </v>
   </varray>
   <i name="volume">   1080.99386112 </i>
   <varray name="rec_basis" >
    <v>       0.10023590      -0.03543874       0.00000000 </v>
    <v>       0.00000000       0.10631623       0.00000000 </v>
    <v>      -0.05011795      -0.03543874       0.08680684 </v>
   </varray>
  </crystal>
  <varray name="positions" >
   <v>       0.29166667       0.29166667       0.29166667 </v>
   <v>       0.29166667       0.29166667       0.62500000 </v>
   <v>       0.29166667       0.29166667       0.95833333 </v>
   <v>       0.29166667       0.62500000       0.29166667 </v>
   <v>       0.29166667       0.62500000       0.62500000 </v>
   <v>       0.29166667       0.62500000       0.95833333 </v>
   <v>       0.29166667       0.95833333       0.29166667 </v>
   <v>       0.29166667       0.95833333       0.62500000 </v>
   <v>       0.29166667       0.95833333       0.95833333 </v>
   <v>       0.62500000       0.29166667       0.29166667 </v>
   <v>       0.62500000       0.29166667       0.62500000 </v>
   <v>       0.62500000       0.29166667       0.95833333 </v>
   <v>       0.62500000       0.62500000       0.29166667 </v>
   <v>       0.62500000       0.62500000       0.62500000 </v>
   <v>       0.62500000       0.62500000       0.95833333 </v>
   <v>       0.62500000       0.95833333       0.29166667 </v>
   <v>       0.62500000       0.95833333       0.62500000 </v>
   <v>       0.62500000       0.95833333       0.95833333 </v>
   <v>       0.95833333       0.29166667       0.29166667 </v>
   <v>       0.95833333       0.29166667       0.62500000 </v>
   <v>       0.95833333       0.29166667       0.95833333 </v>
   <v>       0.95833333       0.62500000       0.29166667 </v>
   <v>       0.95833333       0.62500000       0.62500000 </v>
   <v>       0.95833333       0.62500000       0.95833333 </v>
   <v>       0.95833333       0.95833333       0.29166667 </v>
   <v>       0.95833333       0.95833333       0.62500000 </v>
   <v>       0.95833333       0.95833333       0.95833333 </v>
   <v>       0.04166667       0.04166667       0.04166667 </v>
   <v>       0.04166667       0.04166667       0.37500000 </v>
   <v>       0.04166667       0.04166667       0.70833333 </v>
   <v>       0.04166667       0.37500000       0.04166667 </v>
   <v>       0.04166667       0.37500000       0.37500000 </v>
   <v>       0.04166667       0.37500000       0.70833333 </v>
   <v>       0.04166667       0.70833333       0.04166667 </v>
   <v>       0.04166667       0.70833333       0.37500000 </v>
   <v>       0.04166667       0.70833333       0.70833333 </v>
   <v>       0.37500000       0.04166667       0.04166667 </v>
   <v>       0.37500000       0.04166667       0.37500000 </v>
   <v>       0.37500000       0.04166667       0.70833333 </v>
   <v>       0.37500000       0.37500000       0.04166667 </v>
   <v>       0.37500000       0.37500000       0.37500000 </v>
   <v>       0.37500000       0.37500000       0.70833333 </v>
   <v>       0.37500000       0.70833333       0.04166667 </v>
   <v>       0.37500000       0.70833333       0.37500000 </v>
   <v>       0.37500000       0.70833333       0.70833333 </v>
   <v>       0.70833333       0.04166667       0.04166667 </v>
   <v>       0.70833333       0.04166667       0.37500000 </v>
   <v>       0.70833333       0.04166667       0.70833333 </v>
   <v>       0.70833333       0.37500000       0.04166667 </v>
   <v>       0.70833333       0.37500000       0.37500000 </v>
   <v>       0.70833333       0.37500000       0.70833333 </v>
   <v>       0.70833333       0.70833333       0.04166667 </v>
   <v>       0.70833333       0.70833333       0.37500000 </v>
   <v>       0.70833333       0.70833333       0.70833333 </v>
  </varray>
 </structure>
 <calculation>
  <scstep>
   <time name="dav">    4.75    4.80</time>
   <time name="total">    5.08    5.14</time>
   <energy>
    <i name="alphaZ">     93.27357238 </i>
    <i name="ewald">  -6115.53854741 </i>
    <i name="hartreedc">   -300.67959059 </i>
    <i name="XCdc">   -487.55551508 </i>
    <i name="pawpsdc">   4714.06124509 </i>
    <i name="pawaedc">  -3780.76198842 </i>
    <i name="eentropy">     -0.02282817 </i>
    <i name="bandstr">    913.62240016 </i>
    <i name="atom">   5533.69225236 </i>
    <i name="e_fr_energy">    570.09100031 </i>
    <i name="e_wo_entrp">    570.11382848 </i>
    <i name="e_0_energy">    570.10241440 </i>
   </energy>
  </scstep>
  <scstep>
   <time name="dav">    4.08    4.12</time>
   <time name="total">    4.08    4.12</time>
   <energy>
    <i name="e_fr_energy">   -241.89990197 </i>
    <i name="e_wo_entrp">   -241.89990197 </i>
    <i name="e_0_energy">   -241.89990197 </i>
   </energy>
  </scstep>
  <scstep>
   <time name="dav">    4.07    4.11</time>
   <time name="total">    4.07    4.11</time>
   <energy>
    <i name="e_fr_energy">   -290.80490022 </i>
    <i name="e_wo_entrp">   -290.80490022 </i>
    <i name="e_0_energy">   -290.80490022 </i>
   </energy>
  </scstep>
  <scstep>
   <time name="dav">    4.54    4.58</time>
   <time name="total">    4.54    4.59</time>
   <energy>
    <i name="e_fr_energy">   -291.77078810 </i>
    <i name="e_wo_entrp">   -291.77078810 </i>
    <i name="e_0_energy">   -291.77078810 </i>
   </energy>
  </scstep>
  <scstep>
   <time name="dav">    3.99    4.02</time>
   <time name="total">    4.17    4.22</time>
   <energy>
    <i name="e_fr_energy">   -291.79180991 </i>
    <i name="e_wo_entrp">   -291.79180991 </i>
    <i name="e_0_energy">   -291.79180991 </i>
   </energy>
  </scstep>
  <scstep>
   <time name="dav">    4.54    4.59</time>
   <time name="total">    4.83    4.87</time>
   <energy>
    <i name="e_fr_energy">   -289.37696032 </i>
    <i name="e_wo_entrp">   -289.37696032 </i>
    <i name="e_0_energy">   -289.37696032 </i>
   </energy>
  </scstep>
  <scstep>
   <time name="dav">    4.33    4.39</time>
   <time name="total">    6.17    6.25</time>
   <energy>
    <i name="e_fr_energy">   -286.41308501 </i>
    <i name="e_wo_entrp">   -286.41308475 </i>
    <i name="e_0_energy">   -286.41308488 </i>
   </energy>
  </scstep>
  <scstep>
   <time name="dav">    4.25    4.30</time>
   <time name="total">    4.67    4.72</time>
   <energy>
    <i name="e_fr_energy">   -286.31279816 </i>
    <i name="e_wo_entrp">   -286.31279816 </i>
    <i name="e_0_energy">   -286.31279816 </i>
   </energy>
  </scstep>
  <scstep>
   <time name="dav">    3.70    3.73</time>
   <time name="total">    3.96    4.00</time>
   <energy>
    <i name="e_fr_energy">   -286.32295356 </i>
    <i name="e_wo_entrp">   -286.32295356 </i>
    <i name="e_0_energy">   -286.32295356 </i>
   </energy>
  </scstep>
  <scstep>
   <time name="dav">    4.37    4.42</time>
   <time name="total">    5.20    5.26</time>
   <energy>
    <i name="e_fr_energy">   -286.32760254 </i>
    <i name="e_wo_entrp">   -286.32760254 </i>
    <i name="e_0_energy">   -286.32760254 </i>
   </energy>
  </scstep>
  <scstep>
   <time name="dav">    3.95    3.99</time>
   <time name="total">    4.34    4.38</time>
   <energy>
    <i name="e_fr_energy">   -286.33474991 </i>
    <i name="e_wo_entrp">   -286.33474991 </i>
    <i name="e_0_energy">   -286.33474991 </i>
   </energy>
  </scstep>
  <scstep>
   <time name="dav">    4.02    4.06</time>
   <time name="total">    4.28    4.32</time>
   <energy>
    <i name="e_fr_energy">   -286.33546291 </i>
    <i name="e_wo_entrp">   -286.33546291 </i>
    <i name="e_0_energy">   -286.33546291 </i>
   </energy>
  </scstep>
  <scstep>
   <time name="dav">    4.45    4.49</time>
   <time name="total">    4.94    4.99</time>
   <energy>
    <i name="e_fr_energy">   -286.33686044 </i>
    <i name="e_wo_entrp">   -286.33686044 </i>
    <i name="e_0_energy">   -286.33686044 </i>
   </energy>
  </scstep>
  <scstep>
   <time name="dav">    4.26    4.31</time>
   <time name="total">    4.66    4.71</time>
   <energy>
    <i name="e_fr_energy">   -286.33689904 </i>
    <i name="e_wo_entrp">   -286.33689904 </i>
    <i name="e_0_energy">   -286.33689904 </i>
   </energy>
  </scstep>
  <scstep>
   <time name="dav">    6.03    6.10</time>
   <time name="total">    6.55    6.62</time>
   <energy>
    <i name="e_fr_energy">   -286.33693960 </i>
    <i name="e_wo_entrp">   -286.33693960 </i>
    <i name="e_0_energy">   -286.33693960 </i>
   </energy>
  </scstep>
  <scstep>
   <time name="dav">    7.89    7.98</time>
   <time name="total">    8.51    8.61</time>
   <energy>
    <i name="e_fr_energy">   -286.33694235 </i>
    <i name="e_wo_entrp">   -286.33694235 </i>
    <i name="e_0_energy">   -286.33694235 </i>
   </energy>
  </scstep>
  <scstep>
   <time name="dav">    4.58    4.63</time>
   <time name="total">    5.26    5.33</time>
   <energy>
    <i name="e_fr_energy">   -286.33694376 </i>
    <i name="e_wo_entrp">   -286.33694376 </i>
    <i name="e_0_energy">   -286.33694376 </i>
   </energy>
  </scstep>
  <scstep>
   <time name="dav">    4.87    4.93</time>
   <time name="total">    5.81    5.88</time>
   <energy>
    <i name="e_fr_energy">   -286.33694707 </i>
    <i name="e_wo_entrp">   -286.33694707 </i>
    <i name="e_0_energy">   -286.33694707 </i>
   </energy>
  </scstep>
  <scstep>
   <time name="dav">    3.36    3.40</time>
   <time name="total">    4.00    4.04</time>
   <energy>
    <i name="e_fr_energy">   -286.33694811 </i>
    <i name="e_wo_entrp">   -286.33694811 </i>
    <i name="e_0_energy">   -286.33694811 </i>
   </energy>
  </scstep>
  <scstep>
   <time name="dav">    3.39    3.43</time>
   <time name="total">    4.01    4.05</time>
   <energy>
    <i name="e_fr_energy">   -286.33694709 </i>
    <i name="e_wo_entrp">   -286.33694709 </i>
    <i name="e_0_energy">   -286.33694709 </i>
   </energy>
  </scstep>
  <scstep>
   <time name="dav">    3.73    3.77</time>
   <time name="total">    3.96    4.00</time>
   <energy>
    <i name="alphaZ">     93.27357238 </i>
    <i name="ewald">  -6115.53854741 </i>
    <i name="hartreedc">   -406.32811736 </i>
    <i name="XCdc">   -467.65277464 </i>
    <i name="pawpsdc">  23044.28809304 </i>
    <i name="pawaedc"> -22116.99400982 </i>
    <i name="eentropy">     -0.00000000 </i>
    <i name="bandstr">    148.92258399 </i>
    <i name="atom">   5533.69225236 </i>
    <i name="e_fr_energy">   -286.33694747 </i>
    <i name="e_wo_entrp">   -286.33694747 </i>
    <i name="e_0_energy">   -286.33694747 </i>
   </energy>
  </scstep>
  <structure>
   <crystal>
    <varray name="basis" >
     <v>       9.97646553       0.00000000       5.75991507 </v>
     <v>       3.32548851       9.40590192       5.75991507 </v>
     <v>       0.00000000       0.00000000      11.51983014 </v>
    </varray>
    <i name="volume">   1080.99386112 </i>
    <varray name="rec_basis" >
     <v>       0.10023590      -0.03543874       0.00000000 </v>
     <v>       0.00000000       0.10631623       0.00000000 </v>
     <v>      -0.05011795      -0.03543874       0.08680684 </v>
    </varray>
   </crystal>
   <varray name="positions" >
    <v>       0.29166667       0.29166667       0.29166667 </v>
    <v>       0.29166667       0.29166667       0.62500000 </v>
    <v>       0.29166667       0.29166667       0.95833333 </v>
    <v>       0.29166667       0.62500000       0.29166667 </v>
    <v>       0.29166667       0.62500000       0.62500000 </v>
    <v>       0.29166667       0.62500000       0.95833333 </v>
    <v>       0.29166667       0.95833333       0.29166667 </v>
    <v>       0.29166667       0.95833333       0.62500000 </v>
    <v>       0.29166667       0.95833333       0.95833333 </v>
    <v>       0.62500000       0.29166667       0.29166667 </v>
    <v>       0.62500000       0.29166667       0.62500000 </v>
    <v>       0.62500000       0.29166667       0.95833333 </v>
    <v>       0.62500000       0.62500000       0.29166667 </v>
    <v>       0.62500000       0.62500000       0.62500000 </v>
    <v>       0.62500000       0.62500000       0.95833333 </v>
    <v>       0.62500000       0.95833333       0.29166667 </v>
    <v>       0.62500000       0.95833333       0.62500000 </v>
    <v>       0.62500000       0.95833333       0.95833333 </v>
    <v>       0.95833333       0.29166667       0.29166667 </v>
    <v>       0.95833333       0.29166667       0.62500000 </v>
    <v>       0.95833333       0.29166667       0.95833333 </v>
    <v>       0.95833333       0.62500000       0.29166667 </v>
    <v>       0.95833333       0.62500000       0.62500000 </v>
    <v>       0.95833333       0.62500000       0.95833333 </v>
    <v>       0.95833333       0.95833333       0.29166667 </v>
    <v>       0.95833333       0.95833333       0.62500000 </v>
    <v>       0.95833333       0.95833333       0.95833333 </v>
    <v>       0.04166667       0.04166667       0.04166667 </v>
    <v>       0.04166667       0.04166667       0.37500000 </v>
    <v>       0.04166667       0.04166667       0.70833333 </v>
    <v>       0.04166667       0.37500000       0.04166667 </v>
    <v>       0.04166667       0.37500000       0.37500000 </v>
    <v>       0.04166667       0.37500000       0.70833333 </v>
    <v>       0.04166667       0.70833333       0.04166667 </v>
    <v>       0.04166667       0.70833333       0.37500000 </v>
    <v>       0.04166667       0.70833333       0.70833333 </v>
    <v>       0.37500000       0.04166667       0.04166667 </v>
    <v>       0.37500000       0.04166667       0.37500000 </v>
    <v>       0.37500000       0.04166667       0.70833333 </v>
    <v>       0.37500000       0.37500000       0.04166667 </v>
    <v>       0.37500000       0.37500000       0.37500000 </v>
    <v>       0.37500000       0.37500000       0.70833333 </v>
    <v>       0.37500000       0.70833333       0.04166667 </v>
    <v>       0.37500000       0.70833333       0.37500000 </v>
    <v>       0.37500000       0.70833333       0.70833333 </v>
    <v>       0.70833333       0.04166667       0.04166667 </v>
    <v>       0.70833333       0.04166667       0.37500000 </v>
    <v>       0.70833333       0.04166667       0.70833333 </v>
    <v>       0.70833333       0.37500000       0.04166667 </v>
    <v>       0.70833333       0.37500000       0.37500000 </v>
    <v>       0.70833333       0.37500000       0.70833333 </v>
    <v>       0.70833333       0.70833333       0.04166667 </v>
    <v>       0.70833333       0.70833333       0.37500000 </v>
    <v>       0.70833333       0.70833333       0.70833333 </v>
   </varray>
  </structure>
  <varray name="forces" >
   <v>       0.00000000       0.00000000      -0.00000000 </v>
   <v>       0.18385640       0.13000610      -0.07605304 </v>
   <v>       0.18385640       0.13000610       0.07605304 </v>
   <v>       0.06997358      -0.19210315       0.12119779 </v>
   <v>       0.05790389      -0.02047212      -0.00000000 </v>
   <v>       0.06997358      -0.19210315      -0.12119779 </v>
   <v>       0.11388282      -0.06790906       0.19725083 </v>
   <v>       0.11388282      -0.06790906      -0.19725083 </v>
   <v>       0.07350944      -0.02598951      -0.00000000 </v>
   <v>      -0.15779206       0.13000610       0.12119779 </v>
   <v>       0.00000000       0.06141635      -0.00000000 </v>
   <v>      -0.15779206       0.13000610      -0.12119779 </v>
   <v>      -0.02895195      -0.02047212       0.05014624 </v>
   <v>      -0.02895195      -0.02047212      -0.05014624 </v>
   <v>      -0.01005336      -0.00710880      -0.00000000 </v>
   <v>      -0.22776564      -0.06790906      -0.00000000 </v>
   <v>      -0.00502668       0.00710880      -0.00870647 </v>
   <v>      -0.00502668       0.00710880       0.00870647 </v>
   <v>      -0.02606433       0.13000610       0.19725083 </v>
   <v>      -0.02606433       0.13000610      -0.19725083 </v>
   <v>      -0.00000000       0.07796853      -0.00000000 </v>
   <v>      -0.13994715      -0.19210315      -0.00000000 </v>
   <v>       0.00502668      -0.00710880      -0.00870647 </v>
   <v>       0.00502668      -0.00710880       0.00870647 </v>
   <v>      -0.03675472      -0.02598951       0.06366104 </v>
   <v>       0.01005336       0.00710880      -0.00000000 </v>
   <v>      -0.03675472      -0.02598951      -0.06366104 </v>
   <v>       0.00000000       0.00000000      -0.00000000 </v>
   <v>       0.03851951       0.02723740      -0.05656237 </v>
   <v>       0.03851951       0.02723740       0.05656237 </v>
   <v>       0.00293160      -0.07342039       0.00507769 </v>
   <v>       2.15686661      -0.76256750      -0.00000000 </v>
   <v>       0.00293160      -0.07342039      -0.00507769 </v>
   <v>       0.03558790       0.01894558       0.06164006 </v>
   <v>       0.03558790       0.01894558      -0.06164006 </v>
   <v>      -0.00524127       0.00185307      -0.00000000 </v>
   <v>      -0.06824420       0.02723740       0.00507769 </v>
   <v>      -0.00000000       2.28770251      -0.00000000 </v>
   <v>      -0.06824420       0.02723740      -0.00507769 </v>
   <v>      -1.07843330      -0.76256750       1.86790128 </v>
   <v>      -1.07843330      -0.76256750      -1.86790128 </v>
   <v>      -0.15827485      -0.11191722      -0.00000000 </v>
   <v>      -0.07117581       0.01894558      -0.00000000 </v>
   <v>      -0.07913743       0.11191722      -0.13707004 </v>
   <v>      -0.07913743       0.11191722       0.13707004 </v>
   <v>       0.02972470       0.02723740       0.06164006 </v>
   <v>       0.02972470       0.02723740      -0.06164006 </v>
   <v>       0.00000000      -0.00555920      -0.00000000 </v>
   <v>      -0.00586321      -0.07342039      -0.00000000 </v>
   <v>       0.07913743      -0.11191722      -0.13707004 </v>
   <v>       0.07913743      -0.11191722       0.13707004 </v>
   <v>       0.00262063       0.00185307      -0.00453907 </v>
   <v>       0.15827485       0.11191722      -0.00000000 </v>
   <v>       0.00262063       0.00185307       0.00453907 </v>
  </varray>
  <varray name="stress" >
   <v>      23.71391650       0.00000000      -0.00000000 </v>
   <v>       0.00000000      23.71391658      -0.00000000 </v>
   <v>      -0.00000000      -0.00000000      23.71391659 </v>
  </varray>
  <energy>
   <i name="e_fr_energy">   -286.33694747 </i>
   <i name="e_wo_entrp">   -286.33694747 </i>
   <i name="e_0_energy">     -0.00000000 </i>
  </energy>
  <time name="totalsc">  117.51  118.85</time>
  <eigenvalues>
   <array>
    <dimension dim="1">band</dimension>
    <dimension dim="2">kpoint</dimension>
    <dimension dim="3">spin</dimension>
    <field>eigene</field>
    <field>occ</field>
    <set>
     <set comment="spin 1">
      <set comment="kpoint 1">
       <r>   -6.2470    1.0000 </r>
       <r>   -4.9438    1.0000 </r>
       <r>   -4.9129    1.0000 </r>
       <r>   -4.9129    1.0000 </r>
       <r>   -4.9129    1.0000 </r>
       <r>   -4.8711    1.0000 </r>
       <r>   -4.8711    1.0000 </r>
       <r>   -4.8711    1.0000 </r>
       <r>   -4.7306    1.0000 </r>
       <r>   -4.3716    1.0000 </r>
       <r>   -4.3716    1.0000 </r>
       <r>   -4.3277    1.0000 </r>
       <r>   -4.3277    1.0000 </r>
       <r>   -4.3277    1.0000 </r>
       <r>   -4.0125    1.0000 </r>
       <r>   -3.0523    1.0000 </r>
       <r>   -3.0523    1.0000 </r>
       <r>   -3.0523    1.0000 </r>
       <r>   -3.0271    1.0000 </r>
       <r>   -3.0271    1.0000 </r>
       <r>   -2.9910    1.0000 </r>
       <r>   -2.9910    1.0000 </r>
       <r>   -2.9910    1.0000 </r>
       <r>   -2.8884    1.0000 </r>
       <r>   -2.8884    1.0000 </r>
       <r>   -2.8884    1.0000 </r>
       <r>   -2.3324    1.0000 </r>
       <r>   -1.1229    1.0000 </r>
       <r>   -1.1229    1.0000 </r>
       <r>   -1.1229    1.0000 </r>
       <r>   -1.0951    1.0000 </r>
       <r>   -1.0951    1.0000 </r>
       <r>   -1.0579    1.0000 </r>
       <r>   -1.0579    1.0000 </r>
       <r>   -1.0579    1.0000 </r>
       <r>   -0.9374    1.0000 </r>
       <r>   -0.9374    1.0000 </r>
       <r>   -0.9374    1.0000 </r>
       <r>   -0.5759    1.0000 </r>
       <r>    0.3430    1.0000 </r>
       <r>    0.3612    1.0000 </r>
       <r>    0.3612    1.0000 </r>
       <r>    0.3612    1.0000 </r>
       <r>    0.4111    1.0000 </r>
       <r>    0.4111    1.0000 </r>
       <r>    0.4111    1.0000 </r>
       <r>    0.4147    1.0000 </r>
       <r>    0.6863    1.0000 </r>
       <r>    0.6863    1.0000 </r>
       <r>    0.7659    1.0000 </r>
       <r>    0.7659    1.0000 </r>
       <r>    0.7659    1.0000 </r>
       <r>    1.1010    1.0000 </r>
       <r>    1.2364    1.0000 </r>
       <r>    1.2364    1.0000 </r>
       <r>    1.2364    1.0000 </r>
       <r>    1.2386    1.0000 </r>
       <r>    1.2386    1.0000 </r>
       <r>    1.2386    1.0000 </r>
       <r>    1.2756    1.0000 </r>
       <r>    1.3455    1.0000 </r>
       <r>    1.3455    1.0000 </r>
       <r>    1.5661    1.0000 </r>
       <r>    1.5661    1.0000 </r>
       <r>    1.5661    1.0000 </r>
       <r>    3.2533    1.0000 </r>
       <r>    3.2533    1.0000 </r>
       <r>    3.2533    1.0000 </r>
       <r>    3.2810    1.0000 </r>
       <r>    3.2810    1.0000 </r>
       <r>    3.2810    1.0000 </r>
       <r>    3.2842    1.0000 </r>
       <r>    3.2842    1.0000 </r>
       <r>    3.2842    1.0000 </r>
       <r>    3.3264    1.0000 </r>
       <r>    3.3264    1.0000 </r>
       <r>    3.3264    1.0000 </r>
       <r>    3.5682    1.0000 </r>
       <r>    3.5682    1.0000 </r>
       <r>    3.5682    1.0000 </r>
       <r>    3.5768    1.0000 </r>
       <r>    3.6018    1.0000 </r>
       <r>    3.6018    1.0000 </r>
       <r>    3.6257    1.0000 </r>
       <r>    3.6257    1.0000 </r>
       <r>    3.6257    1.0000 </r>
       <r>    3.8563    1.0000 </r>
       <r>    3.8563    1.0000 </r>
       <r>    3.8563    1.0000 </r>
       <r>    4.6597    1.0000 </r>
       <r>    4.6597    1.0000 </r>
       <r>    4.6597    1.0000 </r>
       <r>    4.6619    1.0000 </r>
       <r>    4.6619    1.0000 </r>
       <r>    4.6700    1.0000 </r>
       <r>    4.6700    1.0000 </r>
       <r>    4.6700    1.0000 </r>
       <r>    4.7354    1.0000 </r>
       <r>    4.7354    1.0000 </r>
       <r>    4.7472    1.0000 </r>
       <r>    4.7472    1.0000 </r>
       <r>    4.7472    1.0000 </r>
       <r>    5.0860    1.0000 </r>
       <r>    5.0860    1.0000 </r>
       <r>    5.0860    1.0000 </r>
       <r>    5.8328    1.0000 </r>
       <r>    5.8328    1.0000 </r>
       <r>    5.8328    1.0000 </r>
       <r>    6.4269    0.0000 </r>
       <r>    6.4325    0.0000 </r>
       <r>    6.4325    0.0000 </r>
       <r>    6.4493    0.0000 </r>
       <r>    6.4493    0.0000 </r>
       <r>    6.4493    0.0000 </r>
       <r>    7.2315    0.0000 </r>
       <r>    7.2396    0.0000 </r>
       <r>    7.2396    0.0000 </r>
       <r>    7.2396    0.0000 </r>
       <r>    7.2503    0.0000 </r>
       <r>    7.2503    0.0000 </r>
       <r>    7.2503    0.0000 </r>
       <r>    7.3048    0.0000 </r>
       <r>    7.3048    0.0000 </r>
       <r>    7.3048    0.0000 </r>
       <r>    7.3213    0.0000 </r>
       <r>    7.3213    0.0000 </r>
       <r>    7.4256    0.0000 </r>
       <r>    7.4256    0.0000 </r>
       <r>    7.4256    0.0000 </r>
       <r>    7.4394    0.0000 </r>
       <r>    7.5168    0.0000 </r>
       <r>    7.5770    0.0000 </r>
       <r>    7.5770    0.0000 </r>
       <r>    7.5770    0.0000 </r>
       <r>    7.7055    0.0000 </r>
       <r>    7.7883    0.0000 </r>
       <r>    7.7883    0.0000 </r>
       <r>    7.7883    0.0000 </r>
       <r>    7.8113    0.0000 </r>
       <r>    7.8113    0.0000 </r>
       <r>    8.2983    0.0000 </r>
       <r>    8.2983    0.0000 </r>
       <r>    8.2983    0.0000 </r>
       <r>    9.0756    0.0000 </r>
      </set>
      <set comment="kpoint 2">
       <r>   -6.1584    1.0000 </r>
       <r>   -5.4514    1.0000 </r>
       <r>   -5.0190    1.0000 </r>
       <r>   -5.0190    1.0000 </r>
       <r>   -4.9994    1.0000 </r>
       <r>   -4.7485    1.0000 </r>
       <r>   -4.7485    1.0000 </r>
       <r>   -4.6946    1.0000 </r>
       <r>   -4.5846    1.0000 </r>
       <r>   -4.5846    1.0000 </r>
       <r>   -4.4247    1.0000 </r>
       <r>   -4.2308    1.0000 </r>
       <r>   -3.8230    1.0000 </r>
       <r>   -3.8230    1.0000 </r>
       <r>   -3.7085    1.0000 </r>
       <r>   -3.5903    1.0000 </r>
       <r>   -3.5903    1.0000 </r>
       <r>   -3.4496    1.0000 </r>
       <r>   -3.0333    1.0000 </r>
       <r>   -3.0333    1.0000 </r>
       <r>   -2.9859    1.0000 </r>
       <r>   -2.9360    1.0000 </r>
       <r>   -2.9360    1.0000 </r>
       <r>   -2.7734    1.0000 </r>
       <r>   -2.7087    1.0000 </r>
       <r>   -2.7087    1.0000 </r>
       <r>   -2.3089    1.0000 </r>
       <r>   -1.3505    1.0000 </r>
       <r>   -1.3505    1.0000 </r>
       <r>   -1.2553    1.0000 </r>
       <r>   -1.1433    1.0000 </r>
       <r>   -1.1433    1.0000 </r>
       <r>   -1.0970    1.0000 </r>
       <r>   -1.0432    1.0000 </r>
       <r>   -1.0432    1.0000 </r>
       <r>   -0.8948    1.0000 </r>
       <r>   -0.7145    1.0000 </r>
       <r>   -0.5699    1.0000 </r>
       <r>   -0.5699    1.0000 </r>
       <r>   -0.4141    1.0000 </r>
       <r>   -0.0975    1.0000 </r>
       <r>   -0.0975    1.0000 </r>
       <r>   -0.0880    1.0000 </r>
       <r>    0.0536    1.0000 </r>
       <r>    0.0536    1.0000 </r>
       <r>    0.3190    1.0000 </r>
       <r>    0.8622    1.0000 </r>
       <r>    0.8622    1.0000 </r>
       <r>    0.8906    1.0000 </r>
       <r>    1.2876    1.0000 </r>
       <r>    1.2876    1.0000 </r>
       <r>    1.3422    1.0000 </r>
       <r>    1.4135    1.0000 </r>
       <r>    1.4262    1.0000 </r>
       <r>    1.4262    1.0000 </r>
       <r>    1.4658    1.0000 </r>
       <r>    1.4783    1.0000 </r>
       <r>    1.4783    1.0000 </r>
       <r>    1.5274    1.0000 </r>
       <r>    1.6409    1.0000 </r>
       <r>    1.6409    1.0000 </r>
       <r>    1.7096    1.0000 </r>
       <r>    1.7918    1.0000 </r>
       <r>    1.7918    1.0000 </r>
       <r>    1.9917    1.0000 </r>
       <r>    2.8024    1.0000 </r>
       <r>    2.8024    1.0000 </r>
       <r>    2.8336    1.0000 </r>
       <r>    3.1237    1.0000 </r>
       <r>    3.1481    1.0000 </r>
       <r>    3.1481    1.0000 </r>
       <r>    3.2473    1.0000 </r>
       <r>    3.2473    1.0000 </r>
       <r>    3.2631    1.0000 </r>
       <r>    3.2737    1.0000 </r>
       <r>    3.2781    1.0000 </r>
       <r>    3.2781    1.0000 </r>
       <r>    3.3015    1.0000 </r>
       <r>    3.3360    1.0000 </r>
       <r>    3.3360    1.0000 </r>
       <r>    3.4460    1.0000 </r>
       <r>    3.4461    1.0000 </r>
       <r>    3.5660    1.0000 </r>
       <r>    3.5751    1.0000 </r>
       <r>    3.6521    1.0000 </r>
       <r>    3.6521    1.0000 </r>
       <r>    3.8611    1.0000 </r>
       <r>    3.8611    1.0000 </r>
       <r>    3.9791    1.0000 </r>
       <r>    4.0217    1.0000 </r>
       <r>    4.0603    1.0000 </r>
       <r>    4.0603    1.0000 </r>
       <r>    4.3844    1.0000 </r>
       <r>    4.4127    1.0000 </r>
       <r>    4.4127    1.0000 </r>
       <r>    4.4585    1.0000 </r>
       <r>    4.4585    1.0000 </r>
       <r>    4.5881    1.0000 </r>
       <r>    4.5881    1.0000 </r>
       <r>    4.5950    1.0000 </r>
       <r>    4.7167    1.0000 </r>
       <r>    4.8263    1.0000 </r>
       <r>    4.8263    1.0000 </r>
       <r>    5.0494    1.0000 </r>
       <r>    5.0932    1.0000 </r>
       <r>    5.0932    1.0000 </r>
       <r>    5.7002    1.0000 </r>
       <r>    5.7002    1.0000 </r>
       <r>    6.5933    0.0000 </r>
       <r>    6.6016    0.0000 </r>
       <r>    6.6016    0.0000 </r>
       <r>    6.8849    0.0000 </r>
       <r>    6.8849    0.0000 </r>
       <r>    6.8916    0.0000 </r>
       <r>    6.9898    0.0000 </r>
       <r>    7.0188    0.0000 </r>
       <r>    7.0188    0.0000 </r>
       <r>    7.3204    0.0000 </r>
       <r>    7.5502    0.0000 </r>
       <r>    7.5616    0.0000 </r>
       <r>    7.5616    0.0000 </r>
       <r>    7.6874    0.0000 </r>
       <r>    7.7447    0.0000 </r>
       <r>    7.7447    0.0000 </r>
       <r>    7.7821    0.0000 </r>
       <r>    7.8108    0.0000 </r>
       <r>    7.8314    0.0000 </r>
       <r>    7.8314    0.0000 </r>
       <r>    7.8825    0.0000 </r>
       <r>    7.8854    0.0000 </r>
       <r>    7.8854    0.0000 </r>
       <r>    7.9322    0.0000 </r>
       <r>    7.9453    0.0000 </r>
       <r>    7.9453    0.0000 </r>
       <r>    8.0442    0.0000 </r>
       <r>    8.1139    0.0000 </r>
       <r>    8.1139    0.0000 </r>
       <r>    8.3343    0.0000 </r>
       <r>    8.5002    0.0000 </r>
       <r>    8.5002    0.0000 </r>
       <r>    8.5008    0.0000 </r>
       <r>    8.5513    0.0000 </r>
       <r>    8.5513    0.0000 </r>
       <r>    9.0000    0.0000 </r>
      </set>
      <set comment="kpoint 3">
       <r>   -5.9417    1.0000 </r>
       <r>   -5.8323    1.0000 </r>
       <r>   -5.0285    1.0000 </r>
       <r>   -5.0087    1.0000 </r>
       <r>   -5.0087    1.0000 </r>
       <r>   -4.9206    1.0000 </r>
       <r>   -4.9206    1.0000 </r>
       <r>   -4.7550    1.0000 </r>
       <r>   -4.1737    1.0000 </r>
       <r>   -4.1737    1.0000 </r>
       <r>   -4.1416    1.0000 </r>
       <r>   -4.1379    1.0000 </r>
       <r>   -4.1379    1.0000 </r>
       <r>   -4.0098    1.0000 </r>
       <r>   -3.8449    1.0000 </r>
       <r>   -3.2084    1.0000 </r>
       <r>   -3.2084    1.0000 </r>
       <r>   -3.2060    1.0000 </r>
       <r>   -3.1756    1.0000 </r>
       <r>   -3.1756    1.0000 </r>
       <r>   -3.0279    1.0000 </r>
       <r>   -3.0279    1.0000 </r>
       <r>   -3.0168    1.0000 </r>
       <r>   -2.9807    1.0000 </r>
       <r>   -2.9124    1.0000 </r>
       <r>   -2.9124    1.0000 </r>
       <r>   -2.3684    1.0000 </r>
       <r>   -1.2628    1.0000 </r>
       <r>   -1.1766    1.0000 </r>
       <r>   -1.1766    1.0000 </r>
       <r>   -1.1341    1.0000 </r>
       <r>   -1.0936    1.0000 </r>
       <r>   -1.0936    1.0000 </r>
       <r>   -1.0305    1.0000 </r>
       <r>   -0.8675    1.0000 </r>
       <r>   -0.8675    1.0000 </r>
       <r>   -0.8352    1.0000 </r>
       <r>   -0.8352    1.0000 </r>
       <r>   -0.7802    1.0000 </r>
       <r>   -0.6090    1.0000 </r>
       <r>   -0.3121    1.0000 </r>
       <r>   -0.3121    1.0000 </r>
       <r>   -0.2672    1.0000 </r>
       <r>   -0.1973    1.0000 </r>
       <r>   -0.1973    1.0000 </r>
       <r>    0.0981    1.0000 </r>
       <r>    1.2159    1.0000 </r>
       <r>    1.2460    1.0000 </r>
       <r>    1.2460    1.0000 </r>
       <r>    1.3330    1.0000 </r>
       <r>    1.3330    1.0000 </r>
       <r>    1.4443    1.0000 </r>
       <r>    1.6381    1.0000 </r>
       <r>    1.6683    1.0000 </r>
       <r>    1.6683    1.0000 </r>
       <r>    1.7017    1.0000 </r>
       <r>    1.8501    1.0000 </r>
       <r>    1.8501    1.0000 </r>
       <r>    2.0445    1.0000 </r>
       <r>    2.0643    1.0000 </r>
       <r>    2.0643    1.0000 </r>
       <r>    2.1533    1.0000 </r>
       <r>    2.1617    1.0000 </r>
       <r>    2.1617    1.0000 </r>
       <r>    2.6427    1.0000 </r>
       <r>    2.6427    1.0000 </r>
       <r>    2.6614    1.0000 </r>
       <r>    2.6614    1.0000 </r>
       <r>    2.6904    1.0000 </r>
       <r>    2.7029    1.0000 </r>
       <r>    2.9207    1.0000 </r>
       <r>    2.9207    1.0000 </r>
       <r>    2.9321    1.0000 </r>
       <r>    2.9963    1.0000 </r>
       <r>    2.9963    1.0000 </r>
       <r>    3.1004    1.0000 </r>
       <r>    3.1080    1.0000 </r>
       <r>    3.1080    1.0000 </r>
       <r>    3.1528    1.0000 </r>
       <r>    3.1792    1.0000 </r>
       <r>    3.2995    1.0000 </r>
       <r>    3.2995    1.0000 </r>
       <r>    3.3491    1.0000 </r>
       <r>    3.3878    1.0000 </r>
       <r>    3.6734    1.0000 </r>
       <r>    3.6734    1.0000 </r>
       <r>    3.6872    1.0000 </r>
       <r>    3.7766    1.0000 </r>
       <r>    3.7766    1.0000 </r>
       <r>    3.9372    1.0000 </r>
       <r>    3.9584    1.0000 </r>
       <r>    3.9750    1.0000 </r>
       <r>    3.9750    1.0000 </r>
       <r>    4.0351    1.0000 </r>
       <r>    4.0351    1.0000 </r>
       <r>    4.3125    1.0000 </r>
       <r>    4.3801    1.0000 </r>
       <r>    4.4014    1.0000 </r>
       <r>    4.4014    1.0000 </r>
       <r>    4.4438    1.0000 </r>
       <r>    4.4776    1.0000 </r>
       <r>    4.4776    1.0000 </r>
       <r>    4.7211    1.0000 </r>
       <r>    4.7211    1.0000 </r>
       <r>    5.2277    1.0000 </r>
       <r>    5.2277    1.0000 </r>
       <r>    5.5105    1.0000 </r>
       <r>    5.5105    1.0000 </r>
       <r>    6.7067    0.0000 </r>
       <r>    6.7067    0.0000 </r>
       <r>    6.7223    0.0000 </r>
       <r>    6.8144    0.0000 </r>
       <r>    6.8701    0.0000 </r>
       <r>    6.8701    0.0000 </r>
       <r>    7.2670    0.0000 </r>
       <r>    7.6536    0.0000 </r>
       <r>    7.6536    0.0000 </r>
       <r>    7.6732    0.0000 </r>
       <r>    7.6833    0.0000 </r>
       <r>    7.7021    0.0000 </r>
       <r>    7.7021    0.0000 </r>
       <r>    8.0203    0.0000 </r>
       <r>    8.0798    0.0000 </r>
       <r>    8.1353    0.0000 </r>
       <r>    8.1353    0.0000 </r>
       <r>    8.1545    0.0000 </r>
       <r>    8.2620    0.0000 </r>
       <r>    8.2813    0.0000 </r>
       <r>    8.2813    0.0000 </r>
       <r>    8.3949    0.0000 </r>
       <r>    8.4094    0.0000 </r>
       <r>    8.4094    0.0000 </r>
       <r>    8.4455    0.0000 </r>
       <r>    8.4641    0.0000 </r>
       <r>    8.4641    0.0000 </r>
       <r>    8.8768    0.0000 </r>
       <r>    8.8768    0.0000 </r>
       <r>    8.9371    0.0000 </r>
       <r>    8.9371    0.0000 </r>
       <r>    9.0175    0.0000 </r>
       <r>    9.0515    0.0000 </r>
       <r>    9.0519    0.0000 </r>
       <r>    9.0545    0.0000 </r>
       <r>    9.1282    0.0000 </r>
      </set>
      <set comment="kpoint 4">
       <r>   -6.1285    1.0000 </r>
       <r>   -5.2527    1.0000 </r>
       <r>   -5.2271    1.0000 </r>
       <r>   -5.2081    1.0000 </r>
       <r>   -5.2081    1.0000 </r>
       <r>   -4.9957    1.0000 </r>
       <r>   -4.4067    1.0000 </r>
       <r>   -4.4063    1.0000 </r>
       <r>   -4.4063    1.0000 </r>
       <r>   -4.3793    1.0000 </r>
       <r>   -4.2733    1.0000 </r>
       <r>   -4.2189    1.0000 </r>
       <r>   -4.2189    1.0000 </r>
       <r>   -4.0014    1.0000 </r>
       <r>   -3.5423    1.0000 </r>
       <r>   -3.5150    1.0000 </r>
       <r>   -3.5150    1.0000 </r>
       <r>   -3.4529    1.0000 </r>
       <r>   -3.3252    1.0000 </r>
       <r>   -3.2038    1.0000 </r>
       <r>   -3.2038    1.0000 </r>
       <r>   -3.1756    1.0000 </r>
       <r>   -2.8767    1.0000 </r>
       <r>   -2.4765    1.0000 </r>
       <r>   -2.4377    1.0000 </r>
       <r>   -2.4377    1.0000 </r>
       <r>   -2.1816    1.0000 </r>
       <r>   -1.5616    1.0000 </r>
       <r>   -1.5234    1.0000 </r>
       <r>   -1.5234    1.0000 </r>
       <r>   -1.3995    1.0000 </r>
       <r>   -1.0812    1.0000 </r>
       <r>   -1.0812    1.0000 </r>
       <r>   -1.0732    1.0000 </r>
       <r>   -0.9900    1.0000 </r>
       <r>   -0.7171    1.0000 </r>
       <r>   -0.5235    1.0000 </r>
       <r>   -0.4857    1.0000 </r>
       <r>   -0.4857    1.0000 </r>
       <r>   -0.4161    1.0000 </r>
       <r>   -0.3570    1.0000 </r>
       <r>   -0.3356    1.0000 </r>
       <r>   -0.3356    1.0000 </r>
       <r>   -0.1149    1.0000 </r>
       <r>    0.5110    1.0000 </r>
       <r>    0.5710    1.0000 </r>
       <r>    0.5710    1.0000 </r>
       <r>    0.7336    1.0000 </r>
       <r>    1.2862    1.0000 </r>
       <r>    1.3150    1.0000 </r>
       <r>    1.3150    1.0000 </r>
       <r>    1.3987    1.0000 </r>
       <r>    1.4302    1.0000 </r>
       <r>    1.4330    1.0000 </r>
       <r>    1.4330    1.0000 </r>
       <r>    1.4596    1.0000 </r>
       <r>    1.5736    1.0000 </r>
       <r>    1.6028    1.0000 </r>
       <r>    1.6134    1.0000 </r>
       <r>    1.6134    1.0000 </r>
       <r>    1.8147    1.0000 </r>
       <r>    1.9184    1.0000 </r>
       <r>    1.9184    1.0000 </r>
       <r>    1.9234    1.0000 </r>
       <r>    2.3061    1.0000 </r>
       <r>    2.8366    1.0000 </r>
       <r>    2.8366    1.0000 </r>
       <r>    2.8391    1.0000 </r>
       <r>    2.8613    1.0000 </r>
       <r>    2.9334    1.0000 </r>
       <r>    2.9434    1.0000 </r>
       <r>    2.9434    1.0000 </r>
       <r>    3.0220    1.0000 </r>
       <r>    3.0371    1.0000 </r>
       <r>    3.0371    1.0000 </r>
       <r>    3.2874    1.0000 </r>
       <r>    3.3210    1.0000 </r>
       <r>    3.3210    1.0000 </r>
       <r>    3.3667    1.0000 </r>
       <r>    3.6312    1.0000 </r>
       <r>    3.6396    1.0000 </r>
       <r>    3.6396    1.0000 </r>
       <r>    3.6683    1.0000 </r>
       <r>    3.6933    1.0000 </r>
       <r>    3.6971    1.0000 </r>
       <r>    3.6971    1.0000 </r>
       <r>    3.7010    1.0000 </r>
       <r>    3.9267    1.0000 </r>
       <r>    3.9267    1.0000 </r>
       <r>    3.9992    1.0000 </r>
       <r>    4.0216    1.0000 </r>
       <r>    4.0216    1.0000 </r>
       <r>    4.0365    1.0000 </r>
       <r>    4.1404    1.0000 </r>
       <r>    4.1860    1.0000 </r>
       <r>    4.1860    1.0000 </r>
       <r>    4.2897    1.0000 </r>
       <r>    4.2974    1.0000 </r>
       <r>    4.4758    1.0000 </r>
       <r>    4.4758    1.0000 </r>
       <r>    4.5008    1.0000 </r>
       <r>    5.0119    1.0000 </r>
       <r>    5.0325    1.0000 </r>
       <r>    5.1053    1.0000 </r>
       <r>    5.1053    1.0000 </r>
       <r>    5.1560    1.0000 </r>
       <r>    5.4837    1.0000 </r>
       <r>    5.4837    1.0000 </r>
       <r>    6.2906    0.0000 </r>
       <r>    6.8216    0.0000 </r>
       <r>    6.8953    0.0000 </r>
       <r>    7.0902    0.0000 </r>
       <r>    7.0941    0.0000 </r>
       <r>    7.1046    0.0000 </r>
       <r>    7.1046    0.0000 </r>
       <r>    7.3839    0.0000 </r>
       <r>    7.3839    0.0000 </r>
       <r>    7.4253    0.0000 </r>
       <r>    7.4557    0.0000 </r>
       <r>    7.4863    0.0000 </r>
       <r>    7.4873    0.0000 </r>
       <r>    7.4873    0.0000 </r>
       <r>    7.5085    0.0000 </r>
       <r>    7.8418    0.0000 </r>
       <r>    7.8418    0.0000 </r>
       <r>    7.8428    0.0000 </r>
       <r>    7.8551    0.0000 </r>
       <r>    8.0040    0.0000 </r>
       <r>    8.1257    0.0000 </r>
       <r>    8.1257    0.0000 </r>
       <r>    8.1419    0.0000 </r>
       <r>    8.1454    0.0000 </r>
       <r>    8.1575    0.0000 </r>
       <r>    8.1647    0.0000 </r>
       <r>    8.1647    0.0000 </r>
       <r>    8.2805    0.0000 </r>
       <r>    8.3300    0.0000 </r>
       <r>    8.3478    0.0000 </r>
       <r>    8.3478    0.0000 </r>
       <r>    8.3543    0.0000 </r>
       <r>    8.8315    0.0000 </r>
       <r>    8.8315    0.0000 </r>
       <r>    8.8597    0.0000 </r>
       <r>    8.9940    0.0000 </r>
      </set>
      <set comment="kpoint 5">
       <r>   -5.9285    1.0000 </r>
       <r>   -5.6790    1.0000 </r>
       <r>   -5.4464    1.0000 </r>
       <r>   -5.2288    1.0000 </r>
       <r>   -5.1500    1.0000 </r>
       <r>   -4.7510    1.0000 </r>
       <r>   -4.5383    1.0000 </r>
       <r>   -4.5268    1.0000 </r>
       <r>   -4.3075    1.0000 </r>
       <r>   -4.1438    1.0000 </r>
       <r>   -4.1013    1.0000 </r>
       <r>   -4.0271    1.0000 </r>
       <r>   -3.9648    1.0000 </r>
       <r>   -3.8698    1.0000 </r>
       <r>   -3.6448    1.0000 </r>
       <r>   -3.6425    1.0000 </r>
       <r>   -3.5928    1.0000 </r>
       <r>   -3.4785    1.0000 </r>
       <r>   -3.4255    1.0000 </r>
       <r>   -3.3890    1.0000 </r>
       <r>   -3.3189    1.0000 </r>
       <r>   -3.0140    1.0000 </r>
       <r>   -2.6900    1.0000 </r>
       <r>   -2.6174    1.0000 </r>
       <r>   -2.5469    1.0000 </r>
       <r>   -2.4943    1.0000 </r>
       <r>   -2.2123    1.0000 </r>
       <r>   -1.4673    1.0000 </r>
       <r>   -1.4615    1.0000 </r>
       <r>   -1.4213    1.0000 </r>
       <r>   -1.4103    1.0000 </r>
       <r>   -1.2942    1.0000 </r>
       <r>   -1.1104    1.0000 </r>
       <r>   -1.0173    1.0000 </r>
       <r>   -1.0139    1.0000 </r>
       <r>   -0.9564    1.0000 </r>
       <r>   -0.7093    1.0000 </r>
       <r>   -0.6500    1.0000 </r>
       <r>   -0.6134    1.0000 </r>
       <r>   -0.6097    1.0000 </r>
       <r>   -0.5139    1.0000 </r>
       <r>   -0.3001    1.0000 </r>
       <r>   -0.1452    1.0000 </r>
       <r>    0.0761    1.0000 </r>
       <r>    0.0779    1.0000 </r>
       <r>    0.2236    1.0000 </r>
       <r>    0.7646    1.0000 </r>
       <r>    0.8321    1.0000 </r>
       <r>    0.9366    1.0000 </r>
       <r>    1.6149    1.0000 </r>
       <r>    1.6262    1.0000 </r>
       <r>    1.7257    1.0000 </r>
       <r>    1.7422    1.0000 </r>
       <r>    1.8396    1.0000 </r>
       <r>    1.8437    1.0000 </r>
       <r>    1.9704    1.0000 </r>
       <r>    1.9833    1.0000 </r>
       <r>    2.1353    1.0000 </r>
       <r>    2.1735    1.0000 </r>
       <r>    2.2323    1.0000 </r>
       <r>    2.2526    1.0000 </r>
       <r>    2.2594    1.0000 </r>
       <r>    2.3171    1.0000 </r>
       <r>    2.3349    1.0000 </r>
       <r>    2.4342    1.0000 </r>
       <r>    2.4730    1.0000 </r>
       <r>    2.5395    1.0000 </r>
       <r>    2.6486    1.0000 </r>
       <r>    2.6957    1.0000 </r>
       <r>    2.7296    1.0000 </r>
       <r>    2.7428    1.0000 </r>
       <r>    2.8129    1.0000 </r>
       <r>    2.8315    1.0000 </r>
       <r>    2.8420    1.0000 </r>
       <r>    2.9444    1.0000 </r>
       <r>    2.9478    1.0000 </r>
       <r>    3.0681    1.0000 </r>
       <r>    3.0995    1.0000 </r>
       <r>    3.1004    1.0000 </r>
       <r>    3.1605    1.0000 </r>
       <r>    3.1792    1.0000 </r>
       <r>    3.2090    1.0000 </r>
       <r>    3.4014    1.0000 </r>
       <r>    3.5204    1.0000 </r>
       <r>    3.5492    1.0000 </r>
       <r>    3.5739    1.0000 </r>
       <r>    3.5925    1.0000 </r>
       <r>    3.6493    1.0000 </r>
       <r>    3.7926    1.0000 </r>
       <r>    3.8113    1.0000 </r>
       <r>    3.9019    1.0000 </r>
       <r>    3.9268    1.0000 </r>
       <r>    4.0015    1.0000 </r>
       <r>    4.0630    1.0000 </r>
       <r>    4.0994    1.0000 </r>
       <r>    4.1047    1.0000 </r>
       <r>    4.1689    1.0000 </r>
       <r>    4.2244    1.0000 </r>
       <r>    4.2596    1.0000 </r>
       <r>    4.2786    1.0000 </r>
       <r>    4.4522    1.0000 </r>
       <r>    4.5558    1.0000 </r>
       <r>    4.7275    1.0000 </r>
       <r>    4.8031    1.0000 </r>
       <r>    4.8969    1.0000 </r>
       <r>    5.0471    1.0000 </r>
       <r>    5.2805    1.0000 </r>
       <r>    5.5016    1.0000 </r>
       <r>    6.4890    0.0000 </r>
       <r>    7.0541    0.0000 </r>
       <r>    7.2100    0.0000 </r>
       <r>    7.2149    0.0000 </r>
       <r>    7.2290    0.0000 </r>
       <r>    7.4384    0.0000 </r>
       <r>    7.4635    0.0000 </r>
       <r>    7.4643    0.0000 </r>
       <r>    7.7097    0.0000 </r>
       <r>    7.7665    0.0000 </r>
       <r>    7.8435    0.0000 </r>
       <r>    7.8503    0.0000 </r>
       <r>    7.9329    0.0000 </r>
       <r>    8.0398    0.0000 </r>
       <r>    8.0587    0.0000 </r>
       <r>    8.1146    0.0000 </r>
       <r>    8.2810    0.0000 </r>
       <r>    8.3091    0.0000 </r>
       <r>    8.3345    0.0000 </r>
       <r>    8.3348    0.0000 </r>
       <r>    8.3790    0.0000 </r>
       <r>    8.4050    0.0000 </r>
       <r>    8.4422    0.0000 </r>
       <r>    8.5683    0.0000 </r>
       <r>    8.6628    0.0000 </r>
       <r>    8.6645    0.0000 </r>
       <r>    8.7067    0.0000 </r>
       <r>    8.7110    0.0000 </r>
       <r>    8.7825    0.0000 </r>
       <r>    8.7938    0.0000 </r>
       <r>    8.8775    0.0000 </r>
       <r>    8.9100    0.0000 </r>
       <r>    8.9352    0.0000 </r>
       <r>    8.9467    0.0000 </r>
       <r>    8.9702    0.0000 </r>
       <r>    8.9821    0.0000 </r>
      </set>
      <set comment="kpoint 6">
       <r>   -6.0132    1.0000 </r>
       <r>   -5.5617    1.0000 </r>
       <r>   -5.5034    1.0000 </r>
       <r>   -5.0779    1.0000 </r>
       <r>   -5.0178    1.0000 </r>
       <r>   -4.6875    1.0000 </r>
       <r>   -4.6700    1.0000 </r>
       <r>   -4.6222    1.0000 </r>
       <r>   -4.5110    1.0000 </r>
       <r>   -4.2354    1.0000 </r>
       <r>   -4.1496    1.0000 </r>
       <r>   -4.1201    1.0000 </r>
       <r>   -4.0103    1.0000 </r>
       <r>   -3.8824    1.0000 </r>
       <r>   -3.5852    1.0000 </r>
       <r>   -3.5620    1.0000 </r>
       <r>   -3.5225    1.0000 </r>
       <r>   -3.4127    1.0000 </r>
       <r>   -3.2403    1.0000 </r>
       <r>   -3.1933    1.0000 </r>
       <r>   -3.0749    1.0000 </r>
       <r>   -3.0313    1.0000 </r>
       <r>   -3.0276    1.0000 </r>
       <r>   -2.8213    1.0000 </r>
       <r>   -2.7280    1.0000 </r>
       <r>   -2.4821    1.0000 </r>
       <r>   -2.1484    1.0000 </r>
       <r>   -1.7865    1.0000 </r>
       <r>   -1.2133    1.0000 </r>
       <r>   -1.1607    1.0000 </r>
       <r>   -1.0787    1.0000 </r>
       <r>   -1.0530    1.0000 </r>
       <r>   -1.0266    1.0000 </r>
       <r>   -1.0192    1.0000 </r>
       <r>   -0.9551    1.0000 </r>
       <r>   -0.8891    1.0000 </r>
       <r>   -0.8830    1.0000 </r>
       <r>   -0.8412    1.0000 </r>
       <r>   -0.8270    1.0000 </r>
       <r>   -0.6891    1.0000 </r>
       <r>   -0.6771    1.0000 </r>
       <r>   -0.3887    1.0000 </r>
       <r>    0.2132    1.0000 </r>
       <r>    0.2769    1.0000 </r>
       <r>    0.3225    1.0000 </r>
       <r>    0.4324    1.0000 </r>
       <r>    0.4908    1.0000 </r>
       <r>    0.5082    1.0000 </r>
       <r>    0.6996    1.0000 </r>
       <r>    1.4978    1.0000 </r>
       <r>    1.5021    1.0000 </r>
       <r>    1.7162    1.0000 </r>
       <r>    1.7217    1.0000 </r>
       <r>    1.7543    1.0000 </r>
       <r>    1.7575    1.0000 </r>
       <r>    1.8506    1.0000 </r>
       <r>    1.8822    1.0000 </r>
       <r>    1.9113    1.0000 </r>
       <r>    1.9839    1.0000 </r>
       <r>    2.1180    1.0000 </r>
       <r>    2.1296    1.0000 </r>
       <r>    2.1559    1.0000 </r>
       <r>    2.1785    1.0000 </r>
       <r>    2.3357    1.0000 </r>
       <r>    2.4199    1.0000 </r>
       <r>    2.5786    1.0000 </r>
       <r>    2.5880    1.0000 </r>
       <r>    2.6199    1.0000 </r>
       <r>    2.6307    1.0000 </r>
       <r>    2.7223    1.0000 </r>
       <r>    2.7836    1.0000 </r>
       <r>    2.7875    1.0000 </r>
       <r>    2.8746    1.0000 </r>
       <r>    3.0434    1.0000 </r>
       <r>    3.0689    1.0000 </r>
       <r>    3.1110    1.0000 </r>
       <r>    3.1257    1.0000 </r>
       <r>    3.1430    1.0000 </r>
       <r>    3.2397    1.0000 </r>
       <r>    3.2526    1.0000 </r>
       <r>    3.2942    1.0000 </r>
       <r>    3.3975    1.0000 </r>
       <r>    3.4040    1.0000 </r>
       <r>    3.4463    1.0000 </r>
       <r>    3.5443    1.0000 </r>
       <r>    3.5642    1.0000 </r>
       <r>    3.7336    1.0000 </r>
       <r>    3.7556    1.0000 </r>
       <r>    3.7784    1.0000 </r>
       <r>    3.7830    1.0000 </r>
       <r>    3.8897    1.0000 </r>
       <r>    3.9354    1.0000 </r>
       <r>    4.0779    1.0000 </r>
       <r>    4.1469    1.0000 </r>
       <r>    4.2651    1.0000 </r>
       <r>    4.3645    1.0000 </r>
       <r>    4.3800    1.0000 </r>
       <r>    4.4451    1.0000 </r>
       <r>    4.4544    1.0000 </r>
       <r>    4.4701    1.0000 </r>
       <r>    4.5107    1.0000 </r>
       <r>    4.5428    1.0000 </r>
       <r>    4.6204    1.0000 </r>
       <r>    4.7673    1.0000 </r>
       <r>    4.9128    1.0000 </r>
       <r>    4.9399    1.0000 </r>
       <r>    5.1484    1.0000 </r>
       <r>    5.7095    1.0000 </r>
       <r>    6.6401    0.0000 </r>
       <r>    6.9301    0.0000 </r>
       <r>    6.9431    0.0000 </r>
       <r>    7.1165    0.0000 </r>
       <r>    7.1983    0.0000 </r>
       <r>    7.4197    0.0000 </r>
       <r>    7.4241    0.0000 </r>
       <r>    7.4651    0.0000 </r>
       <r>    7.4731    0.0000 </r>
       <r>    7.6001    0.0000 </r>
       <r>    7.6010    0.0000 </r>
       <r>    7.6454    0.0000 </r>
       <r>    7.6864    0.0000 </r>
       <r>    7.8009    0.0000 </r>
       <r>    7.8128    0.0000 </r>
       <r>    8.0999    0.0000 </r>
       <r>    8.1407    0.0000 </r>
       <r>    8.2444    0.0000 </r>
       <r>    8.2805    0.0000 </r>
       <r>    8.2938    0.0000 </r>
       <r>    8.2964    0.0000 </r>
       <r>    8.3028    0.0000 </r>
       <r>    8.3194    0.0000 </r>
       <r>    8.3947    0.0000 </r>
       <r>    8.4005    0.0000 </r>
       <r>    8.4356    0.0000 </r>
       <r>    8.4398    0.0000 </r>
       <r>    8.6317    0.0000 </r>
       <r>    8.6640    0.0000 </r>
       <r>    8.6731    0.0000 </r>
       <r>    8.9039    0.0000 </r>
       <r>    8.9082    0.0000 </r>
       <r>    8.9300    0.0000 </r>
       <r>    8.9467    0.0000 </r>
       <r>    9.0145    0.0000 </r>
       <r>    9.0648    0.0000 </r>
      </set>
      <set comment="kpoint 7">
       <r>   -5.7938    1.0000 </r>
       <r>   -5.7622    1.0000 </r>
       <r>   -5.3404    1.0000 </r>
       <r>   -5.3158    1.0000 </r>
       <r>   -5.3158    1.0000 </r>
       <r>   -5.1404    1.0000 </r>
       <r>   -4.0314    1.0000 </r>
       <r>   -4.0160    1.0000 </r>
       <r>   -4.0153    1.0000 </r>
       <r>   -4.0153    1.0000 </r>
       <r>   -3.9551    1.0000 </r>
       <r>   -3.9298    1.0000 </r>
       <r>   -3.9298    1.0000 </r>
       <r>   -3.9129    1.0000 </r>
       <r>   -3.8204    1.0000 </r>
       <r>   -3.8012    1.0000 </r>
       <r>   -3.8012    1.0000 </r>
       <r>   -3.7906    1.0000 </r>
       <r>   -3.6931    1.0000 </r>
       <r>   -3.6931    1.0000 </r>
       <r>   -3.6668    1.0000 </r>
       <r>   -3.1142    1.0000 </r>
       <r>   -2.1083    1.0000 </r>
       <r>   -2.1060    1.0000 </r>
       <r>   -2.0236    1.0000 </r>
       <r>   -2.0102    1.0000 </r>
       <r>   -2.0102    1.0000 </r>
       <r>   -1.9867    1.0000 </r>
       <r>   -1.9373    1.0000 </r>
       <r>   -1.9243    1.0000 </r>
       <r>   -1.9243    1.0000 </r>
       <r>   -1.5730    1.0000 </r>
       <r>   -0.9469    1.0000 </r>
       <r>   -0.9469    1.0000 </r>
       <r>   -0.9399    1.0000 </r>
       <r>   -0.9149    1.0000 </r>
       <r>   -0.8005    1.0000 </r>
       <r>   -0.8005    1.0000 </r>
       <r>   -0.7900    1.0000 </r>
       <r>   -0.6477    1.0000 </r>
       <r>    0.0203    1.0000 </r>
       <r>    0.0349    1.0000 </r>
       <r>    0.0349    1.0000 </r>
       <r>    0.0585    1.0000 </r>
       <r>    0.0818    1.0000 </r>
       <r>    0.1945    1.0000 </r>
       <r>    0.1945    1.0000 </r>
       <r>    0.5066    1.0000 </r>
       <r>    1.9583    1.0000 </r>
       <r>    1.9809    1.0000 </r>
       <r>    1.9809    1.0000 </r>
       <r>    2.0236    1.0000 </r>
       <r>    2.0243    1.0000 </r>
       <r>    2.0243    1.0000 </r>
       <r>    2.0341    1.0000 </r>
       <r>    2.0361    1.0000 </r>
       <r>    2.0364    1.0000 </r>
       <r>    2.0364    1.0000 </r>
       <r>    2.0369    1.0000 </r>
       <r>    2.0708    1.0000 </r>
       <r>    2.1294    1.0000 </r>
       <r>    2.1381    1.0000 </r>
       <r>    2.1396    1.0000 </r>
       <r>    2.1396    1.0000 </r>
       <r>    2.1706    1.0000 </r>
       <r>    2.3389    1.0000 </r>
       <r>    2.3389    1.0000 </r>
       <r>    2.3792    1.0000 </r>
       <r>    2.8445    1.0000 </r>
       <r>    2.8445    1.0000 </r>
       <r>    2.9103    1.0000 </r>
       <r>    2.9237    1.0000 </r>
       <r>    2.9378    1.0000 </r>
       <r>    2.9378    1.0000 </r>
       <r>    2.9849    1.0000 </r>
       <r>    2.9974    1.0000 </r>
       <r>    2.9974    1.0000 </r>
       <r>    3.0246    1.0000 </r>
       <r>    3.2625    1.0000 </r>
       <r>    3.2809    1.0000 </r>
       <r>    3.2809    1.0000 </r>
       <r>    3.2924    1.0000 </r>
       <r>    3.3527    1.0000 </r>
       <r>    3.3799    1.0000 </r>
       <r>    3.3873    1.0000 </r>
       <r>    3.3873    1.0000 </r>
       <r>    3.4803    1.0000 </r>
       <r>    3.5872    1.0000 </r>
       <r>    3.5882    1.0000 </r>
       <r>    3.5882    1.0000 </r>
       <r>    3.6984    1.0000 </r>
       <r>    3.8818    1.0000 </r>
       <r>    3.8818    1.0000 </r>
       <r>    3.8887    1.0000 </r>
       <r>    3.8974    1.0000 </r>
       <r>    3.9529    1.0000 </r>
       <r>    3.9595    1.0000 </r>
       <r>    4.1456    1.0000 </r>
       <r>    4.1456    1.0000 </r>
       <r>    4.2347    1.0000 </r>
       <r>    4.5291    1.0000 </r>
       <r>    4.5291    1.0000 </r>
       <r>    4.6408    1.0000 </r>
       <r>    4.6408    1.0000 </r>
       <r>    5.1278    1.0000 </r>
       <r>    5.1539    1.0000 </r>
       <r>    5.3773    1.0000 </r>
       <r>    5.3773    1.0000 </r>
       <r>    6.4240    0.0000 </r>
       <r>    6.4319    0.0000 </r>
       <r>    7.3843    0.0000 </r>
       <r>    7.4143    0.0000 </r>
       <r>    7.6984    0.0000 </r>
       <r>    7.7036    0.0000 </r>
       <r>    7.7036    0.0000 </r>
       <r>    7.7062    0.0000 </r>
       <r>    7.7591    0.0000 </r>
       <r>    7.7591    0.0000 </r>
       <r>    7.9022    0.0000 </r>
       <r>    7.9873    0.0000 </r>
       <r>    8.4218    0.0000 </r>
       <r>    8.4218    0.0000 </r>
       <r>    8.4279    0.0000 </r>
       <r>    8.4288    0.0000 </r>
       <r>    8.4288    0.0000 </r>
       <r>    8.4365    0.0000 </r>
       <r>    8.4380    0.0000 </r>
       <r>    8.4384    0.0000 </r>
       <r>    8.5436    0.0000 </r>
       <r>    8.5528    0.0000 </r>
       <r>    8.5614    0.0000 </r>
       <r>    8.5614    0.0000 </r>
       <r>    8.5999    0.0000 </r>
       <r>    8.6386    0.0000 </r>
       <r>    8.6739    0.0000 </r>
       <r>    8.6739    0.0000 </r>
       <r>    8.7410    0.0000 </r>
       <r>    8.7410    0.0000 </r>
       <r>    8.7665    0.0000 </r>
       <r>    8.9179    0.0000 </r>
       <r>    9.2499    0.0000 </r>
       <r>    9.2629    0.0000 </r>
       <r>    9.2759    0.0000 </r>
[...]
        <r>  0.0013  0.0004  0.0000 </r>
       </set>
       <set comment="band 138">
        <r>  0.0000  0.0000  0.0000 </r>
        <r>  0.0014  0.0057  0.0000 </r>
        <r>  0.0014  0.0057  0.0000 </r>
        <r>  0.0006  0.0017  0.0000 </r>
        <r>  0.0007  0.0060  0.0000 </r>
        <r>  0.0014  0.0057  0.0000 </r>
        <r>  0.0006  0.0017  0.0000 </r>
        <r>  0.0014  0.0057  0.0000 </r>
        <r>  0.0006  0.0003  0.0000 </r>
        <r>  0.0014  0.0057  0.0000 </r>
        <r>  0.0007  0.0059  0.0000 </r>
        <r>  0.0006  0.0017  0.0000 </r>
        <r>  0.0007  0.0060  0.0000 </r>
        <r>  0.0007  0.0059  0.0000 </r>
        <r>  0.0005  0.0002  0.0000 </r>
        <r>  0.0014  0.0057  0.0000 </r>
        <r>  0.0052  0.0009  0.0000 </r>
        <r>  0.0005  0.0002  0.0000 </r>
        <r>  0.0014  0.0057  0.0000 </r>
        <r>  0.0006  0.0017  0.0000 </r>
        <r>  0.0006  0.0003  0.0000 </r>
        <r>  0.0014  0.0057  0.0000 </r>
        <r>  0.0005  0.0002  0.0000 </r>
        <r>  0.0052  0.0009  0.0000 </r>
        <r>  0.0006  0.0003  0.0000 </r>
        <r>  0.0005  0.0002  0.0000 </r>
        <r>  0.0006  0.0003  0.0000 </r>
        <r>  0.0000  0.0003  0.0000 </r>
        <r>  0.0005  0.0013  0.0000 </r>
        <r>  0.0005  0.0013  0.0000 </r>
        <r>  0.0017  0.0023  0.0000 </r>
        <r>  0.0008  0.0005  0.0000 </r>
        <r>  0.0005  0.0013  0.0000 </r>
        <r>  0.0017  0.0023  0.0000 </r>
        <r>  0.0005  0.0013  0.0000 </r>
        <r>  0.0003  0.0042  0.0000 </r>
        <r>  0.0005  0.0013  0.0000 </r>
        <r>  0.0008  0.0005  0.0000 </r>
        <r>  0.0017  0.0023  0.0000 </r>
        <r>  0.0008  0.0005  0.0000 </r>
        <r>  0.0008  0.0005  0.0000 </r>
        <r>  0.0006  0.0089  0.0000 </r>
        <r>  0.0005  0.0013  0.0000 </r>
        <r>  0.0000  0.0043  0.0000 </r>
        <r>  0.0006  0.0089  0.0000 </r>
        <r>  0.0005  0.0013  0.0000 </r>
        <r>  0.0017  0.0023  0.0000 </r>
        <r>  0.0003  0.0042  0.0000 </r>
        <r>  0.0005  0.0013  0.0000 </r>
        <r>  0.0006  0.0089  0.0000 </r>
        <r>  0.0000  0.0043  0.0000 </r>
        <r>  0.0003  0.0042  0.0000 </r>
        <r>  0.0006  0.0089  0.0000 </r>
        <r>  0.0003  0.0042  0.0000 </r>
       </set>
       <set comment="band 139">
        <r>  0.0000  0.0015  0.0000 </r>
        <r>  0.0000  0.0036  0.0000 </r>
        <r>  0.0000  0.0036  0.0000 </r>
        <r>  0.0011  0.0022  0.0000 </r>
        <r>  0.0024  0.0022  0.0000 </r>
        <r>  0.0000  0.0036  0.0000 </r>
        <r>  0.0011  0.0022  0.0000 </r>
        <r>  0.0000  0.0036  0.0000 </r>
        <r>  0.0029  0.0017  0.0000 </r>
        <r>  0.0000  0.0036  0.0000 </r>
        <r>  0.0024  0.0022  0.0000 </r>
        <r>  0.0011  0.0022  0.0000 </r>
        <r>  0.0024  0.0022  0.0000 </r>
        <r>  0.0024  0.0022  0.0000 </r>
        <r>  0.0000  0.0029  0.0000 </r>
        <r>  0.0000  0.0036  0.0000 </r>
        <r>  0.0000  0.0016  0.0000 </r>
        <r>  0.0000  0.0029  0.0000 </r>
        <r>  0.0000  0.0036  0.0000 </r>
        <r>  0.0011  0.0022  0.0000 </r>
        <r>  0.0029  0.0017  0.0000 </r>
        <r>  0.0000  0.0036  0.0000 </r>
        <r>  0.0000  0.0029  0.0000 </r>
        <r>  0.0000  0.0016  0.0000 </r>
        <r>  0.0029  0.0017  0.0000 </r>
        <r>  0.0000  0.0029  0.0000 </r>
        <r>  0.0029  0.0017  0.0000 </r>
        <r>  0.0004  0.0000  0.0000 </r>
        <r>  0.0003  0.0068  0.0000 </r>
        <r>  0.0003  0.0068  0.0000 </r>
        <r>  0.0001  0.0019  0.0000 </r>
        <r>  0.0000  0.0023  0.0000 </r>
        <r>  0.0003  0.0067  0.0000 </r>
        <r>  0.0001  0.0019  0.0000 </r>
        <r>  0.0003  0.0068  0.0000 </r>
        <r>  0.0000  0.0024  0.0000 </r>
        <r>  0.0003  0.0067  0.0000 </r>
        <r>  0.0000  0.0023  0.0000 </r>
        <r>  0.0001  0.0019  0.0000 </r>
        <r>  0.0000  0.0023  0.0000 </r>
        <r>  0.0000  0.0023  0.0000 </r>
        <r>  0.0000  0.0091  0.0000 </r>
        <r>  0.0003  0.0068  0.0000 </r>
        <r>  0.0003  0.0000  0.0000 </r>
        <r>  0.0000  0.0091  0.0000 </r>
        <r>  0.0003  0.0068  0.0000 </r>
        <r>  0.0001  0.0019  0.0000 </r>
        <r>  0.0000  0.0024  0.0000 </r>
        <r>  0.0003  0.0068  0.0000 </r>
        <r>  0.0000  0.0091  0.0000 </r>
        <r>  0.0003  0.0000  0.0000 </r>
        <r>  0.0000  0.0024  0.0000 </r>
        <r>  0.0000  0.0091  0.0000 </r>
        <r>  0.0000  0.0024  0.0000 </r>
       </set>
       <set comment="band 140">
        <r>  0.0000  0.0056  0.0000 </r>
        <r>  0.0002  0.0021  0.0000 </r>
        <r>  0.0002  0.0021  0.0000 </r>
        <r>  0.0002  0.0024  0.0000 </r>
        <r>  0.0004  0.0053  0.0000 </r>
        <r>  0.0002  0.0021  0.0000 </r>
        <r>  0.0002  0.0024  0.0000 </r>
        <r>  0.0002  0.0021  0.0000 </r>
        <r>  0.0002  0.0063  0.0000 </r>
        <r>  0.0002  0.0021  0.0000 </r>
        <r>  0.0004  0.0053  0.0000 </r>
        <r>  0.0002  0.0024  0.0000 </r>
        <r>  0.0004  0.0053  0.0000 </r>
        <r>  0.0004  0.0053  0.0000 </r>
        <r>  0.0017  0.0027  0.0000 </r>
        <r>  0.0002  0.0021  0.0000 </r>
        <r>  0.0000  0.0012  0.0000 </r>
        <r>  0.0017  0.0027  0.0000 </r>
        <r>  0.0002  0.0021  0.0000 </r>
        <r>  0.0002  0.0024  0.0000 </r>
        <r>  0.0002  0.0063  0.0000 </r>
        <r>  0.0002  0.0021  0.0000 </r>
        <r>  0.0017  0.0027  0.0000 </r>
        <r>  0.0000  0.0012  0.0000 </r>
        <r>  0.0002  0.0063  0.0000 </r>
        <r>  0.0017  0.0027  0.0000 </r>
        <r>  0.0002  0.0063  0.0000 </r>
        <r>  0.0000  0.0085  0.0000 </r>
        <r>  0.0000  0.0027  0.0000 </r>
        <r>  0.0000  0.0027  0.0000 </r>
        <r>  0.0020  0.0026  0.0000 </r>
        <r>  0.0002  0.0018  0.0000 </r>
        <r>  0.0000  0.0027  0.0000 </r>
        <r>  0.0020  0.0026  0.0000 </r>
        <r>  0.0000  0.0027  0.0000 </r>
        <r>  0.0024  0.0014  0.0000 </r>
        <r>  0.0000  0.0027  0.0000 </r>
        <r>  0.0002  0.0018  0.0000 </r>
        <r>  0.0020  0.0026  0.0000 </r>
        <r>  0.0002  0.0018  0.0000 </r>
        <r>  0.0002  0.0018  0.0000 </r>
        <r>  0.0000  0.0018  0.0000 </r>
        <r>  0.0000  0.0027  0.0000 </r>
        <r>  0.0000  0.0094  0.0000 </r>
        <r>  0.0000  0.0018  0.0000 </r>
        <r>  0.0000  0.0027  0.0000 </r>
        <r>  0.0020  0.0026  0.0000 </r>
        <r>  0.0024  0.0014  0.0000 </r>
        <r>  0.0000  0.0027  0.0000 </r>
        <r>  0.0000  0.0018  0.0000 </r>
        <r>  0.0000  0.0094  0.0000 </r>
        <r>  0.0024  0.0014  0.0000 </r>
        <r>  0.0000  0.0018  0.0000 </r>
        <r>  0.0024  0.0014  0.0000 </r>
       </set>
       <set comment="band 141">
        <r>  0.0000  0.0000  0.0000 </r>
        <r>  0.0005  0.0064  0.0000 </r>
        <r>  0.0005  0.0064  0.0000 </r>
        <r>  0.0004  0.0037  0.0000 </r>
        <r>  0.0003  0.0066  0.0000 </r>
        <r>  0.0005  0.0064  0.0000 </r>
        <r>  0.0004  0.0037  0.0000 </r>
        <r>  0.0005  0.0064  0.0000 </r>
        <r>  0.0001  0.0034  0.0000 </r>
        <r>  0.0005  0.0064  0.0000 </r>
        <r>  0.0003  0.0066  0.0000 </r>
        <r>  0.0004  0.0037  0.0000 </r>
        <r>  0.0003  0.0066  0.0000 </r>
        <r>  0.0003  0.0066  0.0000 </r>
        <r>  0.0006  0.0094  0.0000 </r>
        <r>  0.0005  0.0064  0.0000 </r>
        <r>  0.0000  0.0007  0.0000 </r>
        <r>  0.0006  0.0094  0.0000 </r>
        <r>  0.0005  0.0064  0.0000 </r>
        <r>  0.0004  0.0037  0.0000 </r>
        <r>  0.0001  0.0033  0.0000 </r>
        <r>  0.0005  0.0064  0.0000 </r>
        <r>  0.0006  0.0094  0.0000 </r>
        <r>  0.0000  0.0007  0.0000 </r>
        <r>  0.0001  0.0034  0.0000 </r>
        <r>  0.0006  0.0094  0.0000 </r>
        <r>  0.0001  0.0034  0.0000 </r>
        <r>  0.0069  0.0000  0.0000 </r>
        <r>  0.0006  0.0032  0.0000 </r>
        <r>  0.0006  0.0032  0.0000 </r>
        <r>  0.0024  0.0042  0.0000 </r>
        <r>  0.0007  0.0021  0.0000 </r>
        <r>  0.0006  0.0032  0.0000 </r>
        <r>  0.0024  0.0042  0.0000 </r>
        <r>  0.0006  0.0032  0.0000 </r>
        <r>  0.0013  0.0038  0.0000 </r>
        <r>  0.0006  0.0032  0.0000 </r>
        <r>  0.0007  0.0021  0.0000 </r>
        <r>  0.0024  0.0042  0.0000 </r>
        <r>  0.0007  0.0021  0.0000 </r>
        <r>  0.0006  0.0021  0.0000 </r>
        <r>  0.0004  0.0033  0.0000 </r>
        <r>  0.0006  0.0032  0.0000 </r>
        <r>  0.0029  0.0001  0.0000 </r>
        <r>  0.0004  0.0033  0.0000 </r>
        <r>  0.0006  0.0032  0.0000 </r>
        <r>  0.0024  0.0043  0.0000 </r>
        <r>  0.0013  0.0038  0.0000 </r>
        <r>  0.0006  0.0032  0.0000 </r>
        <r>  0.0004  0.0033  0.0000 </r>
        <r>  0.0029  0.0001  0.0000 </r>
        <r>  0.0013  0.0038  0.0000 </r>
        <r>  0.0004  0.0033  0.0000 </r>
        <r>  0.0013  0.0038  0.0000 </r>
       </set>
       <set comment="band 142">
        <r>  0.0000  0.0197  0.0000 </r>
        <r>  0.0002  0.0021  0.0000 </r>
        <r>  0.0002  0.0021  0.0000 </r>
        <r>  0.0008  0.0086  0.0000 </r>
        <r>  0.0010  0.0037  0.0000 </r>
        <r>  0.0002  0.0021  0.0000 </r>
        <r>  0.0008  0.0086  0.0000 </r>
        <r>  0.0002  0.0021  0.0000 </r>
        <r>  0.0000  0.0060  0.0000 </r>
        <r>  0.0002  0.0021  0.0000 </r>
        <r>  0.0011  0.0038  0.0000 </r>
        <r>  0.0008  0.0085  0.0000 </r>
        <r>  0.0011  0.0038  0.0000 </r>
        <r>  0.0010  0.0038  0.0000 </r>
        <r>  0.0009  0.0042  0.0000 </r>
        <r>  0.0002  0.0021  0.0000 </r>
        <r>  0.0000  0.0085  0.0000 </r>
        <r>  0.0009  0.0042  0.0000 </r>
        <r>  0.0002  0.0021  0.0000 </r>
        <r>  0.0008  0.0087  0.0000 </r>
        <r>  0.0000  0.0060  0.0000 </r>
        <r>  0.0002  0.0021  0.0000 </r>
        <r>  0.0009  0.0043  0.0000 </r>
        <r>  0.0000  0.0085  0.0000 </r>
        <r>  0.0000  0.0060  0.0000 </r>
        <r>  0.0009  0.0043  0.0000 </r>
        <r>  0.0000  0.0060  0.0000 </r>
        <r>  0.0000  0.0041  0.0000 </r>
        <r>  0.0038  0.0024  0.0000 </r>
        <r>  0.0038  0.0023  0.0000 </r>
        <r>  0.0000  0.0017  0.0000 </r>
        <r>  0.0000  0.0059  0.0000 </r>
        <r>  0.0038  0.0024  0.0000 </r>
        <r>  0.0000  0.0018  0.0000 </r>
        <r>  0.0039  0.0024  0.0000 </r>
        <r>  0.0002  0.0045  0.0000 </r>
        <r>  0.0038  0.0024  0.0000 </r>
        <r>  0.0000  0.0059  0.0000 </r>
        <r>  0.0000  0.0018  0.0000 </r>
        <r>  0.0000  0.0059  0.0000 </r>
        <r>  0.0000  0.0059  0.0000 </r>
        <r>  0.0007  0.0005  0.0000 </r>
        <r>  0.0038  0.0023  0.0000 </r>
        <r>  0.0001  0.0057  0.0000 </r>
        <r>  0.0007  0.0006  0.0000 </r>
        <r>  0.0038  0.0024  0.0000 </r>
        <r>  0.0000  0.0017  0.0000 </r>
        <r>  0.0002  0.0045  0.0000 </r>
        <r>  0.0038  0.0024  0.0000 </r>
        <r>  0.0007  0.0005  0.0000 </r>
        <r>  0.0000  0.0057  0.0000 </r>
        <r>  0.0002  0.0045  0.0000 </r>
        <r>  0.0007  0.0005  0.0000 </r>
        <r>  0.0002  0.0045  0.0000 </r>
       </set>
       <set comment="band 143">
        <r>  0.0102  0.0000  0.0000 </r>
        <r>  0.0008  0.0028  0.0000 </r>
        <r>  0.0008  0.0028  0.0000 </r>
        <r>  0.0039  0.0033  0.0000 </r>
        <r>  0.0004  0.0004  0.0000 </r>
        <r>  0.0008  0.0028  0.0000 </r>
        <r>  0.0040  0.0033  0.0000 </r>
        <r>  0.0008  0.0028  0.0000 </r>
        <r>  0.0005  0.0018  0.0000 </r>
        <r>  0.0008  0.0028  0.0000 </r>
        <r>  0.0004  0.0004  0.0000 </r>
        <r>  0.0039  0.0033  0.0000 </r>
        <r>  0.0004  0.0004  0.0000 </r>
        <r>  0.0004  0.0004  0.0000 </r>
        <r>  0.0015  0.0066  0.0000 </r>
        <r>  0.0008  0.0028  0.0000 </r>
        <r>  0.0017  0.0000  0.0000 </r>
        <r>  0.0015  0.0066  0.0000 </r>
        <r>  0.0008  0.0028  0.0000 </r>
        <r>  0.0040  0.0033  0.0000 </r>
        <r>  0.0005  0.0018  0.0000 </r>
        <r>  0.0008  0.0028  0.0000 </r>
        <r>  0.0015  0.0066  0.0000 </r>
        <r>  0.0017  0.0000  0.0000 </r>
        <r>  0.0004  0.0018  0.0000 </r>
        <r>  0.0015  0.0066  0.0000 </r>
        <r>  0.0005  0.0018  0.0000 </r>
        <r>  0.0000  0.0001  0.0000 </r>
        <r>  0.0003  0.0108  0.0000 </r>
        <r>  0.0003  0.0108  0.0000 </r>
        <r>  0.0003  0.0008  0.0000 </r>
        <r>  0.0002  0.0056  0.0000 </r>
        <r>  0.0003  0.0108  0.0000 </r>
        <r>  0.0003  0.0008  0.0000 </r>
        <r>  0.0003  0.0108  0.0000 </r>
        <r>  0.0009  0.0035  0.0000 </r>
        <r>  0.0003  0.0108  0.0000 </r>
        <r>  0.0001  0.0056  0.0000 </r>
        <r>  0.0003  0.0008  0.0000 </r>
        <r>  0.0002  0.0056  0.0000 </r>
        <r>  0.0002  0.0056  0.0000 </r>
        <r>  0.0001  0.0035  0.0000 </r>
        <r>  0.0003  0.0108  0.0000 </r>
        <r>  0.0000  0.0005  0.0000 </r>
        <r>  0.0001  0.0035  0.0000 </r>
        <r>  0.0003  0.0108  0.0000 </r>
        <r>  0.0003  0.0008  0.0000 </r>
        <r>  0.0009  0.0035  0.0000 </r>
        <r>  0.0003  0.0108  0.0000 </r>
        <r>  0.0001  0.0035  0.0000 </r>
        <r>  0.0000  0.0005  0.0000 </r>
        <r>  0.0009  0.0035  0.0000 </r>
        <r>  0.0001  0.0035  0.0000 </r>
        <r>  0.0009  0.0035  0.0000 </r>
       </set>
       <set comment="band 144">
        <r>  0.0009  0.0080  0.0000 </r>
        <r>  0.0008  0.0035  0.0000 </r>
        <r>  0.0006  0.0044  0.0000 </r>
        <r>  0.0001  0.0073  0.0000 </r>
        <r>  0.0006  0.0073  0.0000 </r>
        <r>  0.0000  0.0029  0.0000 </r>
        <r>  0.0007  0.0069  0.0000 </r>
        <r>  0.0001  0.0023  0.0000 </r>
        <r>  0.0005  0.0034  0.0000 </r>
        <r>  0.0000  0.0021  0.0000 </r>
        <r>  0.0005  0.0104  0.0000 </r>
        <r>  0.0007  0.0057  0.0000 </r>
        <r>  0.0010  0.0092  0.0000 </r>
        <r>  0.0006  0.0094  0.0000 </r>
        <r>  0.0004  0.0035  0.0000 </r>
        <r>  0.0006  0.0044  0.0000 </r>
        <r>  0.0015  0.0043  0.0000 </r>
        <r>  0.0007  0.0075  0.0000 </r>
        <r>  0.0001  0.0030  0.0000 </r>
        <r>  0.0001  0.0058  0.0000 </r>
        <r>  0.0008  0.0028  0.0000 </r>
        <r>  0.0008  0.0041  0.0000 </r>
        <r>  0.0004  0.0076  0.0000 </r>
        <r>  0.0020  0.0042  0.0000 </r>
        <r>  0.0004  0.0021  0.0000 </r>
        <r>  0.0001  0.0034  0.0000 </r>
        <r>  0.0001  0.0036  0.0000 </r>
        <r>  0.0000  0.0002  0.0000 </r>
        <r>  0.0045  0.0028  0.0000 </r>
        <r>  0.0028  0.0033  0.0000 </r>
        <r>  0.0007  0.0027  0.0000 </r>
        <r>  0.0047  0.0002  0.0000 </r>
        <r>  0.0004  0.0019  0.0000 </r>
        <r>  0.0007  0.0028  0.0000 </r>
        <r>  0.0011  0.0020  0.0000 </r>
        <r>  0.0035  0.0045  0.0000 </r>
        <r>  0.0009  0.0018  0.0000 </r>
        <r>  0.0035  0.0005  0.0000 </r>
        <r>  0.0010  0.0030  0.0000 </r>
        <r>  0.0041  0.0007  0.0000 </r>
        <r>  0.0037  0.0004  0.0000 </r>
        <r>  0.0004  0.0029  0.0000 </r>
        <r>  0.0029  0.0032  0.0000 </r>
        <r>  0.0000  0.0048  0.0000 </r>
        <r>  0.0003  0.0019  0.0000 </r>
        <r>  0.0013  0.0024  0.0000 </r>
        <r>  0.0010  0.0029  0.0000 </r>
        <r>  0.0027  0.0048  0.0000 </r>
        <r>  0.0051  0.0035  0.0000 </r>
        <r>  0.0001  0.0022  0.0000 </r>
        <r>  0.0000  0.0046  0.0000 </r>
        <r>  0.0033  0.0048  0.0000 </r>
        <r>  0.0007  0.0022  0.0000 </r>
        <r>  0.0022  0.0044  0.0000 </r>
       </set>
      </set>
     </set>
    </set>
   </array>
  </projected>
 </calculation>
 <structure name="finalpos" >
  <crystal>
   <varray name="basis" >
    <v>       9.97646553       0.00000000       5.75991507 </v>
    <v>       3.32548851       9.40590192       5.75991507 </v>
    <v>       0.00000000       0.00000000      11.51983014 </v>
   </varray>
   <i name="volume">   1080.99386112 </i>
   <varray name="rec_basis" >
    <v>       0.10023590      -0.03543874       0.00000000 </v>
    <v>       0.00000000       0.10631623       0.00000000 </v>
    <v>      -0.05011795      -0.03543874       0.08680684 </v>
   </varray>
  </crystal>
  <varray name="positions" >
   <v>       0.29166667       0.29166667       0.29166667 </v>
   <v>       0.29166667       0.29166667       0.62500000 </v>
   <v>       0.29166667       0.29166667       0.95833333 </v>
   <v>       0.29166667       0.62500000       0.29166667 </v>
   <v>       0.29166667       0.62500000       0.62500000 </v>
   <v>       0.29166667       0.62500000       0.95833333 </v>
   <v>       0.29166667       0.95833333       0.29166667 </v>
   <v>       0.29166667       0.95833333       0.62500000 </v>
   <v>       0.29166667       0.95833333       0.95833333 </v>
   <v>       0.62500000       0.29166667       0.29166667 </v>
   <v>       0.62500000       0.29166667       0.62500000 </v>
   <v>       0.62500000       0.29166667       0.95833333 </v>
   <v>       0.62500000       0.62500000       0.29166667 </v>
   <v>       0.62500000       0.62500000       0.62500000 </v>
   <v>       0.62500000       0.62500000       0.95833333 </v>
   <v>       0.62500000       0.95833333       0.29166667 </v>
   <v>       0.62500000       0.95833333       0.62500000 </v>
   <v>       0.62500000       0.95833333       0.95833333 </v>
   <v>       0.95833333       0.29166667       0.29166667 </v>
   <v>       0.95833333       0.29166667       0.62500000 </v>
   <v>       0.95833333       0.29166667       0.95833333 </v>
   <v>       0.95833333       0.62500000       0.29166667 </v>
   <v>       0.95833333       0.62500000       0.62500000 </v>
   <v>       0.95833333       0.62500000       0.95833333 </v>
   <v>       0.95833333       0.95833333       0.29166667 </v>
   <v>       0.95833333       0.95833333       0.62500000 </v>
   <v>       0.95833333       0.95833333       0.95833333 </v>
   <v>       0.04166667       0.04166667       0.04166667 </v>
   <v>       0.04166667       0.04166667       0.37500000 </v>
   <v>       0.04166667       0.04166667       0.70833333 </v>
   <v>       0.04166667       0.37500000       0.04166667 </v>
   <v>       0.04166667       0.37500000       0.37500000 </v>
   <v>       0.04166667       0.37500000       0.70833333 </v>
   <v>       0.04166667       0.70833333       0.04166667 </v>
   <v>       0.04166667       0.70833333       0.37500000 </v>
   <v>       0.04166667       0.70833333       0.70833333 </v>
   <v>       0.37500000       0.04166667       0.04166667 </v>
   <v>       0.37500000       0.04166667       0.37500000 </v>
   <v>       0.37500000       0.04166667       0.70833333 </v>
   <v>       0.37500000       0.37500000       0.04166667 </v>
   <v>       0.37500000       0.37500000       0.37500000 </v>
   <v>       0.37500000       0.37500000       0.70833333 </v>
   <v>       0.37500000       0.70833333       0.04166667 </v>
   <v>       0.37500000       0.70833333       0.37500000 </v>
   <v>       0.37500000       0.70833333       0.70833333 </v>
   <v>       0.70833333       0.04166667       0.04166667 </v>
   <v>       0.70833333       0.04166667       0.37500000 </v>
   <v>       0.70833333       0.04166667       0.70833333 </v>
   <v>       0.70833333       0.37500000       0.04166667 </v>
   <v>       0.70833333       0.37500000       0.37500000 </v>
   <v>       0.70833333       0.37500000       0.70833333 </v>
   <v>       0.70833333       0.70833333       0.04166667 </v>
   <v>       0.70833333       0.70833333       0.37500000 </v>
   <v>       0.70833333       0.70833333       0.70833333 </v>
  </varray>
 </structure>
</modeling>
