 vasp.5.4.4.18Apr17-6-g9f103f2a35 (build Sep 10 2020 14:01:29) complex          
  
 executed on               LB-5.4 date 2021.06.15  18:32:34
 running on  384 total cores
 distrk:  each k-point on  384 cores,    1 groups
 distr:  one band on NCORES_PER_BAND=   1 cores,  384 groups


--------------------------------------------------------------------------------------------------------


 INCAR:
 POTCAR:    PAW_PBE Na 08Apr2002                  
 POTCAR:    PAW_PBE Nb_pv 08Apr2002               
 POTCAR:    PAW_PBE O 08Apr2002                   

 ----------------------------------------------------------------------------- 
|                                                                             |
|           W    W    AA    RRRRR   N    N  II  N    N   GGGG   !!!           |
|           W    W   A  A   R    R  NN   N  II  NN   N  G    G  !!!           |
|           W    W  A    A  R    R  N N  N  II  N N  N  G       !!!           |
|           W WW W  AAAAAA  RRRRR   N  N N  II  N  N N  G  GGG   !            |
|           WW  WW  A    A  R   R   N   NN  II  N   NN  G    G                |
|           W    W  A    A  R    R  N    N  II  N    N   GGGG   !!!           |
|                                                                             |
|      For optimal performance we recommend to set                            |
|        NCORE= 4 - approx SQRT( number of cores)                             |
|      NCORE specifies how many cores store one orbital (NPAR=cpu/NCORE).     |
|      This setting can  greatly improve the performance of VASP for DFT.     |
|      The default,   NCORE=1            might be grossly inefficient         |
|      on modern multi-core architectures or massively parallel machines.     |
|      Do your own testing !!!!                                               |
|      Unfortunately you need to use the default for GW and RPA calculations. |
|      (for HF NCORE is supported but not extensively tested yet)             |
|                                                                             |
 ----------------------------------------------------------------------------- 

 POTCAR:    PAW_PBE Na 08Apr2002                  
   VRHFIN =Na: s1p0                                                             
   LEXCH  = PE                                                                  
   EATOM  =     5.1581 eV,    0.3791 Ry                                         
                                                                                
   TITEL  = PAW_PBE Na 08Apr2002                                                
   LULTRA =        F    use ultrasoft PP ?                                      
   IUNSCR =        1    unscreen: 0-lin 1-nonlin 2-no                           
   RPACOR =    1.800    partial core radius                                     
   POMASS =   22.990; ZVAL   =    1.000    mass and valenz                      
   RCORE  =    2.200    outmost cutoff radius                                   
   RWIGS  =    3.320; RWIGS  =    1.757    wigner-seitz radius (au A)           
   ENMAX  =  101.968; ENMIN  =   76.476 eV                                      
   ICORE  =        2    local potential                                         
   LCOR   =        T    correct aug charges                                     
   LPAW   =        T    paw PP                                                  
   EAUG   =  250.695                                                            
   DEXC   =    0.000                                                            
   RMAX   =    2.245    core radius for proj-oper                               
   RAUG   =    1.300    factor for augmentation sphere                          
   RDEP   =    2.259    radius for radial grids                                 
   RDEPT  =    2.115    core radius for aug-charge                              
                                                                                
   Atomic configuration                                                         
    6 entries                                                                   
     n  l   j            E        occ.                                          
     1  0  0.50     -1033.6933   2.0000                                         
     2  0  0.50       -56.7526   2.0000                                         
     2  1  1.50       -28.6721   6.0000                                         
     3  0  0.50        -2.7440   1.0000                                         
     3  1  0.50        -1.3606   0.0000                                         
     3  2  1.50        -1.3606   0.0000                                         
   Description                                                                  
     l       E           TYP  RCUT    TYP  RCUT                                 
     0     -2.7439560     23  2.200                                             
     0     27.2116520     23  2.200                                             
     1     -1.3605826     23  2.200                                             
     2     -1.3605826     23  2.200                                             
  local pseudopotential read in
  partial core-charges read in
  partial kinetic energy density read in
  atomic valenz-charges read in
  non local Contribution for L=           0  read in
    real space projection operators read in
  non local Contribution for L=           0  read in
    real space projection operators read in
  non local Contribution for L=           1  read in
    real space projection operators read in
    PAW grid and wavefunctions read in
 
   number of l-projection  operators is LMAX  =           3
   number of lm-projection operators is LMMAX =           5
 
 POTCAR:    PAW_PBE Nb_pv 08Apr2002               
   VRHFIN =Nb: 4p5s4d                                                           
   LEXCH  = PE                                                                  
   EATOM  =  1043.3917 eV,   76.6871 Ry                                         
                                                                                
   TITEL  = PAW_PBE Nb_pv 08Apr2002                                             
   LULTRA =        F    use ultrasoft PP ?                                      
   IUNSCR =        1    unscreen: 0-lin 1-nonlin 2-no                           
   RPACOR =    2.200    partial core radius                                     
   POMASS =   92.000; ZVAL   =   11.000    mass and valenz                      
   RCORE  =    2.750    outmost cutoff radius                                   
   RWIGS  =    2.840; RWIGS  =    1.503    wigner-seitz radius (au A)           
   ENMAX  =  208.608; ENMIN  =  156.456 eV                                      
   RCLOC  =    2.201    cutoff for local pot                                    
   LCOR   =        T    correct aug charges                                     
   LPAW   =        T    paw PP                                                  
   EAUG   =  355.067                                                            
   DEXC   =    0.000                                                            
   RMAX   =    2.804    core radius for proj-oper                               
   RAUG   =    1.300    factor for augmentation sphere                          
   RDEP   =    2.776    radius for radial grids                                 
   RDEPT  =    2.198    core radius for aug-charge                              
                                                                                
   Atomic configuration                                                         
   11 entries                                                                   
     n  l   j            E        occ.                                          
     1  0  0.50    -18805.2456   2.0000                                         
     2  0  0.50     -2630.2869   2.0000                                         
     2  1  1.50     -2348.4045   6.0000                                         
     3  0  0.50      -438.8756   2.0000                                         
     3  1  1.50      -346.7587   6.0000                                         
     3  2  2.50      -196.2559  10.0000                                         
     4  0  0.50       -58.3859   2.0000                                         
     4  1  1.50       -34.5141   6.0000                                         
     4  2  2.50        -3.0408   4.0000                                         
     5  0  0.50        -3.9816   1.0000                                         
     4  3  2.50        -1.3606   0.0000                                         
   Description                                                                  
     l       E           TYP  RCUT    TYP  RCUT                                 
     1    -34.5140617     23  2.600                                             
     1     -1.3605826     23  2.600                                             
     2     -3.0407924     23  2.600                                             
     2     -1.4463597     23  2.600                                             
     0     -3.9816219     23  2.750                                             
     0     20.4087390     23  2.750                                             
  local pseudopotential read in
  partial core-charges read in
  partial kinetic energy density read in
  atomic valenz-charges read in
  non local Contribution for L=           1  read in
    real space projection operators read in
  non local Contribution for L=           1  read in
    real space projection operators read in
  non local Contribution for L=           2  read in
    real space projection operators read in
  non local Contribution for L=           2  read in
    real space projection operators read in
  non local Contribution for L=           0  read in
    real space projection operators read in
  non local Contribution for L=           0  read in
    real space projection operators read in
    PAW grid and wavefunctions read in
 
   number of l-projection  operators is LMAX  =           6
   number of lm-projection operators is LMMAX =          18
 
 POTCAR:    PAW_PBE O 08Apr2002                   
   VRHFIN =O: s2p4                                                              
   LEXCH  = PE                                                                  
   EATOM  =   432.3788 eV,   31.7789 Ry                                         
                                                                                
   TITEL  = PAW_PBE O 08Apr2002                                                 
   LULTRA =        F    use ultrasoft PP ?                                      
   IUNSCR =        1    unscreen: 0-lin 1-nonlin 2-no                           
   RPACOR =    1.200    partial core radius                                     
   POMASS =   16.000; ZVAL   =    6.000    mass and valenz                      
   RCORE  =    1.520    outmost cutoff radius                                   
   RWIGS  =    1.550; RWIGS  =    0.820    wigner-seitz radius (au A)           
   ENMAX  =  400.000; ENMIN  =  300.000 eV                                      
   ICORE  =        2    local potential                                         
   LCOR   =        T    correct aug charges                                     
   LPAW   =        T    paw PP                                                  
   EAUG   =  605.392                                                            
   DEXC   =    0.000                                                            
   RMAX   =    1.553    core radius for proj-oper                               
   RAUG   =    1.300    factor for augmentation sphere                          
   RDEP   =    1.550    radius for radial grids                                 
   RDEPT  =    1.329    core radius for aug-charge                              
                                                                                
   Atomic configuration                                                         
    4 entries                                                                   
     n  l   j            E        occ.                                          
     1  0  0.50      -514.6923   2.0000                                         
     2  0  0.50       -23.9615   2.0000                                         
     2  1  0.50        -9.0305   4.0000                                         
     3  2  1.50        -9.5241   0.0000                                         
   Description                                                                  
     l       E           TYP  RCUT    TYP  RCUT                                 
     0    -23.9615318     23  1.200                                             
     0     -9.5240782     23  1.200                                             
     1     -9.0304911     23  1.520                                             
     1      8.1634956     23  1.520                                             
     2     -9.5240782      7  1.500                                             
  local pseudopotential read in
  partial core-charges read in
  partial kinetic energy density read in
  kinetic energy density of atom read in
  atomic valenz-charges read in
  non local Contribution for L=           0  read in
    real space projection operators read in
  non local Contribution for L=           0  read in
    real space projection operators read in
  non local Contribution for L=           1  read in
    real space projection operators read in
  non local Contribution for L=           1  read in
    real space projection operators read in
    PAW grid and wavefunctions read in
 
   number of l-projection  operators is LMAX  =           4
   number of lm-projection operators is LMMAX =           8
 

 ----------------------------------------------------------------------------- 
|                                                                             |
|  ADVICE TO THIS USER RUNNING 'VASP/VAMP'   (HEAR YOUR MASTER'S VOICE ...):  |
|                                                                             |
|      You have a (more or less) 'large supercell' and for larger cells       |
|      it might be more efficient to use real space projection opertators     |
|      So try LREAL= Auto  in the INCAR   file.                               |
|      Mind:          For very  accurate calculation you might also keep the  |
|      reciprocal projection scheme          (i.e. LREAL=.FALSE.)             |
|                                                                             |
 ----------------------------------------------------------------------------- 

  PAW_PBE Na 08Apr2002                  :
 energy of atom  1       EATOM=   -5.1581
 kinetic energy error for atom=    0.0000 (will be added to EATOM!!)
  PAW_PBE Nb_pv 08Apr2002               :
 energy of atom  2       EATOM=-1043.3917
 kinetic energy error for atom=    0.0009 (will be added to EATOM!!)
  PAW_PBE O 08Apr2002                   :
 energy of atom  3       EATOM= -432.3788
 kinetic energy error for atom=    0.0194 (will be added to EATOM!!)
 
 
 POSCAR: Na32 Nb32 O95                           
  positions in direct lattice
  No initial velocities read in
 exchange correlation table for  LEXCH =        8
   RHO(1)=    0.500       N(1)  =     2000
   RHO(2)=  100.500       N(2)  =     4000

 VTST: version 3.2, (02/03/18)

 CHAIN: initializing optimizer
 
 OPT: Using VASP Conjugate-Gradient optimizer
 CHAIN: Read ICHAIN            0
 
 POSCAR: Na32 Nb32 O95                           
  positions in direct lattice
  No initial velocities read in
 


--------------------------------------------------------------------------------------------------------


 ion  position               nearest neighbor table
   1  0.128  0.126  1.000- 128 2.36  93 2.37  89 2.38 124 2.78 120 2.82 136 2.85  75 2.88  80 2.90
                           137 2.90  33 3.30  38 3.33  49 3.40  55 3.41  53 3.41  51 3.42  37 3.56
   2  0.129  0.626  0.000- 129 2.36  94 2.36  90 2.37 125 2.78 121 2.81 137 2.84 136 2.87  76 2.89
                            79 2.92  34 3.31  37 3.33  54 3.40  50 3.40  56 3.41  52 3.42  38 3.57
   3  0.628  0.125  0.000- 130 2.35  95 2.35  91 2.38 126 2.79 122 2.80 138 2.86 139 2.88  73 2.89
                            78 2.91  35 3.31  40 3.33  51 3.39  55 3.40  53 3.40  49 3.40  36 3.59
   4  0.628  0.626  1.000- 131 2.34  96 2.36  92 2.37 127 2.79 123 2.80 139 2.82 138 2.89  74 2.90
                            77 2.93  36 3.31  39 3.33  52 3.39  54 3.41  56 3.41  50 3.42  40 3.54
   5  0.365  0.368  0.492-  85 2.29 132 2.30 116 2.68 141 2.74 140 2.76 112 2.82  71 2.86  68 2.96
                            97 3.03  61 3.29  45 3.30  42 3.31  63 3.39  57 3.42  41 3.46  13 3.75
   6  0.373  0.889  0.495-  82 2.34  86 2.36 133 2.36 117 2.66 140 2.72  67 2.73 113 2.91  72 3.06
                            41 3.16  64 3.35  62 3.38  46 3.42  60 3.44  58 3.45  45 3.53  42 3.68
   7  0.874  0.379  0.494-  87 2.33  83 2.39 134 2.50 118 2.68  66 2.80 143 2.83 142 2.84 114 2.87
                            69 3.01  44 3.23  59 3.25  61 3.34  63 3.40  57 3.45  47 3.52  43 3.56
   8  0.867  0.868  0.496-  88 2.31 135 2.32  84 2.36 119 2.74 115 2.75 143 2.77  65 2.88  70 2.96
                           142 3.02 100 3.08  48 3.28  64 3.34  43 3.34  62 3.41  60 3.41  44 3.49
   9  0.370  0.375  0.001- 136 2.34  73 2.35  77 2.36 104 2.75 108 2.80 128 2.86  96 2.89 129 2.89
                            91 2.94  54 3.31  49 3.33  33 3.39  35 3.40  37 3.40  39 3.42  53 3.57
  10  0.371  0.876  0.001- 137 2.34  74 2.36  78 2.37 105 2.77 129 2.84 128 2.86 109 2.87  95 2.88
                            92 2.95  53 3.30  50 3.35  34 3.40  36 3.41  40 3.41  38 3.41  49 3.57
  11  0.871  0.377  0.001- 138 2.35  75 2.36  79 2.37 106 2.76 131 2.84 130 2.87  94 2.87 110 2.89
                            89 2.92  56 3.29  51 3.35  35 3.38  33 3.40  37 3.42  39 3.42  52 3.57
  12  0.870  0.875  0.000- 139 2.35  76 2.36  80 2.37 107 2.77 111 2.79 131 2.87 130 2.87  93 2.90
                            90 2.93  55 3.31  52 3.32  40 3.39  36 3.39  34 3.42  38 3.42  51 3.58
  13  0.134  0.129  0.495- 140 2.32  65 2.36  69 2.39  97 2.68 101 2.78 132 2.80  87 2.86 133 2.91
                            84 3.02  61 3.25  41 3.33  47 3.36  58 3.39  45 3.41  43 3.42  62 3.58
  14  0.130  0.623  0.497-  66 2.33  70 2.39 141 2.45  98 2.67 102 2.83 132 2.85  88 2.88 133 2.89
                            83 2.93  62 3.30  57 3.32  42 3.37  46 3.39  44 3.40  48 3.45  61 3.54
  15  0.627  0.122  0.498-  67 2.33 142 2.34  71 2.46  99 2.76 103 2.76 135 2.83  82 2.86  85 2.90
                           134 2.99  60 3.28  63 3.36  41 3.39  43 3.39  45 3.40  59 3.50  47 3.53
  16  0.632  0.627  0.499- 143 2.33  72 2.37  68 2.38 100 2.74  81 2.74 134 2.78 135 2.83  86 2.88
                            64 3.28  44 3.37  48 3.39  42 3.42  46 3.56  63 3.58  59 3.59  60 3.60
  17  0.130  0.100  0.249- 145 2.45 124 2.50 154 2.51  97 2.51 105 2.64 117 2.65  93 2.67  65 2.75
                            34 3.34  62 3.36  41 3.38  53 3.38  55 3.41  43 3.43  33 3.54  61 3.55
  18  0.130  0.601  0.250- 144 2.44 155 2.49 125 2.49  98 2.55 104 2.66 116 2.67  94 2.70  66 2.70
                            61 3.34  33 3.35  54 3.38  42 3.40  44 3.42  56 3.42  34 3.54  62 3.55
  19  0.630  0.100  0.250- 147 2.45 152 2.48 126 2.50  99 2.55 107 2.65 119 2.65  95 2.69  67 2.70
                            36 3.35  64 3.35  55 3.38  43 3.39  41 3.41  53 3.42  35 3.55  63 3.56
  20  0.630  0.600  0.249- 146 2.45 127 2.49 153 2.50 100 2.51 106 2.64  68 2.65 118 2.68  96 2.68
                            63 3.33  35 3.35  56 3.38  44 3.39  42 3.41  54 3.41  36 3.53  64 3.55
  21  0.132  0.152  0.753- 148 2.42 120 2.48 101 2.48 158 2.51 108 2.58  89 2.64 112 2.67  69 2.69
                            37 3.30  49 3.35  57 3.36  47 3.38  45 3.41  51 3.42  38 3.55  58 3.57
  22  0.122  0.649  0.755- 159 2.43 149 2.47 121 2.48  90 2.57 109 2.60 102 2.60  70 2.68 113 2.80
                            38 3.31  52 3.32  48 3.38  46 3.39  50 3.40  58 3.41  37 3.51  57 3.57
  23  0.627  0.142  0.758- 122 2.40 156 2.44 103 2.49  91 2.57 110 2.57 150 2.62 114 2.86  71 2.88
                            59 3.27  51 3.32  49 3.33  39 3.35  40 3.43  45 3.45  60 3.51  47 3.62
  24  0.629  0.649  0.749-  81 2.42 157 2.45 151 2.46 123 2.50  72 2.65  92 2.66 111 2.67 115 2.70
                            40 3.35  60 3.37  48 3.39  52 3.40  50 3.43  46 3.44  39 3.54  59 3.68
  25  0.370  0.350  0.249- 152 2.45 146 2.49 104 2.50 116 2.52 124 2.63  97 2.66  73 2.68  85 2.69
                            41 3.34  53 3.34  33 3.37  61 3.39  35 3.41  63 3.42  54 3.54  42 3.56
  26  0.370  0.850  0.249- 153 2.45 147 2.48 105 2.49 117 2.52 125 2.64  74 2.67  98 2.72  86 2.72
                            54 3.34  42 3.36  34 3.38  62 3.40  36 3.41  64 3.41  53 3.54  41 3.55
  27  0.869  0.350  0.250- 154 2.45 106 2.49 144 2.50 118 2.51 126 2.64  99 2.67  75 2.69  87 2.70
                            55 3.34  43 3.35  35 3.38  63 3.39  61 3.41  33 3.42  56 3.54  44 3.55
  28  0.870  0.850  0.250- 155 2.45 107 2.50 145 2.50 119 2.54 127 2.64 100 2.66  76 2.69  88 2.70
                            56 3.34  44 3.34  36 3.38  64 3.40  34 3.42  62 3.43  55 3.55  43 3.56
  29  0.365  0.396  0.757- 108 2.40 157 2.40 150 2.43 112 2.50 121 2.55  77 2.62 102 2.68 148 3.09
                            37 3.29  50 3.30  39 3.38  57 3.40  49 3.46  46 3.53  45 3.54  59 3.78
  30  0.373  0.906  0.755- 156 2.39 113 2.46 151 2.47 109 2.48 120 2.56  78 2.57  82 2.73 101 2.76
                            49 3.24  40 3.35  45 3.37  38 3.38  60 3.44  58 3.44  46 3.50  50 3.57
  31  0.882  0.401  0.757- 148 2.38 159 2.40 114 2.47 110 2.48  79 2.52 123 2.65  83 2.71  81 2.87
                            59 3.25  37 3.25  52 3.27  57 3.39  48 3.42  39 3.44  51 3.50  47 3.77
  32  0.868  0.897  0.754- 111 2.43 158 2.45 149 2.45 115 2.48 122 2.60  80 2.66 103 2.76  84 2.79
                            47 3.31  51 3.33  40 3.34  38 3.39  60 3.40  58 3.48  52 3.49  48 3.53
  33  0.121  0.361  0.125- 124 1.90  75 1.90 144 2.00 136 2.01  94 2.18 104 2.20   1 3.30  18 3.35
                            25 3.37   9 3.39  11 3.40  27 3.42  17 3.54   2 3.58
  34  0.122  0.861  0.125-  76 1.90 125 1.90 145 2.02 137 2.02  93 2.18 105 2.19   2 3.31  17 3.34
                            26 3.38  10 3.40  28 3.42  12 3.42  18 3.54   1 3.60
  35  0.622  0.361  0.124-  73 1.90 126 1.90 146 2.02 138 2.02  96 2.18 106 2.19   3 3.31  20 3.35
                            11 3.38  27 3.38   9 3.40  25 3.41  19 3.55   4 3.59
  36  0.621  0.861  0.126- 127 1.90  74 1.90 147 2.01 139 2.01  95 2.18 107 2.19   4 3.31  19 3.35
                            28 3.38  12 3.39  10 3.41  26 3.41  20 3.53   3 3.59
  37  0.122  0.388  0.876-  79 1.90 121 1.90 136 1.99 148 2.02  89 2.18 108 2.19  31 3.25  29 3.29
                            21 3.30   2 3.33   9 3.40  11 3.42  22 3.51   1 3.56
  38  0.121  0.889  0.875-  80 1.89 120 1.90 137 1.99 149 2.04  90 2.17 109 2.22  22 3.31   1 3.33
                            30 3.38  32 3.39  10 3.41  12 3.42  21 3.55   2 3.57
  39  0.621  0.389  0.874- 123 1.89  77 1.89 138 1.99 150 2.07  91 2.17 110 2.20   4 3.33  23 3.35
                            29 3.38  11 3.42   9 3.42  31 3.44  24 3.54   3 3.59
  40  0.621  0.887  0.875-  78 1.90 122 1.90 139 1.99 151 2.02  92 2.17 111 2.18   3 3.33  32 3.34
                            30 3.35  24 3.35  12 3.39  10 3.41  23 3.43   4 3.54
  41  0.378  0.112  0.373-  67 1.90 117 1.90 152 1.99 140 2.03  85 2.17  97 2.18   6 3.16  13 3.33
                            25 3.34  17 3.38  15 3.39  19 3.41   5 3.46  26 3.55
  42  0.380  0.611  0.375-  68 1.89 116 1.90 153 1.99 141 2.09  86 2.16  98 2.17   5 3.31  26 3.36
                            14 3.37  18 3.40  20 3.41  16 3.42  25 3.56   6 3.68
  43  0.878  0.111  0.375-  65 1.90 119 1.90 154 1.99 142 2.04  87 2.17  99 2.20   8 3.34  27 3.35
                            19 3.39  15 3.39  13 3.42  17 3.43  28 3.56   7 3.56
  44  0.878  0.611  0.374- 118 1.90  66 1.90 155 2.00 143 2.01  88 2.17 100 2.19   7 3.23  28 3.34
                            16 3.37  20 3.39  14 3.40  18 3.42   8 3.49  27 3.55
  45  0.380  0.143  0.625- 112 1.89  71 1.92 156 1.99 140 2.00  82 2.18 101 2.24   5 3.30  30 3.37
                            15 3.40  13 3.41  21 3.41  23 3.45   6 3.53  29 3.54
  46  0.371  0.651  0.629- 113 1.84  72 1.89 157 1.96 141 1.98 102 2.17  14 3.39  22 3.39   6 3.42
                            24 3.44  30 3.50  29 3.53  16 3.56   5 3.85
  47  0.891  0.125  0.623-  69 1.88  84 1.97 158 1.98 142 1.99 114 2.11 103 2.21  32 3.31  13 3.36
                            21 3.38   7 3.52   8 3.53  15 3.53  23 3.62  31 3.77
  48  0.879  0.641  0.625-  70 1.89 115 1.90 159 2.00 143 2.00  83 2.20  81 2.26   8 3.28  22 3.38
                            24 3.39  16 3.39  31 3.42  14 3.45  32 3.53   7 3.62
  49  0.378  0.138  0.876- 108 1.90  91 1.90 128 1.99 156 2.03  78 2.17 120 2.19  30 3.24   9 3.33
                            23 3.33  21 3.35   1 3.40   3 3.40  29 3.46  10 3.57
  50  0.377  0.637  0.874- 109 1.90  92 1.90 129 1.98 157 2.10  77 2.17 121 2.18  29 3.30  10 3.35
                            22 3.40   2 3.40   4 3.42  24 3.43  30 3.57   9 3.58
  51  0.876  0.139  0.875-  89 1.90 110 1.90 130 1.99 158 2.04 122 2.18  80 2.19  23 3.32  32 3.33
                            11 3.35   3 3.39   1 3.42  21 3.42  31 3.50  12 3.58
  52  0.877  0.639  0.875- 111 1.90  90 1.90 131 1.99 159 2.01  79 2.18 123 2.20  31 3.27  22 3.32
                            12 3.32   4 3.39  24 3.40   2 3.42  32 3.49  11 3.57
  53  0.378  0.111  0.125-  95 1.90 105 1.90 152 2.00 128 2.01  73 2.18 124 2.20  10 3.30  25 3.34
                            17 3.38   3 3.40   1 3.41  19 3.42  26 3.54   9 3.57
  54  0.378  0.612  0.125- 104 1.90  96 1.90 153 2.01 129 2.03  74 2.16 125 2.19   9 3.31  26 3.34
                            18 3.38   2 3.40   4 3.41  20 3.41  25 3.54  10 3.57
  55  0.878  0.111  0.125- 107 1.90  93 1.90 154 2.01 130 2.02  75 2.17 126 2.19  12 3.31  27 3.34
                            19 3.38   3 3.40   1 3.41  17 3.41  28 3.55  11 3.59
  56  0.878  0.611  0.125-  94 1.90 106 1.90 155 2.01 131 2.01  76 2.18 127 2.19  11 3.29  28 3.34
                            20 3.38   2 3.41   4 3.41  18 3.42  27 3.54  12 3.58
  57  0.123  0.390  0.625-  83 1.89 102 1.92 132 2.00 148 2.00 112 2.18  69 2.21  14 3.32  21 3.36
                            31 3.39  29 3.40   5 3.42   7 3.45  22 3.57  13 3.59
  58  0.123  0.891  0.626- 101 1.88  84 1.96 149 1.98 133 1.99 113 2.13  70 2.20  13 3.39  22 3.41
                            30 3.44   6 3.45  32 3.48   8 3.51  21 3.57  14 3.65
  59  0.653  0.369  0.630- 114 1.85  81 1.89 150 1.97 134 1.98  71 2.13  31 3.25   7 3.25  23 3.27
                            15 3.50  16 3.59  24 3.68  29 3.78   5 3.86
  60  0.622  0.892  0.626- 103 1.90  82 1.91 151 1.99 135 2.00 115 2.20  72 2.24  15 3.28  24 3.37
                            32 3.40   8 3.41  30 3.44   6 3.44  23 3.51  16 3.60
  61  0.121  0.362  0.374-  87 1.90  97 1.90 144 1.99 132 2.02  66 2.16 116 2.19  13 3.25   5 3.29
                            18 3.34   7 3.34  25 3.39  27 3.41  14 3.54  17 3.55
  62  0.122  0.861  0.375-  88 1.90  98 1.91 145 1.99 133 2.03  65 2.18 117 2.19  14 3.30  17 3.36
                             6 3.38  26 3.40   8 3.41  28 3.43  18 3.55  13 3.58
  63  0.620  0.363  0.374-  99 1.89  85 1.90 146 1.98 134 2.07  68 2.15 118 2.18  20 3.33  15 3.36
                             5 3.39  27 3.39   7 3.40  25 3.42  19 3.56  16 3.58
  64  0.620  0.860  0.375- 100 1.90  86 1.91 147 2.00 135 2.01  67 2.17 119 2.20  16 3.28   8 3.34
                             6 3.35  19 3.35  28 3.40  26 3.41  15 3.54  20 3.55
  65  0.019  0.022  0.396-  43 1.90  62 2.18  13 2.36  17 2.75   8 2.88
  66  0.021  0.522  0.393-  44 1.90  61 2.16  14 2.33  18 2.70   7 2.80
  67  0.519  0.022  0.393-  41 1.90  64 2.17  15 2.33  19 2.70   6 2.73
  68  0.523  0.525  0.391-  42 1.89  63 2.15  16 2.38  20 2.65   5 2.96
  69  0.024  0.223  0.608-  47 1.88  57 2.21  13 2.39  21 2.69   7 3.01
  70  0.024  0.725  0.608-  48 1.89  58 2.20  14 2.39  22 2.68   8 2.96
  71  0.518  0.240  0.606-  45 1.92  59 2.13  15 2.46   5 2.86  23 2.88
  72  0.521  0.723  0.608-  46 1.89  60 2.24  16 2.37  24 2.65   6 3.06
  73  0.479  0.273  0.107-  35 1.90  53 2.18   9 2.35  25 2.68   3 2.89
  74  0.478  0.773  0.107-  36 1.90  54 2.16  10 2.36  26 2.67   4 2.90
  75  0.979  0.273  0.107-  33 1.90  55 2.17  11 2.36  27 2.69   1 2.88
  76  0.979  0.773  0.107-  34 1.90  56 2.18  12 2.36  28 2.69   2 2.89
  77  0.478  0.475  0.893-  39 1.89  50 2.17   9 2.36  29 2.62   4 2.93
  78  0.479  0.976  0.892-  40 1.90  49 2.17  10 2.37  30 2.57   3 2.91
  79  0.978  0.476  0.892-  37 1.90  52 2.18  11 2.37  31 2.52   2 2.92
  80  0.980  0.977  0.893-  38 1.89  51 2.19  12 2.37  32 2.66   1 2.90
  81  0.721  0.520  0.643-  59 1.89  48 2.26  24 2.42  16 2.74  31 2.87
  82  0.479  0.980  0.607-  60 1.91  45 2.18   6 2.34  30 2.73  15 2.86
  83  0.979  0.476  0.608-  57 1.89  48 2.20   7 2.39  31 2.71  14 2.93
  84  0.973  0.973  0.602-  58 1.96  47 1.97   8 2.36  32 2.79  13 3.02
  85  0.479  0.273  0.392-  63 1.90  41 2.17   5 2.29  25 2.69  15 2.90
  86  0.478  0.772  0.395-  64 1.91  42 2.16   6 2.36  26 2.72  16 2.88
  87  0.980  0.272  0.392-  61 1.90  43 2.17   7 2.33  27 2.70  13 2.86
  88  0.980  0.772  0.393-  62 1.90  44 2.17   8 2.31  28 2.70  14 2.88
  89  0.019  0.227  0.892-  51 1.90  37 2.18   1 2.38  21 2.64  11 2.92
  90  0.021  0.726  0.892-  52 1.90  38 2.17   2 2.37  22 2.57  12 2.93
  91  0.521  0.226  0.891-  49 1.90  39 2.17   3 2.38  23 2.57   9 2.94
  92  0.520  0.725  0.890-  50 1.90  40 2.17   4 2.37  24 2.66  10 2.95
  93  0.020  0.023  0.107-  55 1.90  34 2.18   1 2.37  17 2.67  12 2.90
  94  0.020  0.523  0.106-  56 1.90  33 2.18   2 2.36  18 2.70  11 2.87
  95  0.521  0.023  0.107-  53 1.90  36 2.18   3 2.35  19 2.69  10 2.88
  96  0.521  0.523  0.107-  54 1.90  35 2.18   4 2.36  20 2.68   9 2.89
  97  0.229  0.233  0.356-  61 1.90  41 2.18  17 2.51  25 2.66  13 2.68   5 3.03
  98  0.229  0.731  0.362-  62 1.91  42 2.17  18 2.55  14 2.67  26 2.72
  99  0.728  0.236  0.360-  63 1.89  43 2.20  19 2.55  27 2.67  15 2.76
 100  0.728  0.733  0.357-  64 1.90  44 2.19  20 2.51  28 2.66  16 2.74   8 3.08
 101  0.222  0.023  0.643-  58 1.88  45 2.24  21 2.48  30 2.76  13 2.78
 102  0.233  0.517  0.644-  57 1.92  46 2.17  22 2.60  29 2.68  14 2.83
 103  0.724  0.023  0.643-  60 1.90  47 2.21  23 2.49  32 2.76  15 2.76
 104  0.272  0.484  0.142-  54 1.90  33 2.20  25 2.50  18 2.66   9 2.75
 105  0.271  0.983  0.143-  53 1.90  34 2.19  26 2.49  17 2.64  10 2.77
 106  0.771  0.483  0.143-  56 1.90  35 2.19  27 2.49  20 2.64  11 2.76
 107  0.771  0.983  0.143-  55 1.90  36 2.19  28 2.50  19 2.65  12 2.77
 108  0.270  0.265  0.857-  49 1.90  37 2.19  29 2.40  21 2.58   9 2.80
 109  0.271  0.764  0.851-  50 1.90  38 2.22  30 2.48  22 2.60  10 2.87
 110  0.769  0.265  0.852-  51 1.90  39 2.20  31 2.48  23 2.57  11 2.89
 111  0.771  0.766  0.856-  52 1.90  40 2.18  32 2.43  24 2.67  12 2.79
 112  0.272  0.269  0.644-  45 1.89  57 2.18  29 2.50  21 2.67   5 2.82
 113  0.274  0.780  0.648-  46 1.84  58 2.13  30 2.46  22 2.80   6 2.91
 114  0.784  0.273  0.649-  59 1.85  47 2.11  31 2.47  23 2.86   7 2.87
 115  0.775  0.771  0.643-  48 1.90  60 2.20  32 2.48  24 2.70   8 2.75
 116  0.273  0.483  0.358-  42 1.90  61 2.19  25 2.52  18 2.67   5 2.68
 117  0.271  0.984  0.357-  41 1.90  62 2.19  26 2.52  17 2.65   6 2.66
 118  0.772  0.482  0.358-  44 1.90  63 2.18  27 2.51   7 2.68  20 2.68
 119  0.770  0.984  0.359-  43 1.90  64 2.20  28 2.54  19 2.65   8 2.74
 120  0.229  0.015  0.855-  38 1.90  49 2.19  21 2.48  30 2.56   1 2.82
 121  0.228  0.516  0.855-  37 1.90  50 2.18  22 2.48  29 2.55   2 2.81
 122  0.729  0.015  0.857-  40 1.90  51 2.18  23 2.40  32 2.60   3 2.80
 123  0.727  0.516  0.856-  39 1.89  52 2.20  24 2.50  31 2.65   4 2.80
 124  0.228  0.234  0.144-  33 1.90  53 2.20  17 2.50  25 2.63   1 2.78
 125  0.228  0.733  0.143-  34 1.90  54 2.19  18 2.49  26 2.64   2 2.78
 126  0.728  0.234  0.143-  35 1.90  55 2.19  19 2.50  27 2.64   3 2.79
 127  0.728  0.733  0.144-  36 1.90  56 2.19  20 2.49  28 2.64   4 2.79
 128  0.339  0.125  1.000-  49 1.99  53 2.01   1 2.36  10 2.86   9 2.86
 129  0.340  0.627  0.998-  50 1.98  54 2.03   2 2.36  10 2.84   9 2.89
 130  0.839  0.126  0.999-  51 1.99  55 2.02   3 2.35  11 2.87  12 2.87
 131  0.838  0.625  1.000-  52 1.99  56 2.01   4 2.34  11 2.84  12 2.87
 132  0.159  0.374  0.500-  57 2.00  61 2.02   5 2.30  13 2.80  14 2.85
 133  0.162  0.875  0.502-  58 1.99  62 2.03   6 2.36  14 2.89  13 2.91
 134  0.650  0.384  0.504-  59 1.98  63 2.07   7 2.50  16 2.78  15 2.99
 135  0.659  0.875  0.500-  60 2.00  64 2.01   8 2.32  15 2.83  16 2.83
 136  0.161  0.375  1.000-  37 1.99  33 2.01   9 2.34   1 2.85   2 2.87
 137  0.161  0.873  0.999-  38 1.99  34 2.02  10 2.34   2 2.84   1 2.90
 138  0.660  0.374  0.998-  39 1.99  35 2.02  11 2.35   3 2.86   4 2.89
 139  0.659  0.873  1.000-  40 1.99  36 2.01  12 2.35   4 2.82   3 2.88
 140  0.342  0.127  0.500-  45 2.00  41 2.03  13 2.32   6 2.72   5 2.76
 141  0.349  0.608  0.507-  46 1.98  42 2.09  14 2.45   5 2.74
 142  0.836  0.132  0.502-  47 1.99  43 2.04  15 2.34   7 2.84   8 3.02
 143  0.841  0.626  0.500-  48 2.00  44 2.01  16 2.33   8 2.77   7 2.83
 144  0.090  0.390  0.250-  61 1.99  33 2.00  18 2.44  27 2.50
 145  0.091  0.887  0.251-  62 1.99  34 2.02  17 2.45  28 2.50
 146  0.590  0.389  0.250-  63 1.98  35 2.02  20 2.45  25 2.49
 147  0.589  0.888  0.250-  64 2.00  36 2.01  19 2.45  26 2.48
 148  0.091  0.361  0.750-  57 2.00  37 2.02  31 2.38  21 2.42  29 3.09
 149  0.086  0.864  0.748-  58 1.98  38 2.04  32 2.45  22 2.47
 150  0.580  0.367  0.746-  59 1.97  39 2.07  29 2.43  23 2.62
 151  0.589  0.862  0.749-  60 1.99  40 2.02  24 2.46  30 2.47
 152  0.411  0.139  0.250-  41 1.99  53 2.00  25 2.45  19 2.48
 153  0.409  0.638  0.251-  42 1.99  54 2.01  26 2.45  20 2.50
 154  0.908  0.138  0.251-  43 1.99  55 2.01  27 2.45  17 2.51
 155  0.910  0.639  0.250-  44 2.00  56 2.01  28 2.45  18 2.49
 156  0.411  0.112  0.749-  45 1.99  49 2.03  30 2.39  23 2.44
 157  0.415  0.601  0.745-  46 1.96  50 2.10  29 2.40  24 2.45
 158  0.911  0.108  0.749-  47 1.98  51 2.04  32 2.45  21 2.51
 159  0.909  0.610  0.750-  48 2.00  52 2.01  31 2.40  22 2.43
 
  LATTYP: Found a simple orthorhombic cell.
 ALAT       =    11.1480910000
 B/A-ratio  =     1.0195506118
 C/A-ratio  =     1.3988882940
  
  Lattice vectors:
  
 A1 = (  11.1480910000,   0.0000000000,   0.0000000000)
 A2 = (   0.0000000000,  11.3660430000,   0.0000000000)
 A3 = (   0.0000000000,   0.0000000000,  15.5949340000)


Analysis of symmetry for initial positions (statically):
=====================================================================
 Subroutine PRICEL returns:
 Original cell was already a primitive cell.
 

 Routine SETGRP: Setting up the symmetry group for a 
 simple orthorhombic supercell.


 Subroutine GETGRP returns: Found  1 space group operations
 (whereof  1 operations were pure point group operations)
 out of a pool of  8 trial point group operations.


The static configuration has the point symmetry C_1 .


Analysis of symmetry for dynamics (positions and initial velocities):
=====================================================================
 Subroutine PRICEL returns:
 Original cell was already a primitive cell.
 

 Routine SETGRP: Setting up the symmetry group for a 
 simple orthorhombic supercell.


 Subroutine GETGRP returns: Found  1 space group operations
 (whereof  1 operations were pure point group operations)
 out of a pool of  8 trial point group operations.


The dynamic configuration has the point symmetry C_1 .


 Subroutine INISYM returns: Found  1 space group operations
 (whereof  1 operations are pure point group operations),
 and found     1 'primitive' translations

 
 
 KPOINTS: pymatgen with grid density = 1000 / numb

Automatic generation of k-mesh.
Space group operators:
 irot       det(A)        alpha          n_x          n_y          n_z        tau_x        tau_y        tau_z
    1     1.000000     0.000001     1.000000     0.000000     0.000000     0.000000     0.000000     0.000000
 
 Subroutine IBZKPT returns following result:
 ===========================================
 
 Found      8 irreducible k-points:
 
 Following reciprocal coordinates:
            Coordinates               Weight
  0.000000  0.000000  0.000000      1.000000
  0.500000  0.000000  0.000000      1.000000
  0.000000  0.500000  0.000000      1.000000
  0.500000  0.500000  0.000000      1.000000
  0.000000  0.000000  0.500000      1.000000
  0.500000  0.000000  0.500000      1.000000
  0.000000  0.500000  0.500000      1.000000
  0.500000  0.500000  0.500000      1.000000
 
 Following cartesian coordinates:
            Coordinates               Weight
  0.000000  0.000000  0.000000      1.000000
  0.044851  0.000000  0.000000      1.000000
  0.000000  0.043991  0.000000      1.000000
  0.044851  0.043991  0.000000      1.000000
  0.000000  0.000000  0.032062      1.000000
  0.044851  0.000000  0.032062      1.000000
  0.000000  0.043991  0.032062      1.000000
  0.044851  0.043991  0.032062      1.000000
 


--------------------------------------------------------------------------------------------------------




 Dimension of arrays:
   k-points           NKPTS =      8   k-points in BZ     NKDIM =      8   number of bands    NBANDS=    768
   number of dos      NEDOS =    301   number of ions     NIONS =    159
   non local maximal  LDIM  =      6   non local SUM 2l+1 LMDIM =     18
   total plane-waves  NPLWV = 403200
   max r-space proj   IRMAX =      1   max aug-charges    IRDMAX=  12761
   dimension x,y,z NGX =    64 NGY =   70 NGZ =   90
   dimension x,y,z NGXF=   128 NGYF=  140 NGZF=  180
   support grid    NGXF=   128 NGYF=  140 NGZF=  180
   ions per type =              32  32  95
   NGX,Y,Z   is equivalent  to a cutoff of   9.54, 10.24,  9.59 a.u.
   NGXF,Y,Z  is equivalent  to a cutoff of  19.09, 20.48, 19.19 a.u.

 SYSTEM =  Na32nb32o95                             
 POSCAR =  Na32 Nb32 O95                           

 Startparameter for this run:
   NWRITE =      2    write-flag & timer
   PREC   = normal    normal or accurate (medium, high low for compatibility)
   ISTART =      1    job   : 0-new  1-cont  2-samecut
   ICHARG =      0    charge: 1-file 2-atom 10-const
   ISPIN  =      1    spin polarized calculation?
   LNONCOLLINEAR =      F non collinear calculations
   LSORBIT =      F    spin-orbit coupling
   INIWAV =      1    electr: 0-lowe 1-rand  2-diag
   LASPH  =      F    aspherical Exc in radial PAW
   METAGGA=      F    non-selfconsistent MetaGGA calc.

 Electronic Relaxation 1
   ENCUT  =  550.0 eV  40.42 Ry    6.36 a.u.  21.32 21.73 29.82*2*pi/ulx,y,z
   ENINI  =  550.0     initial cutoff
   ENAUG  =  605.4 eV  augmentation charge cutoff
   NELM   =    200;   NELMIN=  2; NELMDL=  0     # of ELM steps 
   EDIFF  = 0.1E-03   stopping-criterion for ELM
   LREAL  =      F    real-space projection
   NLSPLINE    = F    spline interpolate recip. space projectors
   LCOMPAT=      F    compatible to vasp.4.4
   GGA_COMPAT  = T    GGA compatible to vasp.4.4-vasp.4.6
   LMAXPAW     = -100 max onsite density
   LMAXMIX     =    2 max onsite mixed and CHGCAR
   VOSKOWN=      0    Vosko Wilk Nusair interpolation
   ROPT   =    0.00000   0.00000   0.00000
 Ionic relaxation
   EDIFFG = -.5E-01   stopping-criterion for IOM
   NSW    =      0    number of steps for IOM
   NBLOCK =      1;   KBLOCK =      1    inner block; outer block 
   IBRION =     -1    ionic relax: 0-MD 1-quasi-New 2-CG
   NFREE  =      1    steps in history (QN), initial steepest desc. (CG)
   ISIF   =      2    stress and relaxation
   IWAVPR =     10    prediction:  0-non 1-charg 2-wave 3-comb
   ISYM   =      2    0-nonsym 1-usesym 2-fastsym
   LCORR  =      T    Harris-Foulkes like correction to forces

   POTIM  = 0.5000    time-step for ionic-motion
   TEIN   =    0.0    initial temperature
   TEBEG  =    0.0;   TEEND  =   0.0 temperature during run
   SMASS  =  -3.00    Nose mass-parameter (am)
   estimated Nose-frequenzy (Omega)   =  0.10E-29 period in steps =****** mass=  -0.284E-26a.u.
   SCALEE = 1.0000    scale energy and forces
   NPACO  =    256;   APACO  = 16.0  distance and # of slots for P.C.
   PSTRESS=    0.0 pullay stress

  Mass of Ions in am
   POMASS =  22.99 92.00 16.00
  Ionic Valenz
   ZVAL   =   1.00 11.00  6.00
  Atomic Wigner-Seitz radii
   RWIGS  =  -1.00 -1.00 -1.00
  virtual crystal weights 
   VCA    =   1.00  1.00  1.00
   NELECT =     952.0000    total number of electrons
   NUPDOWN=      -1.0000    fix difference up-down

 DOS related values:
   EMIN   =  10.00;   EMAX   =-10.00  energy-range for DOS
   EFERMI =   0.00
   ISMEAR =     0;   SIGMA  =   0.05  broadening in eV -4-tet -1-fermi 0-gaus

 Electronic relaxation 2 (details)
   IALGO  =     38    algorithm
   LDIAG  =      T    sub-space diagonalisation (order eigenvalues)
   LSUBROT=      F    optimize rotation matrix (better conditioning)
   TURBO    =      0    0=normal 1=particle mesh
   IRESTART =      0    0=no restart 2=restart with 2 vectors
   NREBOOT  =      0    no. of reboots
   NMIN     =      0    reboot dimension
   EREF     =   0.00    reference energy to select bands
   IMIX   =      4    mixing-type and parameters
     AMIX     =   0.20;   BMIX     =  1.00
     AMIX_MAG =   0.80;   BMIX_MAG =  1.00
     AMIN     =   0.10
     WC   =   100.;   INIMIX=   1;  MIXPRE=   1;  MAXMIX= -45

 Intra band minimization:
   WEIMIN = 0.0000     energy-eigenvalue tresh-hold
   EBREAK =  0.33E-07  absolut break condition
   DEPER  =   0.30     relativ break condition  

   TIME   =   0.40     timestep for ELM

  volume/ion in A,a.u.               =      12.43        83.87
  Fermi-wavevector in a.u.,A,eV,Ry     =   1.283382  2.425241 22.409748  1.647070
  Thomas-Fermi vector in A             =   2.415638
 
 Write flags
   LWAVE        =      T    write WAVECAR
   LDOWNSAMPLE  =      F    k-point downsampling of WAVECAR
   LCHARG       =      T    write CHGCAR
   LVTOT        =      F    write LOCPOT, total local potential
   LVHAR        =      F    write LOCPOT, Hartree potential only
   LELF         =      F    write electronic localiz. function (ELF)
   LORBIT       =     10    0 simple, 1 ext, 2 COOP (PROOUT), +10 PAW based schemes


 Dipole corrections
   LMONO  =      F    monopole corrections only (constant potential shift)
   LDIPOL =      F    correct potential (dipole corrections)
   IDIPOL =      0    1-x, 2-y, 3-z, 4-all directions 
   EPSILON=  1.0000000 bulk dielectric constant

 Exchange correlation treatment:
   GGA     =    --    GGA type
   LEXCH   =     8    internal setting for exchange type
   VOSKOWN=      0    Vosko Wilk Nusair interpolation
   LHFCALC =     F    Hartree Fock is set to
   LHFONE  =     F    Hartree Fock one center treatment
   AEXX    =    0.0000 exact exchange contribution

 Linear response parameters
   LEPSILON=     F    determine dielectric tensor
   LRPA    =     F    only Hartree local field effects (RPA)
   LNABLA  =     F    use nabla operator in PAW spheres
   LVEL    =     F    velocity operator in full k-point grid
   LINTERFAST=   F  fast interpolation
   KINTER  =     0    interpolate to denser k-point grid
   CSHIFT  =0.1000    complex shift for real part using Kramers Kronig
   OMEGAMAX=  -1.0    maximum frequency
   DEG_THRESHOLD= 0.2000000E-02 threshold for treating states as degnerate
   RTIME   =   -0.100 relaxation time in fs
  (WPLASMAI=    0.000 imaginary part of plasma frequency in eV, 0.658/RTIME)
   DFIELD  = 0.0000000 0.0000000 0.0000000 field for delta impulse in time
 
 Orbital magnetization related:
   ORBITALMAG=     F  switch on orbital magnetization
   LCHIMAG   =     F  perturbation theory with respect to B field
   DQ        =  0.001000  dq finite difference perturbation B field
   LLRAUG    =     F  two centre corrections for induced B field



--------------------------------------------------------------------------------------------------------


 Static calculation
 charge density and potential will be updated during run
 non-spin polarized calculation
 Variant of blocked Davidson
 Davidson routine will perform the subspace rotation
 perform sub-space diagonalisation
    after iterative eigenvector-optimisation
 modified Broyden-mixing scheme, WC =      100.0
 initial mixing is a Kerker type mixing with AMIX =  0.2000 and BMIX =      1.0000
 Hartree-type preconditioning will be used
 using additional bands          292
 reciprocal scheme for non local part
 use partial core corrections
 calculate Harris-corrections to forces 
   (improved forces if not selfconsistent)
 use gradient corrections 
 use of overlap-Matrix (Vanderbilt PP)
 Gauss-broadening in eV      SIGMA  =   0.05


--------------------------------------------------------------------------------------------------------


  energy-cutoff  :      550.00
  volume of cell :     1976.03
      direct lattice vectors                 reciprocal lattice vectors
    11.148091000  0.000000000  0.000000000     0.089701457  0.000000000  0.000000000
     0.000000000 11.366043000  0.000000000     0.000000000  0.087981367  0.000000000
     0.000000000  0.000000000 15.594934000     0.000000000  0.000000000  0.064123388

  length of vectors
    11.148091000 11.366043000 15.594934000     0.089701457  0.087981367  0.064123388


 
 old parameters found on file WAVECAR:
  energy-cutoff  :      550.00
  volume of cell :     1976.03
      direct lattice vectors                 reciprocal lattice vectors
    11.148091000  0.000000000  0.000000000     0.089701457  0.000000000  0.000000000
     0.000000000 11.366043000  0.000000000     0.000000000  0.087981367  0.000000000
     0.000000000  0.000000000 15.594934000     0.000000000  0.000000000  0.064123388

  length of vectors

 
 k-points in units of 2pi/SCALE and weight: pymatgen with grid density = 1000 / numb
   0.00000000  0.00000000  0.00000000       0.125
   0.04485073  0.00000000  0.00000000       0.125
   0.00000000  0.04399068  0.00000000       0.125
   0.04485073  0.04399068  0.00000000       0.125
   0.00000000  0.00000000  0.03206169       0.125
   0.04485073  0.00000000  0.03206169       0.125
   0.00000000  0.04399068  0.03206169       0.125
   0.04485073  0.04399068  0.03206169       0.125
 
 k-points in reciprocal lattice and weights: pymatgen with grid density = 1000 / numb
   0.00000000  0.00000000  0.00000000       0.125
   0.50000000  0.00000000  0.00000000       0.125
   0.00000000  0.50000000  0.00000000       0.125
   0.50000000  0.50000000  0.00000000       0.125
   0.00000000  0.00000000  0.50000000       0.125
   0.50000000  0.00000000  0.50000000       0.125
   0.00000000  0.50000000  0.50000000       0.125
   0.50000000  0.50000000  0.50000000       0.125
 
 position of ions in fractional coordinates (direct lattice) 
   0.12810600  0.12641300  0.99999800
   0.12866100  0.62556500  0.00036200
   0.62818000  0.12473000  0.00003300
   0.62823500  0.62639600  0.99959100
   0.36542700  0.36849800  0.49219600
   0.37285200  0.88930800  0.49493000
   0.87384000  0.37897000  0.49428600
   0.86711400  0.86844700  0.49587800
   0.37043500  0.37470400  0.00120200
   0.37129100  0.87552800  0.00074800
   0.87054300  0.37671700  0.00115300
   0.87005900  0.87526100  0.00032500
   0.13416700  0.12933400  0.49534700
   0.13019200  0.62316500  0.49702100
   0.62666100  0.12170000  0.49804000
   0.63212100  0.62721700  0.49906500
   0.12976400  0.09988600  0.24923700
   0.13019400  0.60058300  0.24968100
   0.63022700  0.10024200  0.24989900
   0.62995400  0.60039600  0.24921800
   0.13168700  0.15202700  0.75309100
   0.12237400  0.64907100  0.75482300
   0.62709200  0.14160400  0.75759000
   0.62914500  0.64854200  0.74858300
   0.36962500  0.35037800  0.24858400
   0.36986700  0.85048500  0.24929600
   0.86940800  0.35046400  0.24955400
   0.86977600  0.85021000  0.24968400
   0.36525900  0.39580000  0.75727600
   0.37274900  0.90551600  0.75498700
   0.88163000  0.40075300  0.75725500
   0.86833200  0.89663700  0.75416400
   0.12137700  0.36071600  0.12507100
   0.12163700  0.86071800  0.12506200
   0.62168000  0.36110700  0.12441500
   0.62145500  0.86056100  0.12556200
   0.12150200  0.38844200  0.87555600
   0.12136600  0.88865900  0.87508000
   0.62059400  0.38886800  0.87419500
   0.62132800  0.88709200  0.87513900
   0.37825200  0.11198000  0.37337200
   0.37967300  0.61083000  0.37491500
   0.87775700  0.11124500  0.37539300
   0.87847400  0.61098900  0.37445200
   0.37952500  0.14294900  0.62526100
   0.37059200  0.65093900  0.62871200
   0.89105400  0.12471800  0.62281200
   0.87932300  0.64129200  0.62535400
   0.37769100  0.13814300  0.87550800
   0.37719400  0.63707300  0.87410800
   0.87628200  0.13867300  0.87467000
   0.87716900  0.63878900  0.87530800
   0.37843400  0.11063600  0.12510500
   0.37834300  0.61151900  0.12489100
   0.87778500  0.11102000  0.12510100
   0.87813900  0.61072500  0.12519900
   0.12296700  0.39034800  0.62526700
   0.12335300  0.89097600  0.62571300
   0.65282800  0.36893300  0.63030800
   0.62196700  0.89164600  0.62550000
   0.12118400  0.36158000  0.37380500
   0.12187200  0.86081100  0.37543200
   0.62045100  0.36287600  0.37396600
   0.62048400  0.86031700  0.37484500
   0.01854900  0.02154800  0.39574300
   0.02072500  0.52199100  0.39295500
   0.51894800  0.02151700  0.39287900
   0.52341300  0.52478400  0.39091100
   0.02447200  0.22307800  0.60752600
   0.02425100  0.72504500  0.60791400
   0.51839100  0.23952700  0.60583200
   0.52073800  0.72301400  0.60776000
   0.47926200  0.27324600  0.10663300
   0.47840700  0.77289200  0.10748600
   0.97893300  0.27255800  0.10701200
   0.97907800  0.77320400  0.10680800
   0.47751300  0.47500600  0.89276000
   0.47862200  0.97609000  0.89202500
   0.97848500  0.47644000  0.89247800
   0.97985900  0.97696800  0.89318400
   0.72071500  0.52032600  0.64344200
   0.47862200  0.97975200  0.60688700
   0.97938700  0.47590000  0.60771900
   0.97285700  0.97347800  0.60193400
   0.47904300  0.27294500  0.39172600
   0.47760400  0.77211200  0.39498900
   0.97998400  0.27196800  0.39224300
   0.98001200  0.77212400  0.39303900
   0.01863000  0.22727100  0.89174800
   0.02089900  0.72624800  0.89167200
   0.52136000  0.22571900  0.89066800
   0.52043500  0.72492000  0.88963100
   0.02043200  0.02301100  0.10731800
   0.02046200  0.52291500  0.10646400
   0.52064700  0.02274400  0.10666100
   0.52059300  0.52337500  0.10651100
   0.22854200  0.23342300  0.35643400
   0.22914100  0.73124000  0.36210000
   0.72810700  0.23569100  0.35999800
   0.72812400  0.73308300  0.35704000
   0.22246500  0.02259700  0.64277700
   0.23332700  0.51707800  0.64377900
   0.72449000  0.02253600  0.64345400
   0.27172300  0.48384500  0.14219600
   0.27139400  0.98336500  0.14325700
   0.77119600  0.48307900  0.14325900
   0.77100500  0.98335100  0.14304400
   0.27012500  0.26505800  0.85694700
   0.27144000  0.76400100  0.85148600
   0.76889300  0.26487800  0.85160400
   0.77088600  0.76635000  0.85630000
   0.27227600  0.26901300  0.64410400
   0.27389500  0.77991400  0.64788500
   0.78445100  0.27339800  0.64906700
   0.77474100  0.77076600  0.64273900
   0.27269400  0.48285900  0.35763500
   0.27059400  0.98381500  0.35716500
   0.77227900  0.48224800  0.35798000
   0.76998200  0.98400500  0.35851000
   0.22931200  0.01506100  0.85518100
   0.22846700  0.51592100  0.85531300
   0.72895600  0.01472900  0.85675600
   0.72726000  0.51574600  0.85564000
   0.22833200  0.23350900  0.14360800
   0.22828900  0.73314200  0.14348600
   0.72817100  0.23361200  0.14323100
   0.72833500  0.73333800  0.14391700
   0.33938000  0.12498000  0.99960200
   0.33996400  0.62725900  0.99799800
   0.83856100  0.12604900  0.99922900
   0.83837700  0.62466800  0.99972000
   0.15938800  0.37440400  0.50027400
   0.16161100  0.87524400  0.50175700
   0.64969500  0.38355200  0.50406000
   0.65880200  0.87495000  0.50045500
   0.16072700  0.37481000  0.99973500
   0.16142700  0.87344600  0.99914100
   0.66015400  0.37408000  0.99836900
   0.65916400  0.87300100  0.99973900
   0.34179600  0.12688300  0.50012600
   0.34907100  0.60804400  0.50690700
   0.83628300  0.13197800  0.50177200
   0.84111200  0.62572400  0.50031200
   0.08971400  0.38997100  0.24969800
   0.09111900  0.88744100  0.25100100
   0.58962800  0.38864700  0.25003100
   0.58869400  0.88833400  0.25046700
   0.09095000  0.36120100  0.74974100
   0.08574700  0.86351000  0.74839600
   0.58037400  0.36670800  0.74570400
   0.58944200  0.86166900  0.74927700
   0.41146100  0.13911900  0.24962100
   0.40879700  0.63815900  0.25067700
   0.90804500  0.13809300  0.25089700
   0.91039200  0.63875200  0.25006600
   0.41068900  0.11222500  0.74876700
   0.41460100  0.60090500  0.74511500
   0.91110200  0.10758100  0.74853600
   0.90854900  0.61017200  0.74981300
 
 position of ions in cartesian coordinates  (Angst):
   1.42813735  1.43681559 15.59490281
   1.43432454  7.11019869  0.00564537
   7.00300780  1.41768654  0.00051463
   7.00362095  7.11964387 15.58855567
   4.07381345  4.18836411  7.67576414
   4.15658803 10.10791297  7.71840068
   9.74164784  4.30738932  7.70835755
   9.66666578  9.87080595  7.73318468
   4.12964309  4.25890178  0.01874511
   4.13918586  9.95128890  0.01166501
   9.70489258  4.28178162  0.01798096
   9.69949691  9.94825416  0.00506835
   1.49570593  1.47001581  7.72490377
   1.45139226  7.08292019  7.75100969
   6.98607385  1.38324743  7.76690093
   7.04694243  7.12897539  7.78288574
   1.44662088  1.13530857  3.88683457
   1.45141456  6.82625220  3.89375872
   7.02582795  1.13935488  3.89715841
   7.02278452  6.82412675  3.88653826
   1.46805866  1.72794542 11.74440444
   1.36423649  7.37736890 11.77141487
   6.99087868  1.60947715 11.81456605
   7.01376571  7.37135626 11.67410248
   4.12061314  3.98241141  3.87665107
   4.12331097  9.66664908  3.88775467
   9.69223950  3.98338889  3.89177816
   9.69634200  9.66352342  3.89380550
   4.07194057  4.49867982 11.80966924
   4.15543977 10.29213379 11.77397244
   9.82849147  4.55497583 11.80934175
   9.68024415 10.19121470 11.76113781
   1.35312184  4.09991357  1.95047399
   1.35602034  9.78295780  1.95033364
   6.93054521  4.10435769  1.94024371
   6.92803689  9.78117333  1.95813110
   1.35451535  4.41504848 13.65423803
   1.35299921 10.10053641 13.64681484
   6.91843839  4.41989041 13.63301333
   6.92662108 10.08272582 13.64773495
   4.21678772  1.27276950  5.82271170
   4.23262915  6.94272005  5.84677468
   9.78531491  1.26441545  5.85422906
   9.79330809  6.94452725  5.83955423
   4.23097924  1.62476448  9.75090403
   4.13139334  7.39860066  9.80472215
   9.93355108  1.41755015  9.71271203
   9.80277282  7.28895245  9.75235436
   4.21053364  1.57013928 13.65348948
   4.20499304  7.24099911 13.63165657
   9.76887148  1.57616328 13.64042092
   9.77875983  7.26050324 13.65037049
   4.21881667  1.25749353  1.95100422
   4.21780219  6.95055125  1.94766690
   9.78562706  1.26185809  1.95094184
   9.78957348  6.94152661  1.95247014
   1.37084731  4.43671215  9.75099760
   1.37515047 10.12687153  9.75795294
   7.27778595  4.19330834  9.82961166
   6.93374471 10.13448678  9.75463122
   1.35097026  4.10973383  5.82946430
   1.35864015  9.78401484  5.85483726
   6.91684421  4.12446422  5.83197509
   6.91721210  9.77840002  5.84568304
   0.20678594  0.24491549  6.17158597
   0.23104419  5.93297215  6.12810729
   5.78527953  0.24456315  6.12692207
   5.83505575  5.96471751  6.09623124
   0.27281608  2.53551414  9.47432787
   0.27035235  8.24089265  9.48037871
   5.77907004  2.72247418  9.44791006
   5.80523461  8.21780821  9.47797709
   5.34285639  3.10572579  1.66293460
   5.33332477  8.78472371  1.67623708
  10.91323417  3.09790595  1.66884508
  10.91485064  8.78826991  1.66566371
   5.32335838  5.39893862 13.92253328
   5.33572161 11.09428091 13.91107100
  10.90823982  5.41523753 13.91813551
  10.92355730 11.10426030 13.92914553
   8.03459641  5.91404769 10.03443552
   5.33572161 11.13590336  9.46436271
  10.91829540  5.40909986  9.47733770
  10.84549837 11.06459281  9.38712100
   5.34041496  3.10230461  6.10894112
   5.32437285  8.77585819  6.15982739
  10.92495081  3.09119998  6.11700370
  10.92526296  8.77599459  6.12941726
   0.20768894  2.58317196 13.90675120
   0.23298395  8.25456600 13.90556599
   5.81216872  2.56553186 13.88990868
   5.80185674  8.23947189 13.87373673
   0.22777780  0.26154402  1.67361713
   0.22811224  5.94347438  1.66029905
   5.80422013  0.25850928  1.66337126
   5.80361814  5.94870276  1.66103202
   2.54780701  2.65309586  5.55856471
   2.55448472  8.31130528  5.64692560
   8.11700309  2.67887404  5.61414505
   8.11719261  8.33225290  5.56801524
   2.48006006  0.25683847 10.02406489
   2.60115063  5.87713078 10.03969102
   8.07668045  0.25614515 10.03462266
   3.02919273  5.49940308  2.21753724
   3.02552501 11.17696887  2.23408346
   8.59736319  5.49069669  2.23411465
   8.59523390 11.17680975  2.23076174
   3.01137808  3.01266063 13.36403191
   3.02603782  8.68366822 13.27886797
   8.57168913  3.01061474 13.28070817
   8.59390728  8.71036705 13.35394198
   3.03535763  3.05761333 10.04475937
   3.05340638  8.86453606 10.10372381
   8.74513113  3.10745342 10.12215703
   8.63688317  8.76055950 10.02347228
   3.04001753  5.48819616  5.57729422
   3.01660654 11.18208359  5.56996460
   8.60943657  5.48125150  5.58267447
   8.58382940 11.18424314  5.59093979
   2.55639104  0.17118397 13.33649125
   2.54697091  5.86398027 13.33854978
   8.12646782  0.16741045 13.36105327
   8.10756066  5.86199121 13.34364933
   2.54546591  2.65407333  2.23955728
   2.54498655  8.33292350  2.23765470
   8.11771657  2.65524404  2.23367799
   8.11954486  8.33515124  2.24437612
   3.78343912  1.42052805 15.58872722
   3.78994961  7.12945277 15.56371294
   9.34835434  1.43267835 15.58291031
   9.34630309  7.10000335 15.59056742
   1.77687193  4.25549196  7.80174001
   1.80165413  9.94806094  7.82486730
   7.24285898  4.35946852  7.86078243
   7.34438465  9.94471932  7.80456269
   1.79179922  4.26010658 15.59080134
   1.79960289  9.92762479 15.58153795
   7.35945687  4.25180937 15.56949866
   7.34842026  9.92256691 15.59086372
   3.81037291  1.44215763  7.79943196
   3.89147527  6.91105425  7.90518121
   9.32295899  1.50006762  7.82510122
   9.37679312  7.11200589  7.80233262
   1.00013984  4.43242715  3.89402383
   1.01580290 10.08669257  3.91434403
   6.57322660  4.41737851  3.89921694
   6.56281428 10.09684244  3.90601633
   1.01391888  4.10542610 11.69216141
   0.95591536  9.81469179 11.67118623
   6.47006217  4.16801890 11.62920466
   6.57115306  9.79376691 11.68492536
   4.58700467  1.58123254  3.89282302
   4.55730616  7.25334263  3.90929127
  10.12296829  1.56957098  3.91272216
  10.14913286  7.26008270  3.89976277
   4.57839834  1.27555418 11.67697195
   4.62200968  6.82991207 11.62001925
  10.15704801  1.22277027 11.67336952
  10.12858693  6.93524119 11.69328425
 


--------------------------------------------------------------------------------------------------------


 k-point  1 :   0.0000 0.0000 0.0000  plane waves:   57915
 k-point  2 :   0.5000 0.0000 0.0000  plane waves:   57894
 k-point  3 :   0.0000 0.5000 0.0000  plane waves:   57824
 k-point  4 :   0.5000 0.5000 0.0000  plane waves:   57888
 k-point  5 :   0.0000 0.0000 0.5000  plane waves:   57896
 k-point  6 :   0.5000 0.0000 0.5000  plane waves:   57840
 k-point  7 :   0.0000 0.5000 0.5000  plane waves:   57928
 k-point  8 :   0.5000 0.5000 0.5000  plane waves:   57880

 maximum and minimum number of plane-waves per node :     57928    57824

 maximum number of plane-waves:     57928
 maximum index in each direction: 
   IXMAX=   21   IYMAX=   21   IZMAX=   29
   IXMIN=  -21   IYMIN=  -22   IZMIN=  -30


 serial   3D FFT for wavefunctions
 parallel 3D FFT for charge:
    minimum data exchange during FFTs selected (reduces bandwidth)


 total amount of memory used by VASP MPI-rank0   415932. kBytes
=======================================================================

   base      :      30000. kBytes
   nonl-proj :     347904. kBytes
   fftplans  :       2494. kBytes
   grid      :      17825. kBytes
   one-center:       2472. kBytes
   wavefun   :      15237. kBytes
 
     INWAV:  cpu time   18.8098: real time   19.2317
 Broyden mixing: mesh for mixing (old mesh)
   NGX = 43   NGY = 43   NGZ = 59
  (NGX  =128   NGY  =140   NGZ  =180)
  gives a total of 109091 points

 charge density for first step will be calculated from the start-wavefunctions


--------------------------------------------------------------------------------------------------------


 Maximum index for augmentation-charges          214 (set IRDMAX)


--------------------------------------------------------------------------------------------------------


 initial charge from wavefunction
 First call to EWALD:  gamma=   0.141
 Maximum number of real-space cells 3x 3x 2
 Maximum number of reciprocal cells 2x 3x 3

    FEWALD:  cpu time    0.1001: real time    0.1010


--------------------------------------- Iteration      1(   1)  ---------------------------------------


    POTLOK:  cpu time    0.5558: real time    0.6389
    SETDIJ:  cpu time    0.0313: real time    0.0319
     EDDAV:  cpu time   82.0068: real time   82.5813
       DOS:  cpu time    0.3517: real time    0.3568
    CHARGE:  cpu time    0.2528: real time    0.2742
    MIXING:  cpu time    0.2075: real time    0.2104
    --------------------------------------------
      LOOP:  cpu time   83.4060: real time   84.0935

 eigenvalue-minimisations  : 12288
 total energy-change (2. order) :-0.1434921E+04  (-0.3943904E+03)
 number of electron     951.9999965 magnetization 
 augmentation part      187.7523463 magnetization 

 Broyden mixing:
  rms(total) = 0.73832E+01    rms(broyden)= 0.73818E+01
  rms(prec ) = 0.97508E+01
  weight for this iteration     100.00

 Free energy of the ion-electron system (eV)
  ---------------------------------------------------
  alpha Z        PSCENC =      3958.29392442
  Ewald energy   TEWEN  =    -50844.20763261
  -Hartree energ DENC   =    -23696.07022979
  -exchange      EXHF   =         0.00000000
  -V(xc)+E(xc)   XCENC  =      2364.33505559
  PAW double counting   =    115963.26572257  -114625.10015767
  entropy T*S    EENTRO =        -0.02285914
  eigenvalues    EBANDS =     -9183.12565548
  atomic energy  EATOM  =     74627.71039806
  Solvation  Ediel_sol  =         0.00000000
  ---------------------------------------------------
  free energy    TOTEN  =     -1434.92143405 eV

  energy without entropy =    -1434.89857491  energy(sigma->0) =    -1434.91000448


--------------------------------------------------------------------------------------------------------




--------------------------------------- Iteration      1(   2)  ---------------------------------------


    POTLOK:  cpu time    0.4057: real time    0.4074
    SETDIJ:  cpu time    0.0084: real time    0.0084
     EDDAV:  cpu time  114.5256: real time  115.6080
       DOS:  cpu time    0.0037: real time    0.0037
    CHARGE:  cpu time    0.2144: real time    0.2159
    MIXING:  cpu time    0.1701: real time    0.1715
    --------------------------------------------
      LOOP:  cpu time  115.3279: real time  116.4149

 eigenvalue-minimisations  : 15360
 total energy-change (2. order) : 0.1058327E+03  (-0.1163223E+03)
 number of electron     951.9999987 magnetization 
 augmentation part      187.5911176 magnetization 

 Broyden mixing:
  rms(total) = 0.51621E+01    rms(broyden)= 0.51614E+01
  rms(prec ) = 0.58971E+01
  weight for this iteration     100.00

 eigenvalues of (default mixing * dielectric matrix)
  average eigenvalue GAMMA=   0.8826
  0.8826

 Free energy of the ion-electron system (eV)
  ---------------------------------------------------
  alpha Z        PSCENC =      3958.29392442
  Ewald energy   TEWEN  =    -50844.20763261
  -Hartree energ DENC   =    -23674.00502505
  -exchange      EXHF   =         0.00000000
  -V(xc)+E(xc)   XCENC  =      2361.60543409
  PAW double counting   =    115707.41595936  -114367.45276170
  entropy T*S    EENTRO =        -0.00000000
  eigenvalues    EBANDS =     -9098.44906978
  atomic energy  EATOM  =     74627.71039806
  Solvation  Ediel_sol  =         0.00000000
  ---------------------------------------------------
  free energy    TOTEN  =     -1329.08877322 eV

  energy without entropy =    -1329.08877322  energy(sigma->0) =    -1329.08877322


--------------------------------------------------------------------------------------------------------




--------------------------------------- Iteration      1(   3)  ---------------------------------------


    POTLOK:  cpu time    0.4074: real time    0.4094
    SETDIJ:  cpu time    0.1302: real time    0.1306
     EDDAV:  cpu time  108.7383: real time  109.6040
       DOS:  cpu time    0.0036: real time    0.0036
    CHARGE:  cpu time    0.2138: real time    0.2153
    MIXING:  cpu time    0.0011: real time    0.0011
    --------------------------------------------
      LOOP:  cpu time  109.4945: real time  110.3641

 eigenvalue-minimisations  : 14976
 total energy-change (2. order) : 0.5088417E+02  (-0.4545077E+01)
 number of electron     951.9999986 magnetization 
 augmentation part      187.4329933 magnetization 

 Broyden mixing:
  rms(total) = 0.35453E+01    rms(broyden)= 0.35452E+01
  rms(prec ) = 0.40654E+01
  weight for this iteration     100.00

 eigenvalues of (default mixing * dielectric matrix)
  average eigenvalue GAMMA=   1.7155
  0.9482  2.4829

 Free energy of the ion-electron system (eV)
  ---------------------------------------------------
  alpha Z        PSCENC =      3958.29392442
  Ewald energy   TEWEN  =    -50844.20763261
  -Hartree energ DENC   =    -23692.85310788
  -exchange      EXHF   =         0.00000000
  -V(xc)+E(xc)   XCENC  =      2363.88521175
  PAW double counting   =    115475.09541475  -114136.97457485
  entropy T*S    EENTRO =        -0.00000000
  eigenvalues    EBANDS =     -9029.15423494
  atomic energy  EATOM  =     74627.71039806
  Solvation  Ediel_sol  =         0.00000000
  ---------------------------------------------------
  free energy    TOTEN  =     -1278.20460130 eV

  energy without entropy =    -1278.20460130  energy(sigma->0) =    -1278.20460130


--------------------------------------------------------------------------------------------------------




--------------------------------------- Iteration      1(   4)  ---------------------------------------


    POTLOK:  cpu time    0.0485: real time    0.0491
    SETDIJ:  cpu time    0.0079: real time    0.0080
     EDDAV:  cpu time  116.1954: real time  116.9908
       DOS:  cpu time    0.0024: real time    0.0024
    CHARGE:  cpu time    0.2127: real time    0.2142
    MIXING:  cpu time    0.0009: real time    0.0009
    --------------------------------------------
      LOOP:  cpu time  116.4677: real time  117.2653

 eigenvalue-minimisations  : 15360
 total energy-change (2. order) : 0.4062581E+02  (-0.1093672E+02)
 number of electron     951.9999975 magnetization 
 augmentation part      187.3406318 magnetization 

 Broyden mixing:
  rms(total) = 0.24898E+01    rms(broyden)= 0.24887E+01
  rms(prec ) = 0.27890E+01
  weight for this iteration     100.00

 eigenvalues of (default mixing * dielectric matrix)
  average eigenvalue GAMMA=   1.2083
  2.1383  0.8756  0.6110

 Free energy of the ion-electron system (eV)
  ---------------------------------------------------
  alpha Z        PSCENC =      3958.29392442
  Ewald energy   TEWEN  =    -50844.20763261
  -Hartree energ DENC   =    -23748.69396231
  -exchange      EXHF   =         0.00000000
  -V(xc)+E(xc)   XCENC  =      2368.85434896
  PAW double counting   =    114892.58717348  -113558.10098014
  entropy T*S    EENTRO =        -0.00000000
  eigenvalues    EBANDS =     -8934.02206377
  atomic energy  EATOM  =     74627.71039806
  Solvation  Ediel_sol  =         0.00000000
  ---------------------------------------------------
  free energy    TOTEN  =     -1237.57879392 eV

  energy without entropy =    -1237.57879392  energy(sigma->0) =    -1237.57879392


--------------------------------------------------------------------------------------------------------




--------------------------------------- Iteration      1(   5)  ---------------------------------------


    POTLOK:  cpu time    0.0463: real time    0.0469
    SETDIJ:  cpu time    0.0077: real time    0.0078
     EDDAV:  cpu time   78.5019: real time   79.0010
       DOS:  cpu time    0.0010: real time    0.0010
    CHARGE:  cpu time    0.2131: real time    0.2146
    MIXING:  cpu time    0.0010: real time    0.0010
    --------------------------------------------
      LOOP:  cpu time   78.7710: real time   79.2724

 eigenvalue-minimisations  : 12288
 total energy-change (2. order) : 0.3198569E+01  (-0.2962637E+01)
 number of electron     951.9999978 magnetization 
 augmentation part      187.1365085 magnetization 

 Broyden mixing:
  rms(total) = 0.14115E+01    rms(broyden)= 0.14114E+01
  rms(prec ) = 0.15733E+01
  weight for this iteration     100.00

 eigenvalues of (default mixing * dielectric matrix)
  average eigenvalue GAMMA=   1.4819
  2.8114  1.2304  1.2304  0.6551

 Free energy of the ion-electron system (eV)
  ---------------------------------------------------
  alpha Z        PSCENC =      3958.29392442
  Ewald energy   TEWEN  =    -50844.20763261
  -Hartree energ DENC   =    -23734.80124632
  -exchange      EXHF   =         0.00000000
  -V(xc)+E(xc)   XCENC  =      2367.40413275
  PAW double counting   =    114836.09126536  -113500.51816004
  entropy T*S    EENTRO =        -0.00000000
  eigenvalues    EBANDS =     -8944.35290620
  atomic energy  EATOM  =     74627.71039806
  Solvation  Ediel_sol  =         0.00000000
  ---------------------------------------------------
  free energy    TOTEN  =     -1234.38022458 eV

  energy without entropy =    -1234.38022458  energy(sigma->0) =    -1234.38022458


--------------------------------------------------------------------------------------------------------




--------------------------------------- Iteration      1(   6)  ---------------------------------------


    POTLOK:  cpu time    0.0461: real time    0.0467
    SETDIJ:  cpu time    0.0077: real time    0.0077
     EDDAV:  cpu time  173.0303: real time  174.1084
       DOS:  cpu time    0.0031: real time    0.0031
    CHARGE:  cpu time    0.2134: real time    0.2150
    MIXING:  cpu time    0.0013: real time    0.0013
    --------------------------------------------
      LOOP:  cpu time  173.3019: real time  174.3822

 eigenvalue-minimisations  : 18432
 total energy-change (2. order) : 0.5246220E+01  (-0.8099962E+00)
 number of electron     951.9999980 magnetization 
 augmentation part      187.1717134 magnetization 

 Broyden mixing:
  rms(total) = 0.66444E+00    rms(broyden)= 0.66440E+00
  rms(prec ) = 0.73072E+00
  weight for this iteration     100.00

 eigenvalues of (default mixing * dielectric matrix)
  average eigenvalue GAMMA=   1.6412
  3.5495  1.9899  1.0395  1.0395  0.5877

 Free energy of the ion-electron system (eV)
  ---------------------------------------------------
  alpha Z        PSCENC =      3958.29392442
  Ewald energy   TEWEN  =    -50844.20763261
  -Hartree energ DENC   =    -23728.87566625
  -exchange      EXHF   =         0.00000000
  -V(xc)+E(xc)   XCENC  =      2366.54136519
  PAW double counting   =    114441.74340318  -113105.72012791
  entropy T*S    EENTRO =        -0.00000000
  eigenvalues    EBANDS =     -8944.61966817
  atomic energy  EATOM  =     74627.71039806
  Solvation  Ediel_sol  =         0.00000000
  ---------------------------------------------------
  free energy    TOTEN  =     -1229.13400410 eV

  energy without entropy =    -1229.13400410  energy(sigma->0) =    -1229.13400410


--------------------------------------------------------------------------------------------------------




--------------------------------------- Iteration      1(   7)  ---------------------------------------


    POTLOK:  cpu time    0.0467: real time    0.0473
    SETDIJ:  cpu time    0.0078: real time    0.0079
     EDDAV:  cpu time  156.1983: real time  157.2456
       DOS:  cpu time    0.0008: real time    0.0023
    CHARGE:  cpu time    0.2129: real time    0.2144
    MIXING:  cpu time    0.0010: real time    0.0010
    --------------------------------------------
      LOOP:  cpu time  156.4675: real time  157.5184

 eigenvalue-minimisations  : 18048
 total energy-change (2. order) : 0.8520082E+00  (-0.2115658E+00)
 number of electron     951.9999980 magnetization 
 augmentation part      187.1797483 magnetization 

 Broyden mixing:
  rms(total) = 0.29641E+00    rms(broyden)= 0.29638E+00
  rms(prec ) = 0.31904E+00
  weight for this iteration     100.00

 eigenvalues of (default mixing * dielectric matrix)
  average eigenvalue GAMMA=   1.7405
  4.0926  2.1729  1.5988  1.0395  0.9329  0.6064

 Free energy of the ion-electron system (eV)
  ---------------------------------------------------
  alpha Z        PSCENC =      3958.29392442
  Ewald energy   TEWEN  =    -50844.20763261
  -Hartree energ DENC   =    -23726.34430375
  -exchange      EXHF   =         0.00000000
  -V(xc)+E(xc)   XCENC  =      2366.17540688
  PAW double counting   =    114226.11065487  -112889.84548088
  entropy T*S    EENTRO =        -0.00000000
  eigenvalues    EBANDS =     -8946.17496293
  atomic energy  EATOM  =     74627.71039806
  Solvation  Ediel_sol  =         0.00000000
  ---------------------------------------------------
  free energy    TOTEN  =     -1228.28199595 eV

  energy without entropy =    -1228.28199595  energy(sigma->0) =    -1228.28199595


--------------------------------------------------------------------------------------------------------




--------------------------------------- Iteration      1(   8)  ---------------------------------------


    POTLOK:  cpu time    0.0459: real time    0.0474
    SETDIJ:  cpu time    0.0078: real time    0.0078
     EDDAV:  cpu time  171.0805: real time  172.0746
       DOS:  cpu time    0.0023: real time    0.0023
    CHARGE:  cpu time    0.2222: real time    0.2241
    MIXING:  cpu time    0.0016: real time    0.0016
    --------------------------------------------
      LOOP:  cpu time  171.3603: real time  172.3579

 eigenvalue-minimisations  : 18432
 total energy-change (2. order) : 0.7029797E-01  (-0.3168698E-01)
 number of electron     951.9999979 magnetization 
 augmentation part      187.1713510 magnetization 

 Broyden mixing:
  rms(total) = 0.18215E+00    rms(broyden)= 0.18214E+00
  rms(prec ) = 0.19372E+00
  weight for this iteration     100.00

 eigenvalues of (default mixing * dielectric matrix)
  average eigenvalue GAMMA=   1.8857
  4.2831  3.1164  1.9381  0.6007  1.1307  1.1307  1.0002

 Free energy of the ion-electron system (eV)
  ---------------------------------------------------
  alpha Z        PSCENC =      3958.29392442
  Ewald energy   TEWEN  =    -50844.20763261
  -Hartree energ DENC   =    -23729.05550133
  -exchange      EXHF   =         0.00000000
  -V(xc)+E(xc)   XCENC  =      2366.34895178
  PAW double counting   =    114136.90730123  -112800.66652987
  entropy T*S    EENTRO =        -0.00000000
  eigenvalues    EBANDS =     -8943.54260965
  atomic energy  EATOM  =     74627.71039806
  Solvation  Ediel_sol  =         0.00000000
  ---------------------------------------------------
  free energy    TOTEN  =     -1228.21169798 eV

  energy without entropy =    -1228.21169798  energy(sigma->0) =    -1228.21169798


--------------------------------------------------------------------------------------------------------




--------------------------------------- Iteration      1(   9)  ---------------------------------------


    POTLOK:  cpu time    0.0500: real time    0.0506
    SETDIJ:  cpu time    0.0077: real time    0.0078
     EDDAV:  cpu time  137.5860: real time  138.3980
       DOS:  cpu time    0.0009: real time    0.0009
    CHARGE:  cpu time    0.2127: real time    0.2141
    MIXING:  cpu time    0.0013: real time    0.0013
    --------------------------------------------
      LOOP:  cpu time  137.8587: real time  138.6727

 eigenvalue-minimisations  : 16896
 total energy-change (2. order) : 0.1410110E-01  (-0.5601882E-02)
 number of electron     951.9999979 magnetization 
 augmentation part      187.1687738 magnetization 

 Broyden mixing:
  rms(total) = 0.70225E-01    rms(broyden)= 0.70223E-01
  rms(prec ) = 0.78243E-01
  weight for this iteration     100.00

 eigenvalues of (default mixing * dielectric matrix)
  average eigenvalue GAMMA=   1.8928
  4.1642  4.1642  1.8731  1.1856  1.1856  0.6017  0.9840  0.9840

 Free energy of the ion-electron system (eV)
  ---------------------------------------------------
  alpha Z        PSCENC =      3958.29392442
  Ewald energy   TEWEN  =    -50844.20763261
  -Hartree energ DENC   =    -23729.59214311
  -exchange      EXHF   =         0.00000000
  -V(xc)+E(xc)   XCENC  =      2366.31821404
  PAW double counting   =    114088.52434648  -112752.18862580
  entropy T*S    EENTRO =        -0.00000000
  eigenvalues    EBANDS =     -8943.05607836
  atomic energy  EATOM  =     74627.71039806
  Solvation  Ediel_sol  =         0.00000000
  ---------------------------------------------------
  free energy    TOTEN  =     -1228.19759688 eV

  energy without entropy =    -1228.19759688  energy(sigma->0) =    -1228.19759688


--------------------------------------------------------------------------------------------------------




--------------------------------------- Iteration      1(  10)  ---------------------------------------


    POTLOK:  cpu time    0.0490: real time    0.0495
    SETDIJ:  cpu time    0.0078: real time    0.0078
     EDDAV:  cpu time  193.3043: real time  194.3742
       DOS:  cpu time    0.0031: real time    0.0031
    CHARGE:  cpu time    0.2130: real time    0.2145
    MIXING:  cpu time    0.0011: real time    0.0011
    --------------------------------------------
      LOOP:  cpu time  193.5782: real time  194.6503

 eigenvalue-minimisations  : 20352
 total energy-change (2. order) : 0.1464551E-02  (-0.1832661E-02)
 number of electron     951.9999979 magnetization 
 augmentation part      187.1684110 magnetization 

 Broyden mixing:
  rms(total) = 0.32681E-01    rms(broyden)= 0.32676E-01
  rms(prec ) = 0.36696E-01
  weight for this iteration     100.00

 eigenvalues of (default mixing * dielectric matrix)
  average eigenvalue GAMMA=   1.9380
  4.8012  3.8474  2.3499  1.3822  1.3822  0.6014  0.9932  1.0422  1.0422

 Free energy of the ion-electron system (eV)
  ---------------------------------------------------
  alpha Z        PSCENC =      3958.29392442
  Ewald energy   TEWEN  =    -50844.20763261
  -Hartree energ DENC   =    -23729.94565102
  -exchange      EXHF   =         0.00000000
  -V(xc)+E(xc)   XCENC  =      2366.30869627
  PAW double counting   =    114071.72902991  -112735.34219677
  entropy T*S    EENTRO =        -0.00000000
  eigenvalues    EBANDS =     -8942.74270059
  atomic energy  EATOM  =     74627.71039806
  Solvation  Ediel_sol  =         0.00000000
  ---------------------------------------------------
[...]
      1.35602      9.78296      1.95033        -0.010500      0.004356      0.002204
      6.93055      4.10436      1.94024         0.013279     -0.025829      0.003311
      6.92804      9.78117      1.95813         0.008894     -0.000205      0.001030
      1.35452      4.41505     13.65424         0.001673      0.015335     -0.012401
      1.35300     10.10054     13.64681         0.002354     -0.006262     -0.000810
      6.91844      4.41989     13.63301         0.003325      0.001299     -0.004385
      6.92662     10.08273     13.64773         0.008433      0.001779     -0.007006
      4.21679      1.27277      5.82271         0.007116     -0.005882      0.009398
      4.23263      6.94272      5.84677         0.008623      0.032870     -0.000959
      9.78531      1.26442      5.85423         0.010208     -0.006891     -0.001842
      9.79331      6.94453      5.83955         0.012695      0.014525      0.007258
      4.23098      1.62476      9.75090        -0.002688     -0.012729     -0.012050
      4.13139      7.39860      9.80472        -0.013333      0.045641     -0.003986
      9.93355      1.41755      9.71271         0.003993     -0.009304      0.006126
      9.80277      7.28895      9.75235         0.014674     -0.000868     -0.008479
      4.21053      1.57014     13.65349        -0.005857     -0.009982     -0.012625
      4.20499      7.24100     13.63166        -0.014666      0.012132     -0.012828
      9.76887      1.57616     13.64042        -0.014073      0.002593     -0.005643
      9.77876      7.26050     13.65037        -0.001238     -0.002002     -0.009118
      4.21882      1.25749      1.95100        -0.000350      0.001255     -0.010137
      4.21780      6.95055      1.94767        -0.000958     -0.007018     -0.001400
      9.78563      1.26186      1.95094         0.001223      0.002195      0.011209
      9.78957      6.94153      1.95247         0.004722      0.002752     -0.001045
      1.37085      4.43671      9.75100        -0.033631      0.027771     -0.013439
      1.37515     10.12687      9.75795        -0.019019     -0.002248     -0.004751
      7.27779      4.19331      9.82961         0.010034      0.026995      0.002845
      6.93374     10.13449      9.75463         0.000422      0.021622      0.001362
      1.35097      4.10973      5.82946        -0.010510     -0.004186      0.005929
      1.35864      9.78401      5.85484        -0.014866     -0.000225      0.003521
      6.91684      4.12446      5.83198        -0.019230     -0.000850     -0.010495
      6.91721      9.77840      5.84568        -0.019371     -0.005631      0.012518
      0.20679      0.24492      6.17159         0.001211      0.017037     -0.013362
      0.23104      5.93297      6.12811         0.006198      0.010128      0.007358
      5.78528      0.24456      6.12692         0.002432      0.012772      0.011032
      5.83506      5.96472      6.09623        -0.000489      0.022435     -0.008061
      0.27282      2.53551      9.47433         0.010755     -0.034688     -0.005706
      0.27035      8.24089      9.48038         0.001741      0.008139      0.002815
      5.77907      2.72247      9.44791         0.026083     -0.008754     -0.008719
      5.80523      8.21781      9.47798         0.003541      0.001157      0.002272
      5.34286      3.10573      1.66293        -0.016943     -0.005757     -0.006000
      5.33332      8.78472      1.67624        -0.008066     -0.005117      0.003972
     10.91323      3.09791      1.66885         0.002489      0.004437      0.009376
     10.91485      8.78827      1.66566         0.011446      0.012572     -0.001027
      5.32336      5.39894     13.92253        -0.002585      0.009887      0.001312
      5.33572     11.09428     13.91107        -0.004127      0.002558      0.005082
     10.90824      5.41524     13.91814         0.002157     -0.011695      0.002583
     10.92356     11.10426     13.92915        -0.020835      0.012577     -0.011937
      8.03460      5.91405     10.03444        -0.016456      0.001555     -0.011046
      5.33572     11.13590      9.46436        -0.005670      0.018398      0.007194
     10.91830      5.40910      9.47734         0.003821      0.005595      0.003110
     10.84550     11.06459      9.38712         0.031512      0.001907      0.010563
      5.34041      3.10230      6.10894        -0.000118      0.013902      0.008601
      5.32437      8.77586      6.15983        -0.000034      0.000902      0.007944
     10.92495      3.09120      6.11700        -0.004060      0.006115      0.002943
     10.92526      8.77599      6.12942        -0.006058      0.004545     -0.006949
      0.20769      2.58317     13.90675         0.014243      0.005574     -0.003391
      0.23298      8.25457     13.90557        -0.000979     -0.000536     -0.004313
      5.81217      2.56553     13.88991         0.002084      0.001095     -0.001205
      5.80186      8.23947     13.87374        -0.005511     -0.016562     -0.006764
      0.22778      0.26154      1.67362         0.008279     -0.011584     -0.007362
      0.22811      5.94347      1.66030        -0.009273      0.001832     -0.003930
      5.80422      0.25851      1.66337         0.000414      0.000330     -0.006093
      5.80362      5.94870      1.66103        -0.007923      0.011533     -0.005281
      2.54781      2.65310      5.55856         0.007541      0.006182      0.003114
      2.55448      8.31131      5.64693         0.008675     -0.001238      0.009051
      8.11700      2.67887      5.61415         0.012493     -0.012423     -0.002155
      8.11719      8.33225      5.56802        -0.003610     -0.001601     -0.000475
      2.48006      0.25684     10.02406        -0.013894      0.006199     -0.001552
      2.60115      5.87713     10.03969        -0.033044      0.000847     -0.007384
      8.07668      0.25615     10.03462         0.012196     -0.005883     -0.006840
      3.02919      5.49940      2.21754         0.014420      0.009936     -0.000024
      3.02553     11.17697      2.23408        -0.002968     -0.008279      0.013707
      8.59736      5.49070      2.23411         0.009069     -0.002316      0.006616
      8.59523     11.17681      2.23076        -0.001575     -0.010378      0.002151
      3.01138      3.01266     13.36403        -0.001459      0.006076     -0.012931
      3.02604      8.68367     13.27887        -0.000408     -0.009867     -0.006808
      8.57169      3.01061     13.28071        -0.004918      0.002304      0.010416
      8.59391      8.71037     13.35394         0.011701     -0.013849     -0.011114
      3.03536      3.05761     10.04476         0.010109      0.021107     -0.001533
      3.05341      8.86454     10.10372         0.029237     -0.019920     -0.004126
      8.74513      3.10745     10.12216         0.004184      0.003472      0.006315
      8.63688      8.76056     10.02347        -0.028461      0.001808      0.006443
      3.04002      5.48820      5.57729         0.012364      0.005600      0.006155
      3.01661     11.18208      5.56996        -0.003890     -0.003913      0.001187
      8.60944      5.48125      5.58267         0.000571     -0.013208      0.002598
      8.58383     11.18424      5.59094         0.003846      0.002678      0.002394
      2.55639      0.17118     13.33649         0.012239      0.009531     -0.002415
      2.54697      5.86398     13.33855        -0.003232     -0.010992      0.005012
      8.12647      0.16741     13.36105        -0.006730      0.000044     -0.000964
      8.10756      5.86199     13.34365        -0.002715     -0.015348     -0.009572
      2.54547      2.65407      2.23956         0.007865     -0.009428      0.012523
      2.54499      8.33292      2.23765        -0.009153     -0.006611      0.001402
      8.11772      2.65524      2.23368        -0.005526     -0.001507      0.006016
      8.11954      8.33515      2.24438        -0.016787     -0.000369      0.010829
      3.78344      1.42053     15.58873        -0.010222      0.003416      0.006190
      3.78995      7.12945     15.56371         0.002685     -0.013791      0.009632
      9.34835      1.43268     15.58291         0.001894     -0.000812      0.005713
      9.34630      7.10000     15.59057         0.001182      0.006158      0.005757
      1.77687      4.25549      7.80174        -0.000316     -0.003863     -0.010879
      1.80165      9.94806      7.82487         0.014143      0.005151      0.011229
      7.24286      4.35947      7.86078        -0.005156     -0.008909      0.008619
      7.34438      9.94472      7.80456        -0.000649     -0.006651      0.008478
      1.79180      4.26011     15.59080        -0.001413     -0.008883     -0.000402
      1.79960      9.92762     15.58154         0.005032     -0.006443      0.024687
      7.35946      4.25181     15.56950        -0.003795      0.003825      0.000873
      7.34842      9.92257     15.59086        -0.002488     -0.014693      0.016115
      3.81037      1.44216      7.79943        -0.006418      0.004566      0.004437
      3.89148      6.91105      7.90518         0.020497     -0.030440     -0.006526
      9.32296      1.50007      7.82510        -0.007685      0.003782     -0.008408
      9.37679      7.11201      7.80233        -0.014437     -0.011978      0.004689
      1.00014      4.43243      3.89402        -0.003393      0.011251      0.000925
      1.01580     10.08669      3.91434        -0.002219      0.002895     -0.027201
      6.57323      4.41738      3.89922        -0.011501      0.006243      0.007003
      6.56281     10.09684      3.90602        -0.007834      0.011769     -0.004002
      1.01392      4.10543     11.69216         0.001559     -0.002681      0.015555
      0.95592      9.81469     11.67119         0.004417      0.005565     -0.013095
      6.47006      4.16802     11.62920         0.003254     -0.011159     -0.018015
      6.57115      9.79377     11.68493         0.006597     -0.006664     -0.008006
      4.58700      1.58123      3.89282         0.002469      0.008434     -0.011528
      4.55731      7.25334      3.90929         0.015628     -0.014790     -0.005248
     10.12297      1.56957      3.91272         0.012086      0.003059      0.003572
     10.14913      7.26008      3.89976         0.009826      0.002369     -0.002322
      4.57840      1.27555     11.67697        -0.001137     -0.004487     -0.001902
      4.62201      6.82991     11.62002        -0.001359     -0.019402     -0.010312
     10.15705      1.22277     11.67337         0.004843     -0.008156      0.011634
     10.12859      6.93524     11.69328        -0.012313     -0.008120     -0.010335
 -----------------------------------------------------------------------------------
    total drift:                               -0.010574      0.004425     -0.004148


--------------------------------------------------------------------------------------------------------



  FREE ENERGIE OF THE ION-ELECTRON SYSTEM (eV)
  ---------------------------------------------------
  free  energy   TOTEN  =     -1228.19596946 eV

  energy  without entropy=    -1228.19596946  energy(sigma->0) =    -1228.19596946
 


--------------------------------------------------------------------------------------------------------


    POTLOK:  cpu time    0.0604: real time    0.0608


--------------------------------------------------------------------------------------------------------


 stress matrix after NEB project (eV)
    -10.70555     -3.86824     -0.35717
     -3.86824    -15.52447      0.20747
     -0.35717      0.20747    -12.12391
  FORCES: max atom, RMS     0.047715    0.016752
  FORCE total and by dimension    0.211231    0.045641
  Stress total and by dimension   23.084083   15.524474
 writing wavefunctions
     LOOP+:  cpu time 2069.2388: real time 2083.9087
    4ORBIT:  cpu time    0.0000: real time    0.0000
 


 total charge     
 
# of ion       s       p       d       tot
------------------------------------------
    1        0.042   0.037   0.000   0.079
    2        0.043   0.038   0.000   0.080
    3        0.043   0.038   0.000   0.081
    4        0.043   0.038   0.000   0.080
    5        0.043   0.037   0.000   0.080
    6        0.045   0.039   0.000   0.084
    7        0.042   0.036   0.000   0.078
    8        0.045   0.040   0.000   0.085
    9        0.044   0.038   0.000   0.082
   10        0.043   0.038   0.000   0.081
   11        0.043   0.038   0.000   0.081
   12        0.043   0.037   0.000   0.080
   13        0.044   0.039   0.000   0.083
   14        0.042   0.037   0.000   0.079
   15        0.043   0.037   0.000   0.080
   16        0.043   0.038   0.000   0.081
   17        0.039   0.035   0.000   0.074
   18        0.039   0.035   0.000   0.074
   19        0.039   0.035   0.000   0.074
   20        0.040   0.036   0.000   0.075
   21        0.041   0.037   0.000   0.078
   22        0.040   0.037   0.000   0.077
   23        0.042   0.037   0.000   0.079
   24        0.040   0.037   0.000   0.077
   25        0.040   0.036   0.000   0.075
   26        0.039   0.035   0.000   0.075
   27        0.039   0.035   0.000   0.075
   28        0.039   0.035   0.000   0.074
   29        0.044   0.039   0.000   0.083
   30        0.042   0.039   0.000   0.081
   31        0.044   0.040   0.000   0.084
   32        0.042   0.037   0.000   0.079
   33        0.428   6.600   2.782   9.809
   34        0.425   6.595   2.771   9.791
   35        0.426   6.596   2.774   9.796
   36        0.427   6.599   2.776   9.803
   37        0.428   6.603   2.783   9.814
   38        0.426   6.593   2.777   9.797
   39        0.424   6.589   2.772   9.785
   40        0.428   6.603   2.774   9.805
   41        0.429   6.605   2.781   9.815
   42        0.423   6.593   2.760   9.776
   43        0.425   6.594   2.775   9.794
   44        0.428   6.601   2.778   9.807
   45        0.425   6.593   2.772   9.790
   46        0.446   6.582   2.962   9.989
   47        0.426   6.605   2.769   9.800
   48        0.425   6.585   2.787   9.798
   49        0.428   6.601   2.780   9.810
   50        0.422   6.587   2.767   9.777
   51        0.425   6.594   2.770   9.790
   52        0.428   6.600   2.783   9.810
   53        0.428   6.600   2.783   9.810
   54        0.425   6.596   2.770   9.791
   55        0.425   6.596   2.770   9.791
   56        0.427   6.598   2.777   9.803
   57        0.425   6.594   2.777   9.795
   58        0.426   6.605   2.774   9.806
   59        0.446   6.586   2.959   9.992
   60        0.425   6.587   2.776   9.787
   61        0.428   6.603   2.780   9.811
   62        0.426   6.597   2.767   9.790
   63        0.427   6.599   2.778   9.803
   64        0.427   6.599   2.775   9.801
   65        1.566   3.468   0.000   5.034
   66        1.566   3.476   0.000   5.042
   67        1.566   3.475   0.000   5.042
   68        1.568   3.476   0.000   5.044
   69        1.569   3.462   0.000   5.031
   70        1.567   3.464   0.000   5.031
   71        1.565   3.465   0.000   5.029
   72        1.567   3.459   0.000   5.025
   73        1.567   3.471   0.000   5.038
   74        1.566   3.473   0.000   5.040
   75        1.566   3.471   0.000   5.038
   76        1.567   3.469   0.000   5.036
   77        1.567   3.472   0.000   5.039
   78        1.566   3.473   0.000   5.039
   79        1.566   3.474   0.000   5.040
   80        1.567   3.469   0.000   5.036
   81        1.567   3.453   0.000   5.020
   82        1.566   3.468   0.000   5.034
   83        1.567   3.463   0.000   5.030
   84        1.567   3.496   0.000   5.063
   85        1.567   3.477   0.000   5.044
   86        1.566   3.471   0.000   5.037
   87        1.567   3.475   0.000   5.042
   88        1.567   3.474   0.000   5.041
   89        1.566   3.471   0.000   5.037
   90        1.566   3.472   0.000   5.038
   91        1.566   3.472   0.000   5.039
   92        1.567   3.470   0.000   5.037
   93        1.566   3.469   0.000   5.035
   94        1.567   3.471   0.000   5.037
   95        1.567   3.471   0.000   5.038
   96        1.567   3.469   0.000   5.036
   97        1.566   3.466   0.000   5.032
   98        1.566   3.462   0.000   5.028
   99        1.567   3.461   0.000   5.028
  100        1.566   3.463   0.000   5.029
  101        1.569   3.454   0.000   5.023
  102        1.565   3.456   0.000   5.021
  103        1.566   3.458   0.000   5.024
  104        1.567   3.462   0.000   5.029
  105        1.566   3.464   0.000   5.030
  106        1.566   3.465   0.000   5.031
  107        1.566   3.463   0.000   5.029
  108        1.566   3.470   0.000   5.036
  109        1.566   3.458   0.000   5.025
  110        1.566   3.461   0.000   5.027
  111        1.567   3.469   0.000   5.035
  112        1.568   3.467   0.000   5.035
  113        1.570   3.483   0.000   5.052
  114        1.570   3.483   0.000   5.053
  115        1.566   3.460   0.000   5.026
  116        1.566   3.463   0.000   5.029
  117        1.566   3.465   0.000   5.030
  118        1.566   3.466   0.000   5.032
  119        1.566   3.462   0.000   5.028
  120        1.566   3.466   0.000   5.032
  121        1.566   3.468   0.000   5.034
  122        1.566   3.469   0.000   5.035
  123        1.567   3.461   0.000   5.028
  124        1.566   3.463   0.000   5.029
  125        1.567   3.464   0.000   5.031
  126        1.567   3.463   0.000   5.030
  127        1.567   3.464   0.000   5.030
  128        1.564   3.484   0.000   5.048
  129        1.563   3.479   0.000   5.042
  130        1.564   3.480   0.000   5.044
  131        1.564   3.483   0.000   5.047
  132        1.563   3.483   0.000   5.046
  133        1.564   3.480   0.000   5.044
  134        1.563   3.466   0.000   5.029
  135        1.564   3.483   0.000   5.047
  136        1.564   3.485   0.000   5.049
  137        1.563   3.481   0.000   5.044
  138        1.563   3.480   0.000   5.043
  139        1.564   3.483   0.000   5.047
  140        1.563   3.484   0.000   5.046
  141        1.562   3.464   0.000   5.026
  142        1.564   3.477   0.000   5.042
  143        1.563   3.483   0.000   5.046
  144        1.564   3.486   0.000   5.051
  145        1.564   3.481   0.000   5.045
  146        1.564   3.485   0.000   5.048
  147        1.564   3.484   0.000   5.048
  148        1.564   3.488   0.000   5.051
  149        1.565   3.480   0.000   5.044
  150        1.563   3.470   0.000   5.034
  151        1.564   3.484   0.000   5.048
  152        1.565   3.488   0.000   5.052
  153        1.564   3.483   0.000   5.046
  154        1.564   3.481   0.000   5.045
  155        1.564   3.484   0.000   5.048
  156        1.564   3.485   0.000   5.049
  157        1.562   3.473   0.000   5.035
  158        1.565   3.478   0.000   5.042
  159        1.564   3.487   0.000   5.051
--------------------------------------------------
tot        163.750 542.115  89.180 795.045
 

 total amount of memory used by VASP MPI-rank0   415932. kBytes
=======================================================================

   base      :      30000. kBytes
   nonl-proj :     347904. kBytes
   fftplans  :       2494. kBytes
   grid      :      17825. kBytes
   one-center:       2472. kBytes
   wavefun   :      15237. kBytes
 
  
  
 General timing and accounting informations for this job:
 ========================================================
  
                  Total CPU time used (sec):     2112.685
                            User time (sec):     2101.396
                          System time (sec):       11.289
                         Elapsed time (sec):     2134.499
  
                   Maximum memory used (kb):     1237092.
                   Average memory used (kb):           0.
  
                          Minor page faults:       688414
                          Major page faults:            0
                 Voluntary context switches:         7907
