 vasp.5.4.4.18Apr17-6-g9f103f2a35 (build Jun 19 2019 10:34:07) complex          
  
 executed on               LB-5.4 date 2023.05.15  18:32:32
 running on   96 total cores
 distrk:  each k-point on   24 cores,    4 groups
 distr:  one band on NCORES_PER_BAND=   1 cores,   24 groups


--------------------------------------------------------------------------------------------------------


 INCAR:
 POTCAR:    PAW_PBE Si 05Jan2001                  

 ----------------------------------------------------------------------------- 
|                                                                             |
|           W    W    AA    RRRRR   N    N  II  N    N   GGGG   !!!           |
|           W    W   A  A   R    R  NN   N  II  NN   N  G    G  !!!           |
|           W    W  A    A  R    R  N N  N  II  N N  N  G       !!!           |
|           W WW W  AAAAAA  RRRRR   N  N N  II  N  N N  G  GGG   !            |
|           WW  WW  A    A  R   R   N   NN  II  N   NN  G    G                |
|           W    W  A    A  R    R  N    N  II  N    N   GGGG   !!!           |
|                                                                             |
|      For optimal performance we recommend to set                            |
|        NCORE= 4 - approx SQRT( number of cores)                             |
|      NCORE specifies how many cores store one orbital (NPAR=cpu/NCORE).     |
|      This setting can  greatly improve the performance of VASP for DFT.     |
|      The default,   NCORE=1            might be grossly inefficient         |
|      on modern multi-core architectures or massively parallel machines.     |
|      Do your own testing !!!!                                               |
|      Unfortunately you need to use the default for GW and RPA calculations. |
|      (for HF NCORE is supported but not extensively tested yet)             |
|                                                                             |
 ----------------------------------------------------------------------------- 


 ----------------------------------------------------------------------------- 
|                                                                             |
|           W    W    AA    RRRRR   N    N  II  N    N   GGGG   !!!           |
|           W    W   A  A   R    R  NN   N  II  NN   N  G    G  !!!           |
|           W    W  A    A  R    R  N N  N  II  N N  N  G       !!!           |
|           W WW W  AAAAAA  RRRRR   N  N N  II  N  N N  G  GGG   !            |
|           WW  WW  A    A  R   R   N   NN  II  N   NN  G    G                |
|           W    W  A    A  R    R  N    N  II  N    N   GGGG   !!!           |
|                                                                             |
|      You have enabled k-point parallelism (KPAR>1).                         |
|      This developmental code was originally  written by Paul Kent at ORNL,  |
|      and carefully double checked in Vienna.                                |
|      GW as well as linear response parallelism added by Martijn Marsman     |
|      and Georg Kresse.                                                      |
|      Carefully verify results versus KPAR=1.                                |
|      Report problems to Paul Kent and Vienna.                               |
|                                                                             |
 ----------------------------------------------------------------------------- 

 POTCAR:    PAW_PBE Si 05Jan2001                  
   VRHFIN =Si: s2p2                                                             
   LEXCH  = PE                                                                  
   EATOM  =   103.0669 eV,    7.5752 Ry                                         
                                                                                
   TITEL  = PAW_PBE Si 05Jan2001                                                
   LULTRA =        F    use ultrasoft PP ?                                      
   IUNSCR =        1    unscreen: 0-lin 1-nonlin 2-no                           
   RPACOR =    1.500    partial core radius                                     
   POMASS =   28.085; ZVAL   =    4.000    mass and valenz                      
   RCORE  =    1.900    outmost cutoff radius                                   
   RWIGS  =    2.480; RWIGS  =    1.312    wigner-seitz radius (au A)           
   ENMAX  =  245.345; ENMIN  =  184.009 eV                                      
   ICORE  =        2    local potential                                         
   LCOR   =        T    correct aug charges                                     
   LPAW   =        T    paw PP                                                  
   EAUG   =  322.069                                                            
   DEXC   =    0.000                                                            
   RMAX   =    1.950    core radius for proj-oper                               
   RAUG   =    1.300    factor for augmentation sphere                          
   RDEP   =    1.993    radius for radial grids                                 
   RDEPT  =    1.837    core radius for aug-charge                              
                                                                                
   Atomic configuration                                                         
    6 entries                                                                   
     n  l   j            E        occ.                                          
     1  0  0.50     -1785.8828   2.0000                                         
     2  0  0.50      -139.4969   2.0000                                         
     2  1  1.50       -95.5546   6.0000                                         
     3  0  0.50       -10.8127   2.0000                                         
     3  1  0.50        -4.0811   2.0000                                         
     3  2  1.50        -4.0817   0.0000                                         
   Description                                                                  
     l       E           TYP  RCUT    TYP  RCUT                                 
     0    -10.8127223     23  1.900                                             
     0     -7.6451159     23  1.900                                             
     1     -4.0811372     23  1.900                                             
     1      2.4879257     23  1.900                                             
     2     -4.0817478      7  1.900                                             
  local pseudopotential read in
  partial core-charges read in
  partial kinetic energy density read in
  atomic valenz-charges read in
  non local Contribution for L=           0  read in
    real space projection operators read in
  non local Contribution for L=           0  read in
    real space projection operators read in
  non local Contribution for L=           1  read in
    real space projection operators read in
  non local Contribution for L=           1  read in
    real space projection operators read in
    PAW grid and wavefunctions read in
 
   number of l-projection  operators is LMAX  =           4
   number of lm-projection operators is LMMAX =           8
 

 ----------------------------------------------------------------------------- 
|                                                                             |
|  ADVICE TO THIS USER RUNNING 'VASP/VAMP'   (HEAR YOUR MASTER'S VOICE ...):  |
|                                                                             |
|      You have a (more or less) 'large supercell' and for larger cells       |
|      it might be more efficient to use real space projection opertators     |
|      So try LREAL= Auto  in the INCAR   file.                               |
|      Mind:          For very  accurate calculation you might also keep the  |
|      reciprocal projection scheme          (i.e. LREAL=.FALSE.)             |
|                                                                             |
 ----------------------------------------------------------------------------- 

  PAW_PBE Si 05Jan2001                  :
 energy of atom  1       EATOM= -103.0669
 kinetic energy error for atom=    0.0004 (will be added to EATOM!!)
 
 
 POSCAR: Si55                                    
  positions in direct lattice
  No initial velocities read in
 exchange correlation table for  LEXCH =        8
   RHO(1)=    0.500       N(1)  =     2000
   RHO(2)=  100.500       N(2)  =     4000
 


--------------------------------------------------------------------------------------------------------


 ion  position               nearest neighbor table
   1  0.292  0.292  0.292-  32 2.35  40 2.35  41 2.35  38 2.35
   2  0.292  0.292  0.625-  33 2.35  41 2.35  42 2.35  39 2.35
   3  0.292  0.292  0.958-  31 2.35  40 2.35  42 2.35  37 2.35
   4  0.292  0.625  0.292-  35 2.35  43 2.35  44 2.35  41 2.35
   5  0.292  0.625  0.625-  36 2.35  55 2.35  44 2.35  45 2.35  42 2.35
   6  0.292  0.625  0.958-  34 2.35  43 2.35  45 2.35  40 2.35
   7  0.292  0.958  0.292-  29 2.35  37 2.35  38 2.35  44 2.35
   8  0.292  0.958  0.625-  30 2.35  38 2.35  39 2.35  45 2.35
   9  0.292  0.958  0.958-  28 2.35  37 2.35  39 2.35  43 2.35
  10  0.625  0.292  0.292-  41 2.35  49 2.35  50 2.35  47 2.35
  11  0.625  0.292  0.625-  42 2.35  55 2.35  50 2.35  51 2.35  48 2.35
  12  0.625  0.292  0.958-  40 2.35  49 2.35  51 2.35  46 2.35
  13  0.625  0.625  0.292-  44 2.35  55 2.35  52 2.35  53 2.35  50 2.35
  14  0.625  0.625  0.625-  45 2.35  55 2.35  53 2.35  54 2.35  51 2.35
  15  0.625  0.625  0.958-  43 2.35  52 2.35  54 2.35  49 2.35
  16  0.625  0.958  0.292-  38 2.35  46 2.35  47 2.35  53 2.35
  17  0.625  0.958  0.625-  39 2.35  47 2.35  48 2.35  54 2.35
  18  0.625  0.958  0.958-  37 2.35  46 2.35  48 2.35  52 2.35
  19  0.958  0.292  0.292-  50 2.35  32 2.35  31 2.35  29 2.35
  20  0.958  0.292  0.625-  51 2.35  33 2.35  32 2.35  30 2.35
  21  0.958  0.292  0.958-  49 2.35  31 2.35  33 2.35  28 2.35
  22  0.958  0.625  0.292-  53 2.35  35 2.35  34 2.35  32 2.35
  23  0.958  0.625  0.625-  54 2.35  36 2.35  35 2.35  33 2.35
  24  0.958  0.625  0.958-  52 2.35  34 2.35  36 2.35  31 2.35
  25  0.958  0.958  0.292-  47 2.35  29 2.35  28 2.35  35 2.35
  26  0.958  0.958  0.625-  48 2.35  30 2.35  29 2.35  36 2.35
  27  0.958  0.958  0.958-  46 2.35  28 2.35  30 2.35  34 2.35
  28  0.042  0.042  0.042-   9 2.35  27 2.35  25 2.35  21 2.35
  29  0.042  0.042  0.375-   7 2.35  25 2.35  26 2.35  19 2.35
  30  0.042  0.042  0.708-   8 2.35  26 2.35  27 2.35  20 2.35
  31  0.042  0.375  0.042-   3 2.35  21 2.35  19 2.35  24 2.35
  32  0.042  0.375  0.375-   1 2.35  19 2.35  20 2.35  22 2.35
  33  0.042  0.375  0.708-   2 2.35  20 2.35  21 2.35  23 2.35
  34  0.042  0.708  0.042-   6 2.35  24 2.35  22 2.35  27 2.35
  35  0.042  0.708  0.375-   4 2.35  22 2.35  23 2.35  25 2.35
  36  0.042  0.708  0.708-   5 2.35  23 2.35  24 2.35  26 2.35
  37  0.375  0.042  0.042-  18 2.35   9 2.35   7 2.35   3 2.35
  38  0.375  0.042  0.375-  16 2.35   8 2.35   7 2.35   1 2.35
  39  0.375  0.042  0.708-  17 2.35   9 2.35   8 2.35   2 2.35
  40  0.375  0.375  0.042-  12 2.35   3 2.35   1 2.35   6 2.35
  41  0.375  0.375  0.375-  10 2.35   2 2.35   1 2.35   4 2.35
  42  0.375  0.375  0.708-  11 2.35   3 2.35   2 2.35   5 2.35  55 2.72
  43  0.375  0.708  0.042-  15 2.35   6 2.35   4 2.35   9 2.35
  44  0.375  0.708  0.375-  13 2.35   5 2.35   4 2.35   7 2.35  55 2.72
  45  0.375  0.708  0.708-  14 2.35   6 2.35   5 2.35   8 2.35  55 2.72
  46  0.708  0.042  0.042-  27 2.35  18 2.35  16 2.35  12 2.35
  47  0.708  0.042  0.375-  25 2.35  17 2.35  16 2.35  10 2.35
  48  0.708  0.042  0.708-  26 2.35  18 2.35  17 2.35  11 2.35
  49  0.708  0.375  0.042-  21 2.35  12 2.35  10 2.35  15 2.35
  50  0.708  0.375  0.375-  19 2.35  11 2.35  10 2.35  13 2.35  55 2.72
  51  0.708  0.375  0.708-  20 2.35  12 2.35  11 2.35  14 2.35  55 2.72
  52  0.708  0.708  0.042-  24 2.35  15 2.35  13 2.35  18 2.35
  53  0.708  0.708  0.375-  22 2.35  14 2.35  13 2.35  16 2.35  55 2.72
  54  0.708  0.708  0.708-  23 2.35  15 2.35  14 2.35  17 2.35
  55  0.542  0.542  0.542-  14 2.35   5 2.35  13 2.35  11 2.35  53 2.72  42 2.72  51 2.72  50 2.72
                            45 2.72  44 2.72
 
  LATTYP: Found a face centered cubic cell.
 ALAT       =    16.2915000202
  
  Lattice vectors:
  
 A1 = (   9.9764655300,   0.0000000000,   5.7599150700)
 A2 = (   3.3254885100,   9.4059019200,   5.7599150700)
 A3 = (   0.0000000000,   0.0000000000,  11.5198301400)


Analysis of symmetry for initial positions (statically):
=====================================================================
 Subroutine PRICEL returns:
 Original cell was already a primitive cell.
 

 Routine SETGRP: Setting up the symmetry group for a 
 face centered cubic supercell.


 Subroutine GETGRP returns: Found 24 space group operations
 (whereof  6 operations were pure point group operations)
 out of a pool of 48 trial point group operations.


The static configuration has the point symmetry C_3v.
 The point group associated with its full space group is T_d .


Analysis of symmetry for dynamics (positions and initial velocities):
=====================================================================
 Subroutine PRICEL returns:
 Original cell was already a primitive cell.
 

 Routine SETGRP: Setting up the symmetry group for a 
 face centered cubic supercell.


 Subroutine GETGRP returns: Found 24 space group operations
 (whereof  6 operations were pure point group operations)
 out of a pool of 48 trial point group operations.


The dynamic configuration has the point symmetry C_3v.
 The point group associated with its full space group is T_d .


 Subroutine INISYM returns: Found 24 space group operations
 (whereof  6 operations are pure point group operations),
 and found     1 'primitive' translations

 
 
 KPOINTS: Automatic kpoint scheme                 

Automatic generation of k-mesh.
Space group operators:
 irot       det(A)        alpha          n_x          n_y          n_z        tau_x        tau_y        tau_z
    1     1.000000     0.000000     1.000000     0.000000     0.000000     0.000000     0.000000     0.000000
    2     1.000000   120.000000    -0.471405    -0.333333    -0.816497     0.000000     0.000000     0.000000
    3     1.000000   120.000000     0.471405     0.333333     0.816497     0.000000     0.000000     0.000000
    4    -1.000000   180.000000     0.288675     0.816497    -0.500000     0.000000     0.000000     0.000000
    5    -1.000000   180.000000     0.577350    -0.816497     0.000000     0.000000     0.000000     0.000000
    6    -1.000000   180.000000     0.866025     0.000000    -0.500000     0.000000     0.000000     0.000000
    7    -1.000000    90.000000    -0.816497    -0.577350    -0.000000     0.166667     0.000000     0.000000
    8    -1.000000   180.000000     0.866025     0.000000     0.500000     0.166667     0.000000     0.000000
    9    -1.000000    90.000000     0.408248    -0.577350     0.707107     0.166667     0.000000     0.000000
   10     1.000000   180.000000     0.816497     0.577350     0.000000     0.000000     0.000000     0.166667
   11     1.000000   120.000000     0.942809    -0.333333     0.000000     0.000000     0.000000     0.166667
   12     1.000000   120.000000    -0.000000    -1.000000    -0.000000     0.000000     0.000000     0.166667
   13    -1.000000    90.000000     0.816497     0.577350    -0.000000     0.000000     0.166667     0.000000
   14    -1.000000    90.000000     0.408248    -0.577350    -0.707107     0.000000     0.166667    -0.000000
   15    -1.000000   180.000000     0.288675     0.816497     0.500000    -0.000000     0.166667     0.000000
   16     1.000000   120.000000    -0.000000     1.000000    -0.000000     0.166667     0.000000     0.000000
   17     1.000000   120.000000     0.471405     0.333333    -0.816497     0.166667     0.000000     0.000000
   18     1.000000   180.000000    -0.408248     0.577350     0.707107     0.166667     0.000000     0.000000
   19    -1.000000    90.000000    -0.408248     0.577350    -0.707107     0.000000     0.000000     0.166667
   20    -1.000000   180.000000     0.000000    -0.000000     1.000000     0.000000     0.000000     0.166667
   21    -1.000000    90.000000    -0.408248     0.577350     0.707107     0.000000     0.000000     0.166667
   22     1.000000   120.000000    -0.942809     0.333333     0.000000    -0.000000     0.166667     0.000000
   23     1.000000   180.000000    -0.408248     0.577350    -0.707107     0.000000     0.166667    -0.000000
   24     1.000000   120.000000    -0.471405    -0.333333     0.816497     0.000000     0.166667    -0.000000
 
 Subroutine IBZKPT returns following result:
 ===========================================
 
 Found      8 irreducible k-points:
 
 Following reciprocal coordinates:
            Coordinates               Weight
  0.000000  0.000000  0.000000      1.000000
  0.250000  0.000000  0.000000      8.000000
  0.500000  0.000000  0.000000      4.000000
  0.250000  0.250000  0.000000      6.000000
  0.500000  0.250000  0.000000     24.000000
 -0.250000  0.250000  0.000000     12.000000
  0.500000  0.500000  0.000000      3.000000
 -0.250000  0.500000  0.250000      6.000000
 
 Following cartesian coordinates:
            Coordinates               Weight
  0.000000  0.000000  0.000000      1.000000
  0.025059 -0.008860  0.000000      8.000000
  0.050118 -0.017719  0.000000      4.000000
  0.025059  0.017719  0.000000      6.000000
  0.050118  0.008860  0.000000     24.000000
 -0.025059  0.035439  0.000000     12.000000
  0.050118  0.035439  0.000000      3.000000
 -0.037588  0.053158  0.021702      6.000000
 


--------------------------------------------------------------------------------------------------------




 Dimension of arrays:
   k-points           NKPTS =      8   k-points in BZ     NKDIM =      8   number of bands    NBANDS=    144
   number of dos      NEDOS =    301   number of ions     NIONS =     55
   non local maximal  LDIM  =      4   non local SUM 2l+1 LMDIM =      8
   total plane-waves  NPLWV = 343000
   max r-space proj   IRMAX =      1   max aug-charges    IRDMAX=  10807
   dimension x,y,z NGX =    70 NGY =   70 NGZ =   70
   dimension x,y,z NGXF=   140 NGYF=  140 NGZF=  140
   support grid    NGXF=   140 NGYF=  140 NGZF=  140
   ions per type =              55
   NGX,Y,Z   is equivalent  to a cutoff of  10.10, 10.10, 10.10 a.u.
   NGXF,Y,Z  is equivalent  to a cutoff of  20.20, 20.20, 20.20 a.u.

 SYSTEM =  Si                                      
 POSCAR =  Si55                                    

 Startparameter for this run:
   NWRITE =      2    write-flag & timer
   PREC   = normal    normal or accurate (medium, high low for compatibility)
   ISTART =      0    job   : 0-new  1-cont  2-samecut
   ICHARG =      2    charge: 1-file 2-atom 10-const
   ISPIN  =      1    spin polarized calculation?
   LNONCOLLINEAR =      F non collinear calculations
   LSORBIT =      F    spin-orbit coupling
   INIWAV =      1    electr: 0-lowe 1-rand  2-diag
   LASPH  =      F    aspherical Exc in radial PAW
   METAGGA=      F    non-selfconsistent MetaGGA calc.

 Electronic Relaxation 1
   ENCUT  =  550.0 eV  40.42 Ry    6.36 a.u.  22.03 22.03 22.03*2*pi/ulx,y,z
   ENINI  =  550.0     initial cutoff
   ENAUG  =  322.1 eV  augmentation charge cutoff
   NELM   =    200;   NELMIN=  2; NELMDL= -5     # of ELM steps 
   EDIFF  = 0.1E-05   stopping-criterion for ELM
   LREAL  =      F    real-space projection
   NLSPLINE    = F    spline interpolate recip. space projectors
   LCOMPAT=      F    compatible to vasp.4.4
   GGA_COMPAT  = T    GGA compatible to vasp.4.4-vasp.4.6
   LMAXPAW     = -100 max onsite density
   LMAXMIX     =    2 max onsite mixed and CHGCAR
   VOSKOWN=      0    Vosko Wilk Nusair interpolation
   ROPT   =    0.00000
 Ionic relaxation
   EDIFFG = -.5E-01   stopping-criterion for IOM
   NSW    =      0    number of steps for IOM
   NBLOCK =      1;   KBLOCK =      1    inner block; outer block 
   IBRION =     -1    ionic relax: 0-MD 1-quasi-New 2-CG
   NFREE  =      1    steps in history (QN), initial steepest desc. (CG)
   ISIF   =      2    stress and relaxation
   IWAVPR =     10    prediction:  0-non 1-charg 2-wave 3-comb
   ISYM   =      2    0-nonsym 1-usesym 2-fastsym
   LCORR  =      T    Harris-Foulkes like correction to forces

   POTIM  = 0.5000    time-step for ionic-motion
   TEIN   =    0.0    initial temperature
   TEBEG  =    0.0;   TEEND  =   0.0 temperature during run
   SMASS  =  -3.00    Nose mass-parameter (am)
   estimated Nose-frequenzy (Omega)   =  0.10E-29 period in steps =****** mass=  -0.303E-26a.u.
   SCALEE = 1.0000    scale energy and forces
   NPACO  =    256;   APACO  = 16.0  distance and # of slots for P.C.
   PSTRESS=    0.0 pullay stress

  Mass of Ions in am
   POMASS =  28.09
  Ionic Valenz
   ZVAL   =   4.00
  Atomic Wigner-Seitz radii
   RWIGS  =  -1.00
  virtual crystal weights 
   VCA    =   1.00
   NELECT =     221.0000    total number of electrons
   NUPDOWN=      -1.0000    fix difference up-down

 DOS related values:
   EMIN   =  10.00;   EMAX   =-10.00  energy-range for DOS
   EFERMI =   0.00
   ISMEAR =     0;   SIGMA  =   0.05  broadening in eV -4-tet -1-fermi 0-gaus

 Electronic relaxation 2 (details)
   IALGO  =     38    algorithm
   LDIAG  =      T    sub-space diagonalisation (order eigenvalues)
   LSUBROT=      F    optimize rotation matrix (better conditioning)
   TURBO    =      0    0=normal 1=particle mesh
   IRESTART =      0    0=no restart 2=restart with 2 vectors
   NREBOOT  =      0    no. of reboots
   NMIN     =      0    reboot dimension
   EREF     =   0.00    reference energy to select bands
   IMIX   =      4    mixing-type and parameters
     AMIX     =   0.20;   BMIX     =  1.00
     AMIX_MAG =   0.80;   BMIX_MAG =  1.00
     AMIN     =   0.10
     WC   =   100.;   INIMIX=   1;  MIXPRE=   1;  MAXMIX= -45

 Intra band minimization:
   WEIMIN = 0.0000     energy-eigenvalue tresh-hold
   EBREAK =  0.17E-08  absolut break condition
   DEPER  =   0.30     relativ break condition  

   TIME   =   0.40     timestep for ELM

  volume/ion in A,a.u.               =      19.65       132.63
  Fermi-wavevector in a.u.,A,eV,Ry     =   0.964416  1.822482 12.654761  0.930099
  Thomas-Fermi vector in A             =   2.094046
 
 Write flags
   LWAVE        =      T    write WAVECAR
   LDOWNSAMPLE  =      F    k-point downsampling of WAVECAR
   LCHARG       =      T    write CHGCAR
   LVTOT        =      F    write LOCPOT, total local potential
   LVHAR        =      F    write LOCPOT, Hartree potential only
   LELF         =      F    write electronic localiz. function (ELF)
   LORBIT       =     10    0 simple, 1 ext, 2 COOP (PROOUT), +10 PAW based schemes


 Dipole corrections
   LMONO  =      F    monopole corrections only (constant potential shift)
   LDIPOL =      F    correct potential (dipole corrections)
   IDIPOL =      0    1-x, 2-y, 3-z, 4-all directions 
   EPSILON=  1.0000000 bulk dielectric constant

 Exchange correlation treatment:
   GGA     =    --    GGA type
   LEXCH   =     8    internal setting for exchange type
   VOSKOWN=      0    Vosko Wilk Nusair interpolation
   LHFCALC =     F    Hartree Fock is set to
   LHFONE  =     F    Hartree Fock one center treatment
   AEXX    =    0.0000 exact exchange contribution

 Linear response parameters
   LEPSILON=     F    determine dielectric tensor
   LRPA    =     F    only Hartree local field effects (RPA)
   LNABLA  =     F    use nabla operator in PAW spheres
   LVEL    =     F    velocity operator in full k-point grid
   LINTERFAST=   F  fast interpolation
   KINTER  =     0    interpolate to denser k-point grid
   CSHIFT  =0.1000    complex shift for real part using Kramers Kronig
   OMEGAMAX=  -1.0    maximum frequency
   DEG_THRESHOLD= 0.2000000E-02 threshold for treating states as degnerate
   RTIME   =   -0.100 relaxation time in fs
  (WPLASMAI=    0.000 imaginary part of plasma frequency in eV, 0.658/RTIME)
   DFIELD  = 0.0000000 0.0000000 0.0000000 field for delta impulse in time
 
 Orbital magnetization related:
   ORBITALMAG=     F  switch on orbital magnetization
   LCHIMAG   =     F  perturbation theory with respect to B field
   DQ        =  0.001000  dq finite difference perturbation B field
   LLRAUG    =     F  two centre corrections for induced B field



--------------------------------------------------------------------------------------------------------


 Static calculation
 charge density and potential will be updated during run
 non-spin polarized calculation
 Variant of blocked Davidson
 Davidson routine will perform the subspace rotation
 perform sub-space diagonalisation
    after iterative eigenvector-optimisation
 modified Broyden-mixing scheme, WC =      100.0
 initial mixing is a Kerker type mixing with AMIX =  0.2000 and BMIX =      1.0000
 Hartree-type preconditioning will be used
 using additional bands           33
 reciprocal scheme for non local part
 use partial core corrections
 calculate Harris-corrections to forces 
   (improved forces if not selfconsistent)
 use gradient corrections 
 use of overlap-Matrix (Vanderbilt PP)
 Gauss-broadening in eV      SIGMA  =   0.05


--------------------------------------------------------------------------------------------------------


  energy-cutoff  :      550.00
  volume of cell :     1080.99
      direct lattice vectors                 reciprocal lattice vectors
     9.976465530  0.000000000  5.759915070     0.100235900 -0.035438742  0.000000000
     3.325488510  9.405901920  5.759915070     0.000000000  0.106316227  0.000000000
     0.000000000  0.000000000 11.519830140    -0.050117950 -0.035438742  0.086806836

  length of vectors
    11.519830124 11.519830136 11.519830140     0.106316227  0.106316227  0.106316227


 
 k-points in units of 2pi/SCALE and weight: Automatic kpoint scheme                 
   0.00000000  0.00000000  0.00000000       0.016
   0.02505897 -0.00885969  0.00000000       0.125
   0.05011795 -0.01771937  0.00000000       0.062
   0.02505897  0.01771937  0.00000000       0.094
   0.05011795  0.00885969  0.00000000       0.375
  -0.02505897  0.03543874  0.00000000       0.188
   0.05011795  0.03543874  0.00000000       0.047
  -0.03758846  0.05315811  0.02170171       0.094
 
 k-points in reciprocal lattice and weights: Automatic kpoint scheme                 
   0.00000000  0.00000000  0.00000000       0.016
   0.25000000  0.00000000  0.00000000       0.125
   0.50000000  0.00000000  0.00000000       0.062
   0.25000000  0.25000000  0.00000000       0.094
   0.50000000  0.25000000  0.00000000       0.375
  -0.25000000  0.25000000  0.00000000       0.188
   0.50000000  0.50000000  0.00000000       0.047
  -0.25000000  0.50000000  0.25000000       0.094
 
 position of ions in fractional coordinates (direct lattice) 
   0.29166667  0.29166667  0.29166667
   0.29166667  0.29166667  0.62500000
   0.29166667  0.29166667  0.95833333
   0.29166667  0.62500000  0.29166667
   0.29166667  0.62500000  0.62500000
   0.29166667  0.62500000  0.95833333
   0.29166667  0.95833333  0.29166667
   0.29166667  0.95833333  0.62500000
   0.29166667  0.95833333  0.95833333
   0.62500000  0.29166667  0.29166667
   0.62500000  0.29166667  0.62500000
   0.62500000  0.29166667  0.95833333
   0.62500000  0.62500000  0.29166667
   0.62500000  0.62500000  0.62500000
   0.62500000  0.62500000  0.95833333
   0.62500000  0.95833333  0.29166667
   0.62500000  0.95833333  0.62500000
   0.62500000  0.95833333  0.95833333
   0.95833333  0.29166667  0.29166667
   0.95833333  0.29166667  0.62500000
   0.95833333  0.29166667  0.95833333
   0.95833333  0.62500000  0.29166667
   0.95833333  0.62500000  0.62500000
   0.95833333  0.62500000  0.95833333
   0.95833333  0.95833333  0.29166667
   0.95833333  0.95833333  0.62500000
   0.95833333  0.95833333  0.95833333
   0.04166667  0.04166667  0.04166667
   0.04166667  0.04166667  0.37500000
   0.04166667  0.04166667  0.70833333
   0.04166667  0.37500000  0.04166667
   0.04166667  0.37500000  0.37500000
   0.04166667  0.37500000  0.70833333
   0.04166667  0.70833333  0.04166667
   0.04166667  0.70833333  0.37500000
   0.04166667  0.70833333  0.70833333
   0.37500000  0.04166667  0.04166667
   0.37500000  0.04166667  0.37500000
   0.37500000  0.04166667  0.70833333
   0.37500000  0.37500000  0.04166667
   0.37500000  0.37500000  0.37500000
   0.37500000  0.37500000  0.70833333
   0.37500000  0.70833333  0.04166667
   0.37500000  0.70833333  0.37500000
   0.37500000  0.70833333  0.70833333
   0.70833333  0.04166667  0.04166667
   0.70833333  0.04166667  0.37500000
   0.70833333  0.04166667  0.70833333
   0.70833333  0.37500000  0.04166667
   0.70833333  0.37500000  0.37500000
   0.70833333  0.37500000  0.70833333
   0.70833333  0.70833333  0.04166667
   0.70833333  0.70833333  0.37500000
   0.70833333  0.70833333  0.70833333
   0.54166667  0.54166667  0.54166667
 
 position of ions in cartesian coordinates  (Angst):
   3.87973659  2.74338806  6.71990091
   3.87973659  2.74338806 10.55984429
   3.87973659  2.74338806 14.39978767
   4.98823276  5.87868870  8.63987260
   4.98823276  5.87868870 12.47981598
   4.98823276  5.87868870 16.31975937
   6.09672893  9.01398934 10.55984429
   6.09672893  9.01398934 14.39978767
   6.09672893  9.01398934 18.23973106
   7.20522510  2.74338806  8.63987260
   7.20522510  2.74338806 12.47981598
   7.20522510  2.74338806 16.31975937
   8.31372128  5.87868870 10.55984429
   8.31372128  5.87868870 14.39978767
   8.31372128  5.87868870 18.23973106
   9.42221745  9.01398934 12.47981598
   9.42221745  9.01398934 16.31975937
   9.42221745  9.01398934 20.15970275
  10.53071362  2.74338806 10.55984429
  10.53071362  2.74338806 14.39978767
  10.53071362  2.74338806 18.23973106
  11.63920979  5.87868870 12.47981598
  11.63920979  5.87868870 16.31975937
  11.63920979  5.87868870 20.15970275
  12.74770596  9.01398934 14.39978767
  12.74770596  9.01398934 18.23973106
  12.74770596  9.01398934 22.07967444
   0.55424808  0.39191258  0.95998584
   0.55424808  0.39191258  4.79992922
   0.55424808  0.39191258  8.63987260
   1.66274425  3.52721322  2.87995753
   1.66274425  3.52721322  6.71990091
   1.66274425  3.52721322 10.55984430
   2.77124042  6.66251386  4.79992922
   2.77124042  6.66251386  8.63987261
   2.77124042  6.66251386 12.47981599
   3.87973659  0.39191258  2.87995753
   3.87973659  0.39191258  6.71990091
   3.87973659  0.39191258 10.55984430
   4.98823277  3.52721322  4.79992922
   4.98823277  3.52721322  8.63987261
   4.98823277  3.52721322 12.47981599
   6.09672894  6.66251386  6.71990091
   6.09672894  6.66251386 10.55984430
   6.09672894  6.66251386 14.39978768
   7.20522511  0.39191258  4.79992922
   7.20522511  0.39191258  8.63987261
   7.20522511  0.39191258 12.47981599
   8.31372128  3.52721322  6.71990091
   8.31372128  3.52721322 10.55984430
   8.31372128  3.52721322 14.39978768
   9.42221745  6.66251386  8.63987260
   9.42221745  6.66251386 12.47981599
   9.42221745  6.66251386 16.31975937
   7.20522511  5.09486354 12.47981599
 


--------------------------------------------------------------------------------------------------------


 k-point  1 :   0.0000 0.0000 0.0000  plane waves:   31415
 k-point  2 :   0.2500 0.0000 0.0000  plane waves:   31608
 k-point  3 :   0.5000 0.0000 0.0000  plane waves:   31638
 k-point  4 :   0.2500 0.2500 0.0000  plane waves:   31695
 k-point  5 :   0.5000 0.2500 0.0000  plane waves:   31649
 k-point  6 :  -0.2500 0.2500 0.0000  plane waves:   31674
 k-point  7 :   0.5000 0.5000 0.0000  plane waves:   31716
 k-point  8 :  -0.2500 0.5000 0.2500  plane waves:   31684

 maximum and minimum number of plane-waves per node :     31716    31415

 maximum number of plane-waves:     31716
 maximum index in each direction: 
   IXMAX=   22   IYMAX=   22   IZMAX=   22
   IXMIN=  -22   IYMIN=  -22   IZMIN=  -22


 serial   3D FFT for wavefunctions
 parallel 3D FFT for charge:
    minimum data exchange during FFTs selected (reduces bandwidth)


 total amount of memory used by VASP MPI-rank0   123928. kBytes
=======================================================================

   base      :      30000. kBytes
   nonl-proj :      44165. kBytes
   fftplans  :       5382. kBytes
   grid      :      19496. kBytes
   one-center:        168. kBytes
   wavefun   :      24717. kBytes
 
     INWAV:  cpu time    0.0000: real time    0.0000
 Broyden mixing: mesh for mixing (old mesh)
   NGX = 45   NGY = 45   NGZ = 45
  (NGX  =140   NGY  =140   NGZ  =140)
  gives a total of  91125 points

 initial charge density was supplied:
 charge density of overlapping atoms calculated
 number of electron     220.0000000 magnetization 
 keeping initial charge density in first step


--------------------------------------------------------------------------------------------------------


 Maximum index for augmentation-charges          503 (set IRDMAX)


--------------------------------------------------------------------------------------------------------


 First call to EWALD:  gamma=   0.173
 Maximum number of real-space cells 3x 3x 3
 Maximum number of reciprocal cells 3x 3x 3

    FEWALD:  cpu time    0.0742: real time    0.1101


--------------------------------------- Iteration      1(   1)  ---------------------------------------


    POTLOK:  cpu time    0.1664: real time    0.1736
    SETDIJ:  cpu time    0.0170: real time    0.0175
     EDDAV:  cpu time    4.0853: real time    4.2632
       DOS:  cpu time    0.0379: real time    0.0393
    --------------------------------------------
      LOOP:  cpu time    4.3066: real time    4.4936

 eigenvalue-minimisations  :  2304
 total energy-change (2. order) : 0.6032591E+03  (-0.8800103E+04)
 number of electron     220.0000000 magnetization 
 augmentation part      220.0000000 magnetization 

 Free energy of the ion-electron system (eV)
  ---------------------------------------------------
  alpha Z        PSCENC =        94.20124788
  Ewald energy   TEWEN  =     -6283.32455330
  -Hartree energ DENC   =      -334.73833171
  -exchange      EXHF   =         0.00000000
  -V(xc)+E(xc)   XCENC  =      -509.16019900
  PAW double counting   =      4846.80897882    -3879.17847845
  entropy T*S    EENTRO =        -0.01450755
  eigenvalues    EBANDS =      1000.00916998
  atomic energy  EATOM  =      5668.65580356
  Solvation  Ediel_sol  =         0.00000000
  ---------------------------------------------------
  free energy    TOTEN  =       603.25913024 eV

  energy without entropy =      603.27363779  energy(sigma->0) =      603.26638401


--------------------------------------------------------------------------------------------------------




--------------------------------------- Iteration      1(   2)  ---------------------------------------


     EDDAV:  cpu time    5.4557: real time    5.5093
       DOS:  cpu time    0.5209: real time    0.5277
    --------------------------------------------
      LOOP:  cpu time    5.9766: real time    6.0370

 eigenvalue-minimisations  :  2832
 total energy-change (2. order) :-0.8424760E+03  (-0.8126482E+03)
 number of electron     220.0000000 magnetization 
 augmentation part      220.0000000 magnetization 

 Free energy of the ion-electron system (eV)
  ---------------------------------------------------
  alpha Z        PSCENC =        94.20124788
  Ewald energy   TEWEN  =     -6283.32455330
  -Hartree energ DENC   =      -334.73833171
  -exchange      EXHF   =         0.00000000
  -V(xc)+E(xc)   XCENC  =      -509.16019900
  PAW double counting   =      4846.80897882    -3879.17847845
  entropy T*S    EENTRO =        -0.00744097
  eigenvalues    EBANDS =       157.52608136
  atomic energy  EATOM  =      5668.65580356
  Solvation  Ediel_sol  =         0.00000000
  ---------------------------------------------------
  free energy    TOTEN  =      -239.21689181 eV

  energy without entropy =     -239.20945084  energy(sigma->0) =     -239.21317132


--------------------------------------------------------------------------------------------------------




--------------------------------------- Iteration      1(   3)  ---------------------------------------


     EDDAV:  cpu time    5.9434: real time    6.6112
       DOS:  cpu time    0.4334: real time    0.8707
    --------------------------------------------
      LOOP:  cpu time    6.3768: real time    7.4820

 eigenvalue-minimisations  :  2856
 total energy-change (2. order) :-0.5200438E+02  (-0.5118835E+02)
 number of electron     220.0000000 magnetization 
 augmentation part      220.0000000 magnetization 

 Free energy of the ion-electron system (eV)
  ---------------------------------------------------
  alpha Z        PSCENC =        94.20124788
  Ewald energy   TEWEN  =     -6283.32455330
  -Hartree energ DENC   =      -334.73833171
  -exchange      EXHF   =         0.00000000
  -V(xc)+E(xc)   XCENC  =      -509.16019900
  PAW double counting   =      4846.80897882    -3879.17847845
  entropy T*S    EENTRO =        -0.02358507
  eigenvalues    EBANDS =       105.53785014
  atomic energy  EATOM  =      5668.65580356
  Solvation  Ediel_sol  =         0.00000000
  ---------------------------------------------------
  free energy    TOTEN  =      -291.22126712 eV

  energy without entropy =     -291.19768205  energy(sigma->0) =     -291.20947459


--------------------------------------------------------------------------------------------------------




--------------------------------------- Iteration      1(   4)  ---------------------------------------


     EDDAV:  cpu time    3.7095: real time    6.2019
       DOS:  cpu time    0.3336: real time    0.6661
    --------------------------------------------
      LOOP:  cpu time    4.0431: real time    6.8680

 eigenvalue-minimisations  :  2904
 total energy-change (2. order) :-0.1252121E+01  (-0.1242107E+01)
 number of electron     220.0000000 magnetization 
 augmentation part      220.0000000 magnetization 

 Free energy of the ion-electron system (eV)
  ---------------------------------------------------
  alpha Z        PSCENC =        94.20124788
  Ewald energy   TEWEN  =     -6283.32455330
  -Hartree energ DENC   =      -334.73833171
  -exchange      EXHF   =         0.00000000
  -V(xc)+E(xc)   XCENC  =      -509.16019900
  PAW double counting   =      4846.80897882    -3879.17847845
  entropy T*S    EENTRO =        -0.02355197
  eigenvalues    EBANDS =       104.28569567
  atomic energy  EATOM  =      5668.65580356
  Solvation  Ediel_sol  =         0.00000000
  ---------------------------------------------------
  free energy    TOTEN  =      -292.47338849 eV

  energy without entropy =     -292.44983652  energy(sigma->0) =     -292.46161251


--------------------------------------------------------------------------------------------------------




--------------------------------------- Iteration      1(   5)  ---------------------------------------


     EDDAV:  cpu time    4.8595: real time    5.3217
       DOS:  cpu time    0.0037: real time    0.0037
    CHARGE:  cpu time    0.2125: real time    0.2148
    MIXING:  cpu time    0.0040: real time    0.0066
    --------------------------------------------
      LOOP:  cpu time    5.0796: real time    5.5467

 eigenvalue-minimisations  :  2856
 total energy-change (2. order) :-0.2500460E-01  (-0.2496113E-01)
 number of electron     221.0000000 magnetization 
 augmentation part      -13.0427513 magnetization 

 Broyden mixing:
  rms(total) = 0.25839E+01    rms(broyden)= 0.25837E+01
  rms(prec ) = 0.29551E+01
  weight for this iteration     100.00

 Free energy of the ion-electron system (eV)
  ---------------------------------------------------
  alpha Z        PSCENC =        94.20124788
  Ewald energy   TEWEN  =     -6283.32455330
  -Hartree energ DENC   =      -334.73833171
  -exchange      EXHF   =         0.00000000
  -V(xc)+E(xc)   XCENC  =      -509.16019900
  PAW double counting   =      4846.80897882    -3879.17847845
  entropy T*S    EENTRO =        -0.02345554
  eigenvalues    EBANDS =       104.26059464
  atomic energy  EATOM  =      5668.65580356
  Solvation  Ediel_sol  =         0.00000000
  ---------------------------------------------------
  free energy    TOTEN  =      -292.49839309 eV

  energy without entropy =     -292.47493755  energy(sigma->0) =     -292.48666532


--------------------------------------------------------------------------------------------------------




--------------------------------------- Iteration      1(   6)  ---------------------------------------


    POTLOK:  cpu time    0.0881: real time    0.0892
    SETDIJ:  cpu time    0.0034: real time    0.0035
     EDDAV:  cpu time    4.7569: real time    4.7998
       DOS:  cpu time    0.4428: real time    0.4488
    CHARGE:  cpu time    0.1680: real time    0.1695
    MIXING:  cpu time    0.0054: real time    0.0063
    --------------------------------------------
      LOOP:  cpu time    5.4648: real time    5.5172

 eigenvalue-minimisations  :  2808
 total energy-change (2. order) : 0.2234620E+01  (-0.9869334E-01)
 number of electron     221.0000000 magnetization 
 augmentation part      -12.9535804 magnetization 

 Broyden mixing:
  rms(total) = 0.20808E+01    rms(broyden)= 0.20808E+01
  rms(prec ) = 0.23572E+01
  weight for this iteration     100.00

 eigenvalues of (default mixing * dielectric matrix)
  average eigenvalue GAMMA=   5.0450
  5.0450

 Free energy of the ion-electron system (eV)
  ---------------------------------------------------
  alpha Z        PSCENC =        94.20124788
  Ewald energy   TEWEN  =     -6283.32455330
  -Hartree energ DENC   =      -355.20634906
  -exchange      EXHF   =         0.00000000
  -V(xc)+E(xc)   XCENC  =      -503.27775316
  PAW double counting   =      7369.94883272    -6403.82709770
  entropy T*S    EENTRO =        -0.02429634
  eigenvalues    EBANDS =       122.59039277
  atomic energy  EATOM  =      5668.65580356
  Solvation  Ediel_sol  =         0.00000000
  ---------------------------------------------------
  free energy    TOTEN  =      -290.26377262 eV

  energy without entropy =     -290.23947629  energy(sigma->0) =     -290.25162446


--------------------------------------------------------------------------------------------------------




--------------------------------------- Iteration      1(   7)  ---------------------------------------


    POTLOK:  cpu time    0.0847: real time    0.0859
    SETDIJ:  cpu time    0.0056: real time    0.0056
     EDDAV:  cpu time    3.9068: real time    3.9384
       DOS:  cpu time    0.0044: real time    0.0044
    CHARGE:  cpu time    0.1625: real time    0.1637
    MIXING:  cpu time    0.0064: real time    0.0064
    --------------------------------------------
      LOOP:  cpu time    4.1704: real time    4.2044

 eigenvalue-minimisations  :  2712
 total energy-change (2. order) : 0.2981180E+01  (-0.6861831E+00)
 number of electron     221.0000000 magnetization 
 augmentation part      -12.7007873 magnetization 

 Broyden mixing:
  rms(total) = 0.29276E+00    rms(broyden)= 0.29276E+00
  rms(prec ) = 0.35064E+00
  weight for this iteration     100.00

 eigenvalues of (default mixing * dielectric matrix)
  average eigenvalue GAMMA=   3.1227
  1.2522  4.9933

 Free energy of the ion-electron system (eV)
  ---------------------------------------------------
  alpha Z        PSCENC =        94.20124788
  Ewald energy   TEWEN  =     -6283.32455330
  -Hartree energ DENC   =      -432.87468264
  -exchange      EXHF   =         0.00000000
  -V(xc)+E(xc)   XCENC  =      -491.02490507
  PAW double counting   =     22083.53034320   -21122.61550063
  entropy T*S    EENTRO =        -0.01340879
  eigenvalues    EBANDS =       196.18306297
  atomic energy  EATOM  =      5668.65580356
  Solvation  Ediel_sol  =         0.00000000
  ---------------------------------------------------
  free energy    TOTEN  =      -287.28259283 eV

  energy without entropy =     -287.26918404  energy(sigma->0) =     -287.27588843


--------------------------------------------------------------------------------------------------------




--------------------------------------- Iteration      1(   8)  ---------------------------------------


    POTLOK:  cpu time    0.0844: real time    0.0856
    SETDIJ:  cpu time    0.0056: real time    0.0057
     EDDAV:  cpu time    4.5914: real time    4.6330
       DOS:  cpu time    0.5089: real time    0.5154
    CHARGE:  cpu time    0.2382: real time    0.2406
    MIXING:  cpu time    0.0194: real time    0.0196
    --------------------------------------------
      LOOP:  cpu time    5.4479: real time    5.4999

 eigenvalue-minimisations  :  2952
 total energy-change (2. order) :-0.2683544E-01  (-0.4867660E-01)
 number of electron     221.0000000 magnetization 
 augmentation part      -12.6891106 magnetization 

 Broyden mixing:
  rms(total) = 0.11047E+00    rms(broyden)= 0.11047E+00
  rms(prec ) = 0.14841E+00
  weight for this iteration     100.00

 eigenvalues of (default mixing * dielectric matrix)
  average eigenvalue GAMMA=   2.4299
  4.9642  1.1627  1.1627

 Free energy of the ion-electron system (eV)
  ---------------------------------------------------
  alpha Z        PSCENC =        94.20124788
  Ewald energy   TEWEN  =     -6283.32455330
  -Hartree energ DENC   =      -439.95044633
  -exchange      EXHF   =         0.00000000
  -V(xc)+E(xc)   XCENC  =      -489.61776121
  PAW double counting   =     24376.25025206   -23415.58054722
  entropy T*S    EENTRO =        -0.01751042
  eigenvalues    EBANDS =       202.07408670
  atomic energy  EATOM  =      5668.65580356
  Solvation  Ediel_sol  =         0.00000000
  ---------------------------------------------------
  free energy    TOTEN  =      -287.30942827 eV

  energy without entropy =     -287.29191786  energy(sigma->0) =     -287.30067306


--------------------------------------------------------------------------------------------------------




--------------------------------------- Iteration      1(   9)  ---------------------------------------


    POTLOK:  cpu time    0.1304: real time    0.1323
    SETDIJ:  cpu time    0.0877: real time    0.0885
     EDDAV:  cpu time    4.4749: real time    4.9777
       DOS:  cpu time    0.0053: real time    0.0053
    CHARGE:  cpu time    0.1802: real time    0.1814
    MIXING:  cpu time    0.0078: real time    0.0078
    --------------------------------------------
      LOOP:  cpu time    4.8862: real time    5.3929

 eigenvalue-minimisations  :  2832
 total energy-change (2. order) : 0.8246014E-02  (-0.5493119E-02)
 number of electron     221.0000000 magnetization 
 augmentation part      -12.7000088 magnetization 

 Broyden mixing:
  rms(total) = 0.75942E-01    rms(broyden)= 0.75942E-01
  rms(prec ) = 0.96127E-01
  weight for this iteration     100.00

 eigenvalues of (default mixing * dielectric matrix)
  average eigenvalue GAMMA=   2.4334
  4.8659  2.5834  1.1421  1.1421

 Free energy of the ion-electron system (eV)
  ---------------------------------------------------
  alpha Z        PSCENC =        94.20124788
  Ewald energy   TEWEN  =     -6283.32455330
  -Hartree energ DENC   =      -438.31434186
  -exchange      EXHF   =         0.00000000
  -V(xc)+E(xc)   XCENC  =      -489.71435425
  PAW double counting   =     24344.00220579   -23383.03848473
  entropy T*S    EENTRO =        -0.01935671
  eigenvalues    EBANDS =       200.25065136
  atomic energy  EATOM  =      5668.65580356
  Solvation  Ediel_sol  =         0.00000000
  ---------------------------------------------------
  free energy    TOTEN  =      -287.30118226 eV

  energy without entropy =     -287.28182555  energy(sigma->0) =     -287.29150390


--------------------------------------------------------------------------------------------------------




--------------------------------------- Iteration      1(  10)  ---------------------------------------


    POTLOK:  cpu time    0.0848: real time    0.0859
    SETDIJ:  cpu time    0.0045: real time    0.0046
     EDDAV:  cpu time    4.1208: real time    4.1546
       DOS:  cpu time    0.0047: real time    0.0047
    CHARGE:  cpu time    0.1696: real time    0.1707
    MIXING:  cpu time    0.0055: real time    0.0056
    --------------------------------------------
      LOOP:  cpu time    4.3899: real time    4.4260

 eigenvalue-minimisations  :  2880
 total energy-change (2. order) :-0.2308104E-02  (-0.2466855E-02)
 number of electron     221.0000000 magnetization 
 augmentation part      -12.7105585 magnetization 

 Broyden mixing:
  rms(total) = 0.41754E-01    rms(broyden)= 0.41754E-01
  rms(prec ) = 0.50180E-01
  weight for this iteration     100.00

 eigenvalues of (default mixing * dielectric matrix)
  average eigenvalue GAMMA=   2.5434
  4.4757  4.4757  1.5860  1.0899  1.0899

 Free energy of the ion-electron system (eV)
  ---------------------------------------------------
  alpha Z        PSCENC =        94.20124788
  Ewald energy   TEWEN  =     -6283.32455330
  -Hartree energ DENC   =      -437.41838288
  -exchange      EXHF   =         0.00000000
  -V(xc)+E(xc)   XCENC  =      -489.71142587
  PAW double counting   =     24391.62069454   -23430.37770571
  entropy T*S    EENTRO =        -0.01969705
  eigenvalues    EBANDS =       199.07052846
  atomic energy  EATOM  =      5668.65580356
  Solvation  Ediel_sol  =         0.00000000
  ---------------------------------------------------
  free energy    TOTEN  =      -287.30349036 eV

  energy without entropy =     -287.28379331  energy(sigma->0) =     -287.29364184


--------------------------------------------------------------------------------------------------------




--------------------------------------- Iteration      1(  11)  ---------------------------------------


    POTLOK:  cpu time    0.0764: real time    0.0810
    SETDIJ:  cpu time    0.0043: real time    0.0043
     EDDAV:  cpu time    3.9209: real time    3.9549
       DOS:  cpu time    0.0040: real time    0.0040
    CHARGE:  cpu time    0.1617: real time    0.1628
    MIXING:  cpu time    0.0051: real time    0.0051
    --------------------------------------------
      LOOP:  cpu time    4.1722: real time    4.2121

 eigenvalue-minimisations  :  2688
 total energy-change (2. order) :-0.3925300E-02  (-0.9804517E-03)
 number of electron     221.0000000 magnetization 
 augmentation part      -12.7195095 magnetization 

 Broyden mixing:
  rms(total) = 0.23750E-01    rms(broyden)= 0.23750E-01
  rms(prec ) = 0.28193E-01
  weight for this iteration     100.00

 eigenvalues of (default mixing * dielectric matrix)
  average eigenvalue GAMMA=   2.4005
  4.5418  4.5418  1.9554  0.9067  1.2287  1.2287

 Free energy of the ion-electron system (eV)
  ---------------------------------------------------
  alpha Z        PSCENC =        94.20124788
  Ewald energy   TEWEN  =     -6283.32455330
  -Hartree energ DENC   =      -436.77633185
  -exchange      EXHF   =         0.00000000
  -V(xc)+E(xc)   XCENC  =      -489.71535284
  PAW double counting   =     24323.77070543   -23362.33479074
  entropy T*S    EENTRO =        -0.02002724
  eigenvalues    EBANDS =       198.23588344
  atomic energy  EATOM  =      5668.65580356
  Solvation  Ediel_sol  =         0.00000000
  ---------------------------------------------------
  free energy    TOTEN  =      -287.30741566 eV

  energy without entropy =     -287.28738843  energy(sigma->0) =     -287.29740205


--------------------------------------------------------------------------------------------------------




--------------------------------------- Iteration      1(  12)  ---------------------------------------


    POTLOK:  cpu time    0.0779: real time    0.0790
    SETDIJ:  cpu time    0.0086: real time    0.0087
     EDDAV:  cpu time    5.1826: real time    5.2293
       DOS:  cpu time    0.5235: real time    0.5288
    CHARGE:  cpu time    0.2520: real time    0.2534
    MIXING:  cpu time    0.0315: real time    0.0317
    --------------------------------------------
      LOOP:  cpu time    6.0762: real time    6.1309

 eigenvalue-minimisations  :  2976
 total energy-change (2. order) :-0.1423742E-02  (-0.1594005E-03)
 number of electron     221.0000000 magnetization 
 augmentation part      -12.7208697 magnetization 

 Broyden mixing:
  rms(total) = 0.14728E-01    rms(broyden)= 0.14728E-01
  rms(prec ) = 0.16806E-01
  weight for this iteration     100.00

 eigenvalues of (default mixing * dielectric matrix)
  average eigenvalue GAMMA=   2.6565
  5.1864  5.1864  3.2679  1.6914  1.2214  0.9524  1.0899

 Free energy of the ion-electron system (eV)
  ---------------------------------------------------
  alpha Z        PSCENC =        94.20124788
  Ewald energy   TEWEN  =     -6283.32455330
  -Hartree energ DENC   =      -436.95578631
  -exchange      EXHF   =         0.00000000
  -V(xc)+E(xc)   XCENC  =      -489.66639049
  PAW double counting   =     24255.60059615   -23294.11417439
  entropy T*S    EENTRO =        -0.01986474
  eigenvalues    EBANDS =       198.31428223
  atomic energy  EATOM  =      5668.65580356
  Solvation  Ediel_sol  =         0.00000000
  ---------------------------------------------------
  free energy    TOTEN  =      -287.30883941 eV

  energy without entropy =     -287.28897467  energy(sigma->0) =     -287.29890704


--------------------------------------------------------------------------------------------------------




--------------------------------------- Iteration      1(  13)  ---------------------------------------


    POTLOK:  cpu time    0.1320: real time    0.1332
    SETDIJ:  cpu time    0.0752: real time    0.0755
     EDDAV:  cpu time    4.5566: real time    4.9830
       DOS:  cpu time    0.0117: real time    0.0118
    CHARGE:  cpu time    0.3578: real time    0.3599
    MIXING:  cpu time    0.0194: real time    0.0195
    --------------------------------------------
      LOOP:  cpu time    5.1527: real time    5.5830

 eigenvalue-minimisations  :  2688
 total energy-change (2. order) :-0.7029813E-03  (-0.9334919E-04)
 number of electron     221.0000000 magnetization 
 augmentation part      -12.7218204 magnetization 

 Broyden mixing:
  rms(total) = 0.57968E-02    rms(broyden)= 0.57968E-02
  rms(prec ) = 0.73335E-02
  weight for this iteration     100.00

 eigenvalues of (default mixing * dielectric matrix)
  average eigenvalue GAMMA=   2.6185
  5.2748  4.9062  4.0899  2.0518  1.3223  1.3223  0.9905  0.9905

 Free energy of the ion-electron system (eV)
  ---------------------------------------------------
  alpha Z        PSCENC =        94.20124788
  Ewald energy   TEWEN  =     -6283.32455330
  -Hartree energ DENC   =      -437.20374609
  -exchange      EXHF   =         0.00000000
  -V(xc)+E(xc)   XCENC  =      -489.61300493
  PAW double counting   =     24184.48886800   -23222.97214415
  entropy T*S    EENTRO =        -0.01994998
  eigenvalues    EBANDS =       198.47793662
  atomic energy  EATOM  =      5668.65580356
  Solvation  Ediel_sol  =         0.00000000
  ---------------------------------------------------
  free energy    TOTEN  =      -287.30954239 eV

  energy without entropy =     -287.28959241  energy(sigma->0) =     -287.29956740


--------------------------------------------------------------------------------------------------------




--------------------------------------- Iteration      1(  14)  ---------------------------------------


    POTLOK:  cpu time    0.0723: real time    0.0731
    SETDIJ:  cpu time    0.0678: real time    0.0682
     EDDAV:  cpu time    4.0648: real time    4.0998
       DOS:  cpu time    0.0041: real time    0.0042
    CHARGE:  cpu time    0.1680: real time    0.1690
    MIXING:  cpu time    0.0048: real time    0.0049
    --------------------------------------------
      LOOP:  cpu time    4.3818: real time    4.4192

 eigenvalue-minimisations  :  2784
 total energy-change (2. order) :-0.5810355E-04  (-0.2320139E-04)
 number of electron     221.0000000 magnetization 
 augmentation part      -12.7209393 magnetization 

 Broyden mixing:
  rms(total) = 0.28062E-02    rms(broyden)= 0.28062E-02
  rms(prec ) = 0.32083E-02
  weight for this iteration     100.00

 eigenvalues of (default mixing * dielectric matrix)
  average eigenvalue GAMMA=   2.6173
  6.0360  5.0175  4.0546  2.0207  2.0207  1.3711  0.9547  1.0403  1.0403

 Free energy of the ion-electron system (eV)
  ---------------------------------------------------
  alpha Z        PSCENC =        94.20124788
  Ewald energy   TEWEN  =     -6283.32455330
  -Hartree energ DENC   =      -437.55078264
  -exchange      EXHF   =         0.00000000
  -V(xc)+E(xc)   XCENC  =      -489.56889260
  PAW double counting   =     24171.29768824   -23209.80143606
  entropy T*S    EENTRO =        -0.01994946
  eigenvalues    EBANDS =       198.80127388
  atomic energy  EATOM  =      5668.65580356
  Solvation  Ediel_sol  =         0.00000000
  ---------------------------------------------------
  free energy    TOTEN  =      -287.30960049 eV

  energy without entropy =     -287.28965103  energy(sigma->0) =     -287.29962576


--------------------------------------------------------------------------------------------------------




--------------------------------------- Iteration      1(  15)  ---------------------------------------


    POTLOK:  cpu time    0.0831: real time    0.0842
    SETDIJ:  cpu time    0.0046: real time    0.0046
     EDDAV:  cpu time    4.1694: real time    4.2059
       DOS:  cpu time    0.0043: real time    0.0044
    CHARGE:  cpu time    0.1626: real time    0.1637
    MIXING:  cpu time    0.0089: real time    0.0089
    --------------------------------------------
      LOOP:  cpu time    4.4328: real time    4.4717

 eigenvalue-minimisations  :  2904
 total energy-change (2. order) :-0.9305797E-05  (-0.4197695E-05)
 number of electron     221.0000000 magnetization 
 augmentation part      -12.7208735 magnetization 

 Broyden mixing:
  rms(total) = 0.17097E-02    rms(broyden)= 0.17097E-02
  rms(prec ) = 0.18310E-02
  weight for this iteration     100.00

 eigenvalues of (default mixing * dielectric matrix)
  average eigenvalue GAMMA=   2.5112
  5.8198  4.9744  3.4027  2.6531  2.6531  1.3736  1.2637  1.0314  0.9479  0.9926

 Free energy of the ion-electron system (eV)
  ---------------------------------------------------
  alpha Z        PSCENC =        94.20124788
  Ewald energy   TEWEN  =     -6283.32455330
  -Hartree energ DENC   =      -437.58115221
  -exchange      EXHF   =         0.00000000
  -V(xc)+E(xc)   XCENC  =      -489.56543104
  PAW double counting   =     24150.56975367   -23189.07077686
  entropy T*S    EENTRO =        -0.01997801
  eigenvalues    EBANDS =       198.82547652
  atomic energy  EATOM  =      5668.65580356
  Solvation  Ediel_sol  =         0.00000000
  ---------------------------------------------------
  free energy    TOTEN  =      -287.30960980 eV

  energy without entropy =     -287.28963178  energy(sigma->0) =     -287.29962079


--------------------------------------------------------------------------------------------------------




--------------------------------------- Iteration      1(  16)  ---------------------------------------


    POTLOK:  cpu time    0.0830: real time    0.0840
    SETDIJ:  cpu time    0.0045: real time    0.0045
     EDDAV:  cpu time    4.2527: real time    4.2901
       DOS:  cpu time    0.0041: real time    0.0042
    CHARGE:  cpu time    0.1631: real time    0.1643
    MIXING:  cpu time    0.0053: real time    0.0054
    --------------------------------------------
      LOOP:  cpu time    4.5127: real time    4.5524

 eigenvalue-minimisations  :  2880
 total energy-change (2. order) : 0.2386874E-05  (-0.7514151E-06)
 number of electron     221.0000000 magnetization 
 augmentation part      -12.7209203 magnetization 

 Broyden mixing:
  rms(total) = 0.75019E-03    rms(broyden)= 0.75019E-03
  rms(prec ) = 0.90155E-03
  weight for this iteration     100.00

 eigenvalues of (default mixing * dielectric matrix)
  average eigenvalue GAMMA=   2.5240
  6.1019  4.8047  4.1194  3.3908  2.4481  1.4021  1.4021  1.1577  0.9478  0.9947
  0.9947

 Free energy of the ion-electron system (eV)
  ---------------------------------------------------
  alpha Z        PSCENC =        94.20124788
  Ewald energy   TEWEN  =     -6283.32455330
  -Hartree energ DENC   =      -437.56753386
  -exchange      EXHF   =         0.00000000
  -V(xc)+E(xc)   XCENC  =      -489.56673440
  PAW double counting   =     24160.62262966   -23199.12213903
  entropy T*S    EENTRO =        -0.01997396
  eigenvalues    EBANDS =       198.81164603
  atomic energy  EATOM  =      5668.65580356
  Solvation  Ediel_sol  =         0.00000000
  ---------------------------------------------------
  free energy    TOTEN  =      -287.30960741 eV

  energy without entropy =     -287.28963345  energy(sigma->0) =     -287.29962043


--------------------------------------------------------------------------------------------------------




--------------------------------------- Iteration      1(  17)  ---------------------------------------


    POTLOK:  cpu time    0.0801: real time    0.0811
    SETDIJ:  cpu time    0.0052: real time    0.0052
     EDDAV:  cpu time    3.8720: real time    3.9062
       DOS:  cpu time    0.0037: real time    0.0037
    CHARGE:  cpu time    0.1627: real time    0.1637
    MIXING:  cpu time    0.0059: real time    0.0060
    --------------------------------------------
      LOOP:  cpu time    4.1296: real time    4.1660

 eigenvalue-minimisations  :  2568
 total energy-change (2. order) :-0.4930080E-05  (-0.4169617E-06)
 number of electron     221.0000000 magnetization 
 augmentation part      -12.7207622 magnetization 

 Broyden mixing:
  rms(total) = 0.24103E-03    rms(broyden)= 0.24103E-03
  rms(prec ) = 0.29843E-03
  weight for this iteration     100.00

 eigenvalues of (default mixing * dielectric matrix)
  average eigenvalue GAMMA=   2.4233
  5.9610  4.8879  3.8079  3.8079  2.1082  1.5151  1.4175  1.4175  0.9556  1.0220
  1.0220  1.1562

 Free energy of the ion-electron system (eV)
  ---------------------------------------------------
  alpha Z        PSCENC =        94.20124788
  Ewald energy   TEWEN  =     -6283.32455330
  -Hartree energ DENC   =      -437.60473813
  -exchange      EXHF   =         0.00000000
  -V(xc)+E(xc)   XCENC  =      -489.56366626
  PAW double counting   =     24155.97355586   -23194.47550498
  entropy T*S    EENTRO =        -0.01997083
  eigenvalues    EBANDS =       198.84821384
  atomic energy  EATOM  =      5668.65580356
  Solvation  Ediel_sol  =         0.00000000
  ---------------------------------------------------
  free energy    TOTEN  =      -287.30961234 eV

  energy without entropy =     -287.28964151  energy(sigma->0) =     -287.29962693


--------------------------------------------------------------------------------------------------------




--------------------------------------- Iteration      1(  18)  ---------------------------------------


    POTLOK:  cpu time    0.0797: real time    0.0807
    SETDIJ:  cpu time    0.0160: real time    0.0161
     EDDAV:  cpu time    2.8187: real time    2.8426
       DOS:  cpu time    0.0039: real time    0.0039
    CHARGE:  cpu time    0.1629: real time    0.1640
    MIXING:  cpu time    0.0056: real time    0.0056
    --------------------------------------------
      LOOP:  cpu time    3.0868: real time    3.1129

 eigenvalue-minimisations  :  1656
 total energy-change (2. order) : 0.1258650E-05  (-0.5024333E-07)
 number of electron     221.0000000 magnetization 
 augmentation part      -12.7207923 magnetization 

 Broyden mixing:
  rms(total) = 0.16892E-03    rms(broyden)= 0.16892E-03
  rms(prec ) = 0.21056E-03
  weight for this iteration     100.00

 eigenvalues of (default mixing * dielectric matrix)
  average eigenvalue GAMMA=   2.5807
  6.1461  4.7330  4.7253  4.7253  2.3458  2.1411  2.0216  1.3874  1.3874  1.0097
  1.0097  0.9585  0.9585

 Free energy of the ion-electron system (eV)
  ---------------------------------------------------
  alpha Z        PSCENC =        94.20124788
  Ewald energy   TEWEN  =     -6283.32455330
  -Hartree energ DENC   =      -437.59552430
  -exchange      EXHF   =         0.00000000
  -V(xc)+E(xc)   XCENC  =      -489.56470228
  PAW double counting   =     24156.53465766   -23195.03561852
  entropy T*S    EENTRO =        -0.01997544
  eigenvalues    EBANDS =       198.83905368
  atomic energy  EATOM  =      5668.65580356
  Solvation  Ediel_sol  =         0.00000000
  ---------------------------------------------------
  free energy    TOTEN  =      -287.30961108 eV

  energy without entropy =     -287.28963564  energy(sigma->0) =     -287.29962336


--------------------------------------------------------------------------------------------------------




--------------------------------------- Iteration      1(  19)  ---------------------------------------


    POTLOK:  cpu time    0.0843: real time    0.0853
    SETDIJ:  cpu time    0.0052: real time    0.0053
     EDDAV:  cpu time    2.8133: real time    2.8371
       DOS:  cpu time    0.0037: real time    0.0037
    --------------------------------------------
      LOOP:  cpu time    2.9064: real time    2.9314

 eigenvalue-minimisations  :  1656
 total energy-change (2. order) :-0.1871886E-06  (-0.4173628E-07)
 number of electron     221.0000000 magnetization 
 augmentation part      -12.7207923 magnetization 

 Free energy of the ion-electron system (eV)
  ---------------------------------------------------
  alpha Z        PSCENC =        94.20124788
  Ewald energy   TEWEN  =     -6283.32455330
  -Hartree energ DENC   =      -437.60145166
  -exchange      EXHF   =         0.00000000
  -V(xc)+E(xc)   XCENC  =      -489.56438410
  PAW double counting   =     24157.86875732   -23196.36959348
  entropy T*S    EENTRO =        -0.01997699
  eigenvalues    EBANDS =       198.84453949
  atomic energy  EATOM  =      5668.65580356
  Solvation  Ediel_sol  =         0.00000000
  ---------------------------------------------------
  free energy    TOTEN  =      -287.30961127 eV

  energy without entropy =     -287.28963428  energy(sigma->0) =     -287.29962278


--------------------------------------------------------------------------------------------------------




 average (electrostatic) potential at core
  the test charge radii are     0.9892
  (the norm of the test charge is              1.0000)
       1 -83.0568       2 -83.0991       3 -83.0991       4 -83.0991       5 -83.3180
       6 -83.0991       7 -83.0991       8 -83.0991       9 -83.0355      10 -83.0991
      11 -83.3180      12 -83.0991      13 -83.3180      14 -83.3180      15 -83.0537
      16 -83.0991      17 -83.0537      18 -83.0537      19 -83.0991      20 -83.0991
      21 -83.0355      22 -83.0991      23 -83.0537      24 -83.0537      25 -83.0355
      26 -83.0537      27 -83.0355      28 -83.0349      29 -83.0656      30 -83.0656
      31 -83.0656      32 -83.0531      33 -83.0656      34 -83.0656      35 -83.0656
      36 -83.1009      37 -83.0656      38 -83.0531      39 -83.0656      40 -83.0531
      41 -83.0531      42 -83.3127      43 -83.0656      44 -83.3127      45 -83.3127
      46 -83.0656      47 -83.0656      48 -83.1009      49 -83.0656      50 -83.3127
      51 -83.3127      52 -83.1009      53 -83.3127      54 -83.1009      55 -83.7722
 
 
 
 E-fermi :   6.7786     XC(G=0):  -9.5173     alpha+bet :-12.2050


 k-point     1 :       0.0000    0.0000    0.0000
  band No.  band energies     occupation 
      1      -6.7912      2.00000
      2      -5.5895      2.00000
      3      -4.8802      2.00000
      4      -4.8802      2.00000
      5      -4.8802      2.00000
      6      -4.5765      2.00000
      7      -4.5765      2.00000
      8      -4.5765      2.00000
      9      -4.5721      2.00000
     10      -4.2215      2.00000
     11      -4.1652      2.00000
     12      -4.1652      2.00000
     13      -4.1652      2.00000
     14      -4.1002      2.00000
     15      -4.1002      2.00000
     16      -3.0862      2.00000
     17      -3.0862      2.00000
     18      -3.0862      2.00000
     19      -2.8198      2.00000
     20      -2.7937      2.00000
     21      -2.7937      2.00000
     22      -2.7132      2.00000
     23      -2.7132      2.00000
     24      -2.7132      2.00000
     25      -2.6937      2.00000
     26      -2.6937      2.00000
     27      -2.6937      2.00000
     28      -1.5380      2.00000
     29      -1.0291      2.00000
     30      -1.0291      2.00000
     31      -1.0291      2.00000
     32      -0.9174      2.00000
     33      -0.9174      2.00000
     34      -0.8738      2.00000
     35      -0.8738      2.00000
     36      -0.8738      2.00000
     37      -0.7704      2.00000
     38      -0.7704      2.00000
     39      -0.7704      2.00000
     40      -0.3464      2.00000
     41       0.4685      2.00000
     42       0.4685      2.00000
     43       0.4685      2.00000
     44       0.5608      2.00000
     45       0.5608      2.00000
     46       0.5608      2.00000
     47       0.6277      2.00000
     48       0.8629      2.00000
     49       0.8629      2.00000
     50       0.8757      2.00000
     51       0.8757      2.00000
     52       0.8757      2.00000
     53       0.9151      2.00000
     54       1.0083      2.00000
     55       1.3298      2.00000
     56       1.3298      2.00000
     57       1.3298      2.00000
     58       1.5148      2.00000
     59       1.5148      2.00000
     60       1.5148      2.00000
     61       1.5692      2.00000
     62       1.5692      2.00000
     63       1.5984      2.00000
     64       1.5984      2.00000
     65       1.5984      2.00000
     66       2.8476      2.00000
     67       2.8476      2.00000
     68       2.8476      2.00000
     69       3.4790      2.00000
     70       3.4790      2.00000
     71       3.4790      2.00000
     72       3.5180      2.00000
     73       3.5180      2.00000
     74       3.5180      2.00000
     75       3.5794      2.00000
     76       3.5794      2.00000
     77       3.5794      2.00000
     78       3.6704      2.00000
     79       3.6704      2.00000
     80       3.7816      2.00000
     81       3.7816      2.00000
     82       3.7816      2.00000
     83       3.8353      2.00000
     84       3.8353      2.00000
     85       3.8353      2.00000
     86       3.8718      2.00000
     87       3.8718      2.00000
     88       3.8718      2.00000
     89       3.8916      2.00000
     90       4.4064      2.00000
     91       4.7512      2.00000
     92       4.7512      2.00000
     93       4.7851      2.00000
     94       4.7851      2.00000
     95       4.7851      2.00000
     96       4.9202      2.00000
     97       4.9202      2.00000
     98       4.9202      2.00000
     99       4.9211      2.00000
    100       4.9211      2.00000
    101       4.9211      2.00000
    102       5.0115      2.00000
    103       5.0115      2.00000
    104       5.0115      2.00000
    105       5.0125      2.00000
    106       5.0125      2.00000
    107       5.9087      2.00000
    108       5.9087      2.00000
    109       5.9087      2.00000
    110       6.5443      2.00000
    111       6.5443      2.00000
    112       6.5443      2.00000
    113       6.6557      1.99949
    114       6.6557      1.99949
    115       6.7210      1.89670
    116       6.7210      1.89670
    117       6.7210      1.89670
    118       6.9819      0.00000
    119       7.4181      0.00000
    120       7.4181      0.00000
    121       7.4181      0.00000
    122       7.4936      0.00000
    123       7.4936      0.00000
    124       7.5169      0.00000
    125       7.5169      0.00000
    126       7.5169      0.00000
    127       7.6538      0.00000
    128       7.6802      0.00000
    129       7.6802      0.00000
    130       7.6802      0.00000
    131       7.7037      0.00000
    132       7.7037      0.00000
    133       7.7037      0.00000
    134       7.7107      0.00000
    135       7.8410      0.00000
    136       7.8410      0.00000
    137       7.8410      0.00000
    138       7.8793      0.00000
    139       7.9468      0.00000
    140       7.9468      0.00000
    141       8.2982      0.00000
    142       8.2982      0.00000
    143       8.2982      0.00000
    144       8.8945      0.00000

 k-point     2 :       0.2500    0.0000    0.0000
  band No.  band energies     occupation 
      1      -6.7726      2.00000
      2      -5.6175      2.00000
      3      -5.0985      2.00000
      4      -4.9153      2.00000
      5      -4.9153      2.00000
      6      -4.5844      2.00000
      7      -4.5400      2.00000
      8      -4.5400      2.00000
      9      -4.5174      2.00000
     10      -4.3509      2.00000
     11      -4.3509      2.00000
     12      -4.0978      2.00000
     13      -3.6834      2.00000
     14      -3.6257      2.00000
     15      -3.6257      2.00000
     16      -3.5484      2.00000
     17      -3.4086      2.00000
     18      -3.4086      2.00000
     19      -2.9371      2.00000
     20      -2.9371      2.00000
     21      -2.7995      2.00000
     22      -2.7430      2.00000
     23      -2.7430      2.00000
     24      -2.6885      2.00000
     25      -2.6079      2.00000
     26      -2.4782      2.00000
     27      -2.4782      2.00000
     28      -1.6432      2.00000
     29      -1.2246      2.00000
     30      -1.2246      2.00000
     31      -1.0930      2.00000
     32      -0.9877      2.00000
     33      -0.9877      2.00000
     34      -0.8931      2.00000
     35      -0.8931      2.00000
     36      -0.8097      2.00000
     37      -0.6940      2.00000
     38      -0.5132      2.00000
     39      -0.4112      2.00000
     40      -0.4112      2.00000
     41      -0.1075      2.00000
     42       0.0679      2.00000
     43       0.0679      2.00000
     44       0.1426      2.00000
     45       0.1874      2.00000
     46       0.1874      2.00000
     47       0.5149      2.00000
     48       0.9856      2.00000
     49       0.9856      2.00000
     50       1.1728      2.00000
     51       1.2822      2.00000
     52       1.4256      2.00000
     53       1.4256      2.00000
     54       1.5573      2.00000
     55       1.5573      2.00000
     56       1.5964      2.00000
     57       1.6881      2.00000
     58       1.7317      2.00000
     59       1.7317      2.00000
     60       1.7700      2.00000
     61       1.7700      2.00000
     62       1.8728      2.00000
     63       1.9137      2.00000
     64       1.9137      2.00000
     65       2.0308      2.00000
     66       2.5095      2.00000
     67       2.7314      2.00000
     68       2.7314      2.00000
     69       3.0859      2.00000
     70       3.0859      2.00000
     71       3.3011      2.00000
     72       3.3729      2.00000
     73       3.3863      2.00000
     74       3.3863      2.00000
     75       3.4680      2.00000
     76       3.4680      2.00000
     77       3.5433      2.00000
     78       3.5433      2.00000
     79       3.5560      2.00000
     80       3.5843      2.00000
     81       3.5923      2.00000
     82       3.6289      2.00000
     83       3.6289      2.00000
     84       3.7422      2.00000
     85       3.7422      2.00000
     86       3.8281      2.00000
     87       3.9817      2.00000
     88       4.0773      2.00000
     89       4.0773      2.00000
     90       4.1523      2.00000
     91       4.1523      2.00000
     92       4.2476      2.00000
     93       4.5148      2.00000
     94       4.5148      2.00000
     95       4.5286      2.00000
     96       4.6268      2.00000
     97       4.6268      2.00000
     98       4.6447      2.00000
     99       4.7682      2.00000
    100       4.7682      2.00000
    101       4.9217      2.00000
    102       4.9217      2.00000
    103       4.9377      2.00000
    104       4.9796      2.00000
    105       5.0828      2.00000
    106       5.1571      2.00000
    107       5.1571      2.00000
    108       5.7679      2.00000
    109       5.7679      2.00000
    110       6.5778      2.00000
    111       6.7367      1.76475
    112       6.7367      1.76475
    113       6.8616      0.01891
    114       6.8616      0.01891
    115       6.8745      0.00672
    116       7.1487      0.00000
    117       7.1487      0.00000
    118       7.2904      0.00000
    119       7.3800      0.00000
    120       7.3800      0.00000
    121       7.5142      0.00000
    122       7.5820      0.00000
    123       7.8129      0.00000
    124       7.8129      0.00000
    125       7.9195      0.00000
    126       7.9752      0.00000
    127       7.9796      0.00000
    128       7.9796      0.00000
    129       8.0471      0.00000
    130       8.0471      0.00000
    131       8.0814      0.00000
    132       8.0877      0.00000
    133       8.1403      0.00000
    134       8.1403      0.00000
    135       8.2105      0.00000
    136       8.2105      0.00000
    137       8.2169      0.00000
    138       8.3904      0.00000
    139       8.4901      0.00000
    140       8.4901      0.00000
    141       8.5636      0.00000
    142       8.6812      0.00000
    143       8.6812      0.00000
    144       8.8792      0.00000

 k-point     3 :       0.5000    0.0000    0.0000
  band No.  band energies     occupation 
      1      -6.7527      2.00000
      2      -5.6444      2.00000
      3      -5.2417      2.00000
      4      -4.9235      2.00000
      5      -4.9235      2.00000
      6      -4.6670      2.00000
      7      -4.6670      2.00000
      8      -4.6571      2.00000
      9      -4.2497      2.00000
     10      -4.0905      2.00000
     11      -4.0396      2.00000
     12      -4.0396      2.00000
     13      -3.8743      2.00000
     14      -3.8743      2.00000
     15      -3.6985      2.00000
     16      -3.1493      2.00000
     17      -3.1022      2.00000
     18      -3.0831      2.00000
     19      -3.0831      2.00000
     20      -2.9737      2.00000
     21      -2.9737      2.00000
     22      -2.8307      2.00000
     23      -2.8307      2.00000
     24      -2.7395      2.00000
     25      -2.7231      2.00000
     26      -2.7231      2.00000
     27      -2.6833      2.00000
     28      -1.6660      2.00000
     29      -1.0975      2.00000
     30      -1.0975      2.00000
     31      -1.0152      2.00000
     32      -0.9334      2.00000
     33      -0.9334      2.00000
     34      -0.8470      2.00000
     35      -0.7710      2.00000
     36      -0.7710      2.00000
     37      -0.6843      2.00000
     38      -0.5965      2.00000
     39      -0.5965      2.00000
     40      -0.5931      2.00000
     41      -0.4907      2.00000
     42      -0.1206      2.00000
     43      -0.1206      2.00000
     44      -0.0830      2.00000
     45      -0.0830      2.00000
     46      -0.0418      2.00000
     47       0.7354      2.00000
     48       1.0464      2.00000
     49       1.4241      2.00000
     50       1.4241      2.00000
     51       1.4375      2.00000
     52       1.4375      2.00000
     53       1.6231      2.00000
     54       1.7428      2.00000
     55       1.8409      2.00000
     56       1.8409      2.00000
     57       1.9087      2.00000
     58       1.9920      2.00000
     59       1.9920      2.00000
[...]
   39        0.753   0.940   0.000   1.693
   40        0.753   0.942   0.000   1.695
   41        0.753   0.942   0.000   1.695
   42        0.765   0.923   0.000   1.688
   43        0.756   0.942   0.000   1.698
   44        0.766   0.926   0.000   1.692
   45        0.765   0.926   0.000   1.691
   46        0.753   0.940   0.000   1.693
   47        0.753   0.939   0.000   1.693
   48        0.765   0.930   0.000   1.695
   49        0.755   0.942   0.000   1.696
   50        0.763   0.924   0.000   1.687
   51        0.763   0.924   0.000   1.687
   52        0.763   0.927   0.000   1.689
   53        0.761   0.920   0.000   1.681
   54        0.763   0.927   0.000   1.689
   55        0.896   0.786   0.000   1.682
--------------------------------------------------
tot         41.743  51.416   0.000  93.160
 
    CHARGE:  cpu time    0.1738: real time    0.1749
    FORLOC:  cpu time    0.0324: real time    0.0328
    FORNL :  cpu time    2.6480: real time    2.6845
    STRESS:  cpu time    6.0128: real time    6.0745
    FORCOR:  cpu time    0.1121: real time    0.1133
    FORHAR:  cpu time    0.0649: real time    0.0654
    MIXING:  cpu time    0.0216: real time    0.0218
    OFIELD:  cpu time    0.0001: real time    0.0003

  FORCE on cell =-STRESS in cart. coord.  units (eV):
  Direction    XX          YY          ZZ          XY          YZ          ZX
  --------------------------------------------------------------------------------------
  Alpha Z    94.20125    94.20125    94.20125
  Ewald   -2094.45409 -2094.45410 -2094.45410    -0.00000    -0.00000    -0.00000
  Hartree   145.86868   145.86868   145.86868    -0.00000    -0.00000    -0.00000
  E(xc)    -701.99740  -701.99740  -701.99742    -0.00001    -0.00001    -0.00001
  Local    -816.63227  -816.63237  -816.63186     0.00015     0.00025     0.00036
  n-local  2139.35625  2150.34932  2156.51960    -0.01041    -0.81490     0.57624
  augment  -323.01618  -323.01608  -323.01655    -0.00013    -0.00023    -0.00032
  Kinetic  1544.38586  1575.23116  1608.71004    -0.62635    -1.36595     0.96587
  Fock        0.00000     0.00000     0.00000     0.00000     0.00000     0.00000
  -------------------------------------------------------------------------------------
  Total      28.82073    28.82073    28.82073    -0.00000     0.00000     0.00000
  in kB      42.71618    42.71618    42.71618    -0.00000     0.00000     0.00000
  external pressure =       42.72 kB  Pullay stress =        0.00 kB


 VOLUME and BASIS-vectors are now :
 -----------------------------------------------------------------------------
  energy-cutoff  :      550.00
  volume of cell :     1080.99
      direct lattice vectors                 reciprocal lattice vectors
     9.976465530  0.000000000  5.759915070     0.100235900 -0.035438742  0.000000000
     3.325488510  9.405901920  5.759915070     0.000000000  0.106316227  0.000000000
     0.000000000  0.000000000 11.519830140    -0.050117950 -0.035438742  0.086806836

  length of vectors
    11.519830124 11.519830136 11.519830140     0.106316227  0.106316227  0.106316227


 FORCES acting on ions
    electron-ion (+dipol)            ewald-force                    non-local-force                 convergence-correction
 -----------------------------------------------------------------------------------------------
   -.971E-06 -.680E-06 -.164E-05   0.134E-06 -.712E-07 0.105E-10   0.182E-16 0.139E-16 0.399E-16   0.663E-08 0.474E-08 0.115E-07
   0.551E+01 0.390E+01 0.274E+01   -.569E+01 -.403E+01 -.287E+01   0.152E+00 0.107E+00 -.588E-02   -.168E-03 -.119E-03 -.280E-03
   0.551E+01 0.390E+01 -.274E+01   -.569E+01 -.403E+01 0.287E+01   0.152E+00 0.107E+00 0.588E-02   -.168E-03 -.119E-03 0.280E-03
   0.355E+01 -.166E+01 0.615E+01   -.367E+01 0.168E+01 -.637E+01   0.742E-01 -.112E+00 0.129E+00   -.165E-03 -.110E-03 -.286E-03
   0.376E+02 -.133E+02 0.224E-05   -.373E+02 0.132E+02 0.304E-12   -.134E+01 0.472E+00 0.572E-16   -.590E-03 0.208E-03 -.353E-08
   0.355E+01 -.166E+01 -.615E+01   -.367E+01 0.168E+01 0.637E+01   0.742E-01 -.112E+00 -.129E+00   -.165E-03 -.110E-03 0.286E-03
   0.196E+01 -.614E+01 0.340E+01   -.202E+01 0.637E+01 -.349E+01   0.776E-01 -.103E+00 0.134E+00   -.320E-05 0.348E-03 -.554E-05
   0.196E+01 -.614E+01 -.340E+01   -.202E+01 0.637E+01 0.349E+01   0.776E-01 -.103E+00 -.134E+00   -.319E-05 0.348E-03 0.555E-05
   0.133E+01 -.470E+00 0.372E-06   -.134E+01 0.472E+00 -.509E-11   0.838E-02 -.296E-02 -.520E-17   0.388E-04 -.137E-04 -.849E-08
   -.380E+00 0.390E+01 0.615E+01   0.359E+00 -.403E+01 -.637E+01   -.810E-01 0.107E+00 0.129E+00   -.159E-03 -.119E-03 -.286E-03
   0.129E-05 0.399E+02 0.224E-05   0.827E-07 -.395E+02 0.287E-12   0.520E-16 -.142E+01 0.555E-16   -.193E-08 -.625E-03 -.352E-08
   -.380E+00 0.390E+01 -.615E+01   0.359E+00 -.403E+01 0.637E+01   -.810E-01 0.107E+00 -.129E+00   -.159E-03 -.119E-03 0.286E-03
   -.188E+02 -.133E+02 0.325E+02   0.186E+02 0.132E+02 -.323E+02   0.668E+00 0.472E+00 -.116E+01   0.295E-03 0.208E-03 -.511E-03
   -.188E+02 -.133E+02 -.325E+02   0.186E+02 0.132E+02 0.323E+02   0.668E+00 0.472E+00 0.116E+01   0.295E-03 0.208E-03 0.511E-03
   -.884E+00 -.625E+00 0.192E-06   0.860E+00 0.608E+00 -.307E-12   -.240E-01 -.169E-01 -.867E-17   0.685E-05 0.484E-05 -.876E-08
   -.393E+01 -.614E+01 -.169E-05   0.403E+01 0.637E+01 0.465E-11   -.155E+00 -.103E+00 -.139E-16   0.640E-05 0.348E-03 0.116E-07
   -.442E+00 0.625E+00 -.765E+00   0.430E+00 -.608E+00 0.745E+00   -.120E-01 0.169E-01 -.207E-01   0.342E-05 -.485E-05 0.592E-05
   -.442E+00 0.625E+00 0.765E+00   0.430E+00 -.608E+00 -.745E+00   -.120E-01 0.169E-01 0.207E-01   0.342E-05 -.485E-05 -.594E-05
   -.513E+01 0.390E+01 0.340E+01   0.533E+01 -.403E+01 -.349E+01   -.709E-01 0.107E+00 0.134E+00   0.327E-03 -.119E-03 -.554E-05
   -.513E+01 0.390E+01 -.340E+01   0.533E+01 -.403E+01 0.349E+01   -.709E-01 0.107E+00 -.134E+00   0.327E-03 -.119E-03 0.555E-05
   0.211E-06 0.141E+01 0.366E-06   0.110E-06 -.142E+01 -.510E-11   -.867E-18 0.889E-02 -.139E-16   -.485E-08 0.412E-04 -.847E-08
   -.710E+01 -.166E+01 -.171E-05   0.735E+01 0.168E+01 0.465E-11   -.148E+00 -.112E+00 -.134E-16   0.330E-03 -.110E-03 0.116E-07
   0.442E+00 -.625E+00 -.765E+00   -.430E+00 0.608E+00 0.745E+00   0.120E-01 -.169E-01 -.207E-01   -.343E-05 0.484E-05 0.592E-05
   0.442E+00 -.625E+00 0.765E+00   -.430E+00 0.608E+00 -.745E+00   0.120E-01 -.169E-01 0.207E-01   -.343E-05 0.484E-05 -.594E-05
   -.664E+00 -.470E+00 0.115E+01   0.668E+00 0.472E+00 -.116E+01   -.419E-02 -.296E-02 0.726E-02   -.194E-04 -.137E-04 0.336E-04
   0.884E+00 0.625E+00 0.118E-05   -.860E+00 -.608E+00 -.105E-10   0.240E-01 0.169E-01 -.520E-17   -.685E-05 -.485E-05 -.284E-08
   -.664E+00 -.470E+00 -.115E+01   0.668E+00 0.472E+00 0.116E+01   -.419E-02 -.296E-02 -.726E-02   -.194E-04 -.137E-04 -.336E-04
   0.629E-06 0.261E-06 0.850E-06   -.117E-06 0.622E-07 0.106E-10   -.130E-16 0.000E+00 -.312E-16   -.162E-08 -.121E-08 -.291E-08
   -.738E-01 -.522E-01 0.186E+01   -.115E-06 0.569E-07 -.184E+01   0.440E-02 0.311E-02 -.524E-02   0.891E-04 0.630E-04 0.284E-04
   -.738E-01 -.522E-01 -.186E+01   -.115E-06 0.569E-07 0.184E+01   0.440E-02 0.311E-02 0.524E-02   0.891E-04 0.630E-04 -.284E-04
   0.499E+00 0.157E+01 0.865E+00   -.531E+00 -.150E+01 -.919E+00   0.688E-03 -.739E-02 0.119E-02   0.528E-04 -.398E-04 0.914E-04
   -.588E+01 0.208E+01 -.192E-05   0.590E+01 -.209E+01 0.529E-11   -.478E-01 0.169E-01 -.104E-16   0.447E-03 -.158E-03 0.117E-07
   0.499E+00 0.157E+01 -.865E+00   -.531E+00 -.150E+01 0.919E+00   0.688E-03 -.739E-02 -.119E-02   0.528E-04 -.398E-04 -.914E-04
   -.573E+00 -.146E+01 -.993E+00   0.531E+00 0.150E+01 0.919E+00   0.371E-02 0.117E-02 0.643E-02   0.363E-04 -.862E-04 0.630E-04
   -.573E+00 -.146E+01 0.993E+00   0.531E+00 0.150E+01 -.919E+00   0.371E-02 0.117E-02 -.643E-02   0.363E-04 -.862E-04 -.629E-04
   0.585E+01 -.207E+01 -.144E-06   -.590E+01 0.209E+01 -.462E-11   -.319E+00 0.113E+00 -.156E-16   -.157E-03 0.554E-04 -.827E-08
   0.165E+01 -.522E-01 0.865E+00   -.159E+01 0.541E-07 -.919E+00   -.674E-02 0.311E-02 0.119E-02   -.199E-04 0.630E-04 0.914E-04
   -.985E-06 -.624E+01 -.193E-05   -.116E-06 0.626E+01 0.526E-11   0.434E-17 -.507E-01 -.269E-16   0.679E-08 0.474E-03 0.117E-07
   0.165E+01 -.522E-01 -.865E+00   -.159E+01 0.541E-07 0.919E+00   -.674E-02 0.311E-02 -.119E-02   -.199E-04 0.630E-04 -.914E-04
   0.294E+01 0.208E+01 -.509E+01   -.295E+01 -.209E+01 0.511E+01   0.239E-01 0.169E-01 -.414E-01   -.224E-03 -.158E-03 0.387E-03
   0.294E+01 0.208E+01 0.509E+01   -.295E+01 -.209E+01 -.511E+01   0.239E-01 0.169E-01 0.414E-01   -.224E-03 -.158E-03 -.387E-03
   0.227E+02 0.161E+02 0.198E-06   -.236E+02 -.167E+02 -.836E-11   0.542E+00 0.383E+00 -.694E-17   -.434E-03 -.307E-03 -.913E-08
   0.115E+01 -.146E+01 0.134E-05   -.106E+01 0.150E+01 -.499E-12   -.743E-02 0.117E-02 0.000E+00   -.727E-04 -.862E-04 -.306E-08
   0.114E+02 -.161E+02 0.197E+02   -.118E+02 0.167E+02 -.205E+02   0.271E+00 -.383E+00 0.469E+00   -.217E-03 0.307E-03 -.376E-03
   0.114E+02 -.161E+02 -.197E+02   -.118E+02 0.167E+02 0.205E+02   0.271E+00 -.383E+00 -.469E+00   -.217E-03 0.307E-03 0.376E-03
   -.157E+01 -.522E-01 -.993E+00   0.159E+01 0.713E-07 0.919E+00   0.234E-02 0.311E-02 0.643E-02   -.692E-04 0.630E-04 0.630E-04
   -.157E+01 -.522E-01 0.993E+00   0.159E+01 0.713E-07 -.919E+00   0.234E-02 0.311E-02 -.643E-02   -.692E-04 0.630E-04 -.629E-04
   0.504E-07 0.620E+01 -.148E-06   -.127E-06 -.626E+01 -.463E-11   0.564E-17 -.338E+00 -.139E-16   -.475E-08 -.166E-03 -.826E-08
   -.999E+00 0.157E+01 0.134E-05   0.106E+01 -.150E+01 -.495E-12   -.138E-02 -.739E-02 0.000E+00   -.106E-03 -.398E-04 -.306E-08
   -.114E+02 0.161E+02 0.197E+02   0.118E+02 -.167E+02 -.205E+02   -.271E+00 0.383E+00 0.469E+00   0.217E-03 -.307E-03 -.376E-03
   -.114E+02 0.161E+02 -.197E+02   0.118E+02 -.167E+02 0.205E+02   -.271E+00 0.383E+00 -.469E+00   0.217E-03 -.307E-03 0.376E-03
   -.292E+01 -.207E+01 0.507E+01   0.295E+01 0.209E+01 -.511E+01   0.159E+00 0.113E+00 -.276E+00   0.783E-04 0.554E-04 -.136E-03
   -.227E+02 -.161E+02 -.242E-05   0.236E+02 0.167E+02 0.124E-11   -.542E+00 -.383E+00 -.321E-16   0.434E-03 0.307E-03 0.117E-07
   -.292E+01 -.207E+01 -.507E+01   0.295E+01 0.209E+01 0.511E+01   0.159E+00 0.113E+00 0.276E+00   0.783E-04 0.554E-04 0.136E-03
   -.324E-06 0.155E-07 -.287E-06   0.199E-07 -.106E-07 0.269E-11   0.113E-16 0.173E-17 0.217E-16   0.180E-08 0.104E-08 0.281E-08
 -----------------------------------------------------------------------------------------------
   0.182E-05 -.385E-05 -.275E-05   0.253E-13 -.533E-13 0.177E-14   -.442E-16 0.173E-17 -.311E-15   0.173E-08 0.995E-09 0.270E-08
 
 
 POSITION                                       TOTAL-FORCE (eV/Angst)
 -----------------------------------------------------------------------------------
      3.87974      2.74339      6.71990         0.000000      0.000000      0.000000
      3.87974      2.74339     10.55984        -0.027841     -0.019687     -0.133706
      3.87974      2.74339     14.39979        -0.027841     -0.019687      0.133706
      4.98823      5.87869      8.63987        -0.052518     -0.089484     -0.090964
      4.98823      5.87869     12.47982        -1.030906      0.364480      0.000000
      4.98823      5.87869     16.31976        -0.052518     -0.089484      0.090964
      6.09673      9.01399     10.55984         0.024677      0.128857      0.042742
      6.09673      9.01399     14.39979         0.024677      0.128857     -0.042742
      6.09673      9.01399     18.23973         0.001683     -0.000595      0.000000
      7.20523      2.74339      8.63987        -0.101872     -0.019687     -0.090964
      7.20523      2.74339     12.47982         0.000000     -1.093440      0.000000
      7.20523      2.74339     16.31976        -0.101872     -0.019687      0.090964
      8.31372      5.87869     10.55984         0.515453      0.364480     -0.892790
      8.31372      5.87869     14.39979         0.515453      0.364480      0.892790
      8.31372      5.87869     18.23973        -0.047489     -0.033580      0.000000
      9.42222      9.01399     12.47982        -0.049354      0.128857      0.000000
      9.42222      9.01399     16.31976        -0.023745      0.033580     -0.041127
      9.42222      9.01399     20.15970        -0.023745      0.033580      0.041127
     10.53071      2.74339     10.55984         0.129713     -0.019687      0.042742
     10.53071      2.74339     14.39979         0.129713     -0.019687     -0.042742
     10.53071      2.74339     18.23973         0.000000      0.001785      0.000000
     11.63921      5.87869     12.47982         0.105036     -0.089484      0.000000
     11.63921      5.87869     16.31976         0.023745     -0.033580     -0.041127
     11.63921      5.87869     20.15970         0.023745     -0.033580      0.041127
     12.74771      9.01399     14.39979        -0.000842     -0.000595      0.001458
     12.74771      9.01399     18.23973         0.047489      0.033580      0.000000
     12.74771      9.01399     22.07967        -0.000842     -0.000595     -0.001458
      0.55425      0.39191      0.95999         0.000000      0.000000      0.000000
      0.55425      0.39191      4.79993        -0.069333     -0.049026      0.013765
      0.55425      0.39191      8.63987        -0.069333     -0.049026     -0.013765
      1.66274      3.52721      2.87996        -0.030693      0.060265     -0.053162
      1.66274      3.52721      6.71990        -0.025152      0.008892      0.000000
      1.66274      3.52721     10.55984        -0.030693      0.060265      0.053162
      2.77124      6.66251      4.79993        -0.038640      0.037787     -0.066927
      2.77124      6.66251      8.63987        -0.038640      0.037787      0.066927
      2.77124      6.66251     12.47982        -0.374444      0.132386     -0.000000
      3.87974      0.39191      2.87996         0.046587     -0.049026     -0.053162
      3.87974      0.39191      6.71990         0.000000     -0.026677      0.000000
      3.87974      0.39191     10.55984         0.046587     -0.049026      0.053162
      4.98823      3.52721      4.79993         0.012576      0.008892     -0.021782
      4.98823      3.52721      8.63987         0.012576      0.008892      0.021782
      4.98823      3.52721     12.47982        -0.372039     -0.263071     -0.000000
      6.09673      6.66251      6.71990         0.077280      0.037787      0.000000
      6.09673      6.66251     10.55984        -0.186019      0.263071     -0.322195
      6.09673      6.66251     14.39979        -0.186019      0.263071      0.322195
      7.20523      0.39191      4.79993         0.022746     -0.049026     -0.066927
      7.20523      0.39191      8.63987         0.022746     -0.049026      0.066927
      7.20523      0.39191     12.47982         0.000000     -0.397157     -0.000000
      8.31372      3.52721      6.71990         0.061386      0.060265      0.000000
      8.31372      3.52721     10.55984         0.186019     -0.263071     -0.322195
      8.31372      3.52721     14.39979         0.186019     -0.263071      0.322195
      9.42222      6.66251      8.63987         0.187222      0.132386     -0.324278
      9.42222      6.66251     12.47982         0.372039      0.263071     -0.000000
      9.42222      6.66251     16.31976         0.187222      0.132386      0.324278
      7.20523      5.09486     12.47982         0.000000      0.000000      0.000000
 -----------------------------------------------------------------------------------
    total drift:                                0.000002     -0.000004     -0.000003


--------------------------------------------------------------------------------------------------------



  FREE ENERGIE OF THE ION-ELECTRON SYSTEM (eV)
  ---------------------------------------------------
  free  energy   TOTEN  =      -287.30961127 eV

  energy  without entropy=     -287.28963428  energy(sigma->0) =     -287.29962278
 


--------------------------------------------------------------------------------------------------------


    POTLOK:  cpu time    0.0898: real time    0.0907


--------------------------------------------------------------------------------------------------------


 writing wavefunctions
     LOOP+:  cpu time  105.9054: real time  112.2027
    4ORBIT:  cpu time    0.0000: real time    0.0000
 


 total charge     
 
# of ion       s       p       d       tot
------------------------------------------
    1        0.754   0.940   0.000   1.693
    2        0.757   0.936   0.000   1.693
    3        0.757   0.936   0.000   1.693
    4        0.757   0.937   0.000   1.694
    5        0.756   0.950   0.000   1.706
    6        0.757   0.937   0.000   1.694
    7        0.756   0.936   0.000   1.693
    8        0.756   0.936   0.000   1.692
    9        0.752   0.942   0.000   1.695
   10        0.758   0.938   0.000   1.696
   11        0.762   0.952   0.000   1.715
   12        0.758   0.938   0.000   1.696
   13        0.760   0.955   0.000   1.715
   14        0.760   0.955   0.000   1.715
   15        0.759   0.940   0.000   1.699
   16        0.758   0.937   0.000   1.694
   17        0.755   0.938   0.000   1.693
   18        0.755   0.938   0.000   1.693
   19        0.754   0.935   0.000   1.689
   20        0.754   0.936   0.000   1.689
   21        0.753   0.942   0.000   1.696
   22        0.755   0.935   0.000   1.690
   23        0.753   0.938   0.000   1.690
   24        0.753   0.937   0.000   1.690
   25        0.753   0.942   0.000   1.695
   26        0.755   0.939   0.000   1.694
   27        0.753   0.942   0.000   1.695
   28        0.752   0.943   0.000   1.695
   29        0.752   0.939   0.000   1.692
   30        0.752   0.939   0.000   1.692
   31        0.752   0.938   0.000   1.690
   32        0.754   0.941   0.000   1.694
   33        0.752   0.938   0.000   1.690
   34        0.753   0.938   0.000   1.691
   35        0.753   0.938   0.000   1.691
   36        0.763   0.934   0.000   1.697
   37        0.753   0.940   0.000   1.693
   38        0.753   0.941   0.000   1.694
   39        0.753   0.940   0.000   1.693
   40        0.753   0.942   0.000   1.695
   41        0.753   0.942   0.000   1.695
   42        0.765   0.923   0.000   1.688
   43        0.756   0.942   0.000   1.698
   44        0.766   0.926   0.000   1.692
   45        0.765   0.926   0.000   1.691
   46        0.753   0.940   0.000   1.693
   47        0.753   0.939   0.000   1.693
   48        0.765   0.930   0.000   1.695
   49        0.755   0.942   0.000   1.696
   50        0.763   0.924   0.000   1.687
   51        0.763   0.924   0.000   1.687
   52        0.763   0.927   0.000   1.689
   53        0.761   0.920   0.000   1.681
   54        0.763   0.927   0.000   1.689
   55        0.896   0.786   0.000   1.682
--------------------------------------------------
tot         41.743  51.416   0.000  93.160
 

 total amount of memory used by VASP MPI-rank0   123928. kBytes
=======================================================================

   base      :      30000. kBytes
   nonl-proj :      44165. kBytes
   fftplans  :       5382. kBytes
   grid      :      19496. kBytes
   one-center:        168. kBytes
   wavefun   :      24717. kBytes
 
  
  
 General timing and accounting informations for this job:
 ========================================================
  
                  Total CPU time used (sec):      119.301
                            User time (sec):      112.698
                          System time (sec):        6.604
                         Elapsed time (sec):      129.419
  
                   Maximum memory used (kb):      366664.
                   Average memory used (kb):           0.
  
                          Minor page faults:        55694
                          Major page faults:            0
                 Voluntary context switches:         5147
