<?xml version="1.0" encoding="ISO-8859-1"?>
<modeling>
 <generator>
  <i name="program" type="string">vasp </i>
  <i name="version" type="string">5.4.4.18Apr17-6-g9f103f2a35  </i>
  <i name="subversion" type="string">(build Jun 19 2019 10:34:07) complex            parallel </i>
  <i name="platform" type="string">LB-5.4 </i>
  <i name="date" type="string">2023 05 15 </i>
  <i name="time" type="string">18:32:32 </i>
 </generator>
 <incar>
  <i type="string" name="SYSTEM"> Si</i>
  <i type="string" name="PREC">normal</i>
  <i type="string" name="ALGO"> Normal</i>
  <i type="int" name="ISPIN">     1</i>
  <i name="AMIX">      0.20000000</i>
  <i type="int" name="NELM">   200</i>
  <i type="int" name="IBRION">     2</i>
  <i name="EDIFF">      0.00000100</i>
  <i name="EDIFFG">     -0.05000000</i>
  <i type="int" name="NSW">     0</i>
  <i type="int" name="ISIF">     2</i>
  <i type="int" name="ISYM">     2</i>
  <i name="ENCUT">    550.00000000</i>
  <i name="NELECT">    221.00000000</i>
  <i type="logical" name="LREAL"> F  </i>
  <i type="int" name="ISMEAR">     0</i>
  <i name="SIGMA">      0.05000000</i>
  <i type="logical" name="LWAVE"> T  </i>
  <i type="logical" name="LCHARG"> T  </i>
  <i type="int" name="LORBIT">    10</i>
  <v type="int" name="KPOINT_BSE">    -1     0     0     0</v>
  <i type="int" name="NELM">   200</i>
 </incar>
 <structure name="primitive_cell" >
  <crystal>
   <varray name="basis" >
    <v>       9.97646553       0.00000000       5.75991507 </v>
    <v>       3.32548851       9.40590192       5.75991507 </v>
    <v>       0.00000000       0.00000000      11.51983014 </v>
   </varray>
   <i name="volume">   1080.99386112 </i>
   <varray name="rec_basis" >
    <v>       0.10023590      -0.03543874       0.00000000 </v>
    <v>       0.00000000       0.10631623       0.00000000 </v>
    <v>      -0.05011795      -0.03543874       0.08680684 </v>
   </varray>
  </crystal>
  <varray name="positions" >
   <v>       0.29166667       0.29166667       0.29166667 </v>
   <v>       0.04166667       0.37500000       0.37500000 </v>
   <v>       0.37500000       0.37500000       0.04166667 </v>
   <v>       0.37500000       0.37500000       0.37500000 </v>
   <v>       0.37500000       0.04166667       0.37500000 </v>
   <v>      -0.04166667       0.29166667       0.29166667 </v>
   <v>      -0.37500000       0.29166667      -0.04166667 </v>
   <v>      -0.04166667       0.29166667      -0.37500000 </v>
   <v>      -0.37500000       0.29166667       0.29166667 </v>
   <v>      -0.37500000      -0.04166667       0.29166667 </v>
   <v>      -0.04166667      -0.37500000       0.29166667 </v>
   <v>       0.29166667      -0.04166667       0.29166667 </v>
   <v>       0.29166667      -0.37500000      -0.04166667 </v>
   <v>       0.29166667      -0.04166667      -0.37500000 </v>
   <v>       0.29166667      -0.37500000       0.29166667 </v>
   <v>       0.29166667       0.29166667      -0.04166667 </v>
   <v>       0.29166667       0.29166667      -0.37500000 </v>
   <v>      -0.29166667       0.37500000       0.04166667 </v>
   <v>       0.04166667       0.04166667       0.37500000 </v>
   <v>      -0.29166667       0.04166667       0.04166667 </v>
   <v>       0.04166667       0.04166667      -0.29166667 </v>
   <v>      -0.29166667       0.04166667       0.37500000 </v>
   <v>       0.37500000      -0.29166667       0.04166667 </v>
   <v>       0.04166667       0.37500000       0.04166667 </v>
   <v>       0.04166667       0.37500000      -0.29166667 </v>
   <v>       0.04166667      -0.29166667       0.04166667 </v>
   <v>       0.04166667      -0.29166667       0.37500000 </v>
   <v>       0.37500000       0.04166667       0.04166667 </v>
   <v>       0.37500000       0.04166667      -0.29166667 </v>
   <v>      -0.04166667      -0.04166667      -0.37500000 </v>
   <v>      -0.37500000      -0.37500000      -0.04166667 </v>
   <v>      -0.37500000      -0.04166667      -0.04166667 </v>
   <v>      -0.04166667      -0.37500000      -0.04166667 </v>
   <v>      -0.37500000      -0.04166667      -0.37500000 </v>
   <v>      -0.04166667      -0.37500000      -0.37500000 </v>
   <v>      -0.29166667       0.37500000       0.37500000 </v>
   <v>      -0.29166667       0.37500000      -0.29166667 </v>
   <v>      -0.29166667      -0.29166667       0.37500000 </v>
   <v>       0.37500000      -0.29166667      -0.29166667 </v>
   <v>       0.37500000      -0.29166667       0.37500000 </v>
   <v>       0.37500000       0.37500000      -0.29166667 </v>
   <v>      -0.37500000       0.29166667      -0.37500000 </v>
   <v>      -0.04166667       0.29166667      -0.04166667 </v>
   <v>      -0.37500000      -0.37500000       0.29166667 </v>
   <v>      -0.04166667      -0.04166667      -0.04166667 </v>
   <v>      -0.37500000      -0.37500000      -0.37500000 </v>
   <v>      -0.04166667      -0.04166667       0.29166667 </v>
   <v>       0.29166667      -0.37500000      -0.37500000 </v>
   <v>       0.29166667      -0.04166667      -0.04166667 </v>
   <v>      -0.45833333      -0.45833333      -0.45833333 </v>
   <v>      -0.29166667       0.04166667      -0.29166667 </v>
   <v>       0.04166667       0.04166667       0.04166667 </v>
   <v>      -0.29166667      -0.29166667      -0.29166667 </v>
   <v>      -0.29166667      -0.29166667       0.04166667 </v>
   <v>       0.04166667      -0.29166667      -0.29166667 </v>
  </varray>
 </structure>
 <varray name="primitive_index" >
  <v type="int" >        1 </v>
  <v type="int" >       32 </v>
  <v type="int" >       40 </v>
  <v type="int" >       41 </v>
  <v type="int" >       38 </v>
  <v type="int" >       19 </v>
  <v type="int" >       12 </v>
  <v type="int" >       20 </v>
  <v type="int" >       10 </v>
  <v type="int" >       16 </v>
  <v type="int" >       22 </v>
  <v type="int" >        7 </v>
  <v type="int" >        6 </v>
  <v type="int" >        8 </v>
  <v type="int" >        4 </v>
  <v type="int" >        3 </v>
  <v type="int" >        2 </v>
  <v type="int" >       49 </v>
  <v type="int" >       29 </v>
  <v type="int" >       46 </v>
  <v type="int" >       30 </v>
  <v type="int" >       47 </v>
  <v type="int" >       43 </v>
  <v type="int" >       31 </v>
  <v type="int" >       33 </v>
  <v type="int" >       34 </v>
  <v type="int" >       35 </v>
  <v type="int" >       37 </v>
  <v type="int" >       39 </v>
  <v type="int" >       26 </v>
  <v type="int" >       15 </v>
  <v type="int" >       18 </v>
  <v type="int" >       24 </v>
  <v type="int" >       17 </v>
  <v type="int" >       23 </v>
  <v type="int" >       50 </v>
  <v type="int" >       51 </v>
  <v type="int" >       53 </v>
  <v type="int" >       45 </v>
  <v type="int" >       44 </v>
  <v type="int" >       42 </v>
  <v type="int" >       11 </v>
  <v type="int" >       21 </v>
  <v type="int" >       13 </v>
  <v type="int" >       27 </v>
  <v type="int" >       14 </v>
  <v type="int" >       25 </v>
  <v type="int" >        5 </v>
  <v type="int" >        9 </v>
  <v type="int" >       55 </v>
  <v type="int" >       48 </v>
  <v type="int" >       28 </v>
  <v type="int" >       54 </v>
  <v type="int" >       52 </v>
  <v type="int" >       36 </v>
 </varray>
 <kpoints>
  <generation param="Gamma">
   <v type="int" name="divisions">       4        4        4 </v>
   <v name="usershift">      0.00000000       0.00000000       0.00000000 </v>
   <v name="genvec1">      0.25000000       0.00000000       0.00000000 </v>
   <v name="genvec2">      0.00000000       0.25000000       0.00000000 </v>
   <v name="genvec3">     -0.00000000      -0.00000000       0.25000000 </v>
   <v name="shift">      0.00000000       0.00000000       0.00000000 </v>
  </generation>
  <varray name="kpointlist" >
   <v>       0.00000000       0.00000000       0.00000000 </v>
   <v>       0.25000000       0.00000000       0.00000000 </v>
   <v>       0.50000000       0.00000000       0.00000000 </v>
   <v>       0.25000000       0.25000000       0.00000000 </v>
   <v>       0.50000000       0.25000000       0.00000000 </v>
   <v>      -0.25000000       0.25000000       0.00000000 </v>
   <v>       0.50000000       0.50000000       0.00000000 </v>
   <v>      -0.25000000       0.50000000       0.25000000 </v>
  </varray>
  <varray name="weights" >
   <v>       0.01562500 </v>
   <v>       0.12500000 </v>
   <v>       0.06250000 </v>
   <v>       0.09375000 </v>
   <v>       0.37500000 </v>
   <v>       0.18750000 </v>
   <v>       0.04687500 </v>
   <v>       0.09375000 </v>
  </varray>
 </kpoints>
 <parameters>
  <separator name="general" >
   <i type="string" name="SYSTEM">Si</i>
   <i type="logical" name="LCOMPAT"> F  </i>
  </separator>
  <separator name="electronic" >
   <i type="string" name="PREC">normal</i>
   <i name="ENMAX">    550.00000000</i>
   <i name="ENAUG">    322.06900000</i>
   <i name="EDIFF">      0.00000100</i>
   <i type="int" name="IALGO">    38</i>
   <i type="int" name="IWAVPR">    10</i>
   <i type="int" name="NBANDS">   144</i>
   <i name="NELECT">    221.00000000</i>
   <i type="int" name="TURBO">     0</i>
   <i type="int" name="IRESTART">     0</i>
   <i type="int" name="NREBOOT">     0</i>
   <i type="int" name="NMIN">     0</i>
   <i name="EREF">      0.00000000</i>
   <separator name="electronic smearing" >
    <i type="int" name="ISMEAR">     0</i>
    <i name="SIGMA">      0.05000000</i>
    <i name="KSPACING">      0.50000000</i>
    <i type="logical" name="KGAMMA"> T  </i>
   </separator>
   <separator name="electronic projectors" >
    <i type="logical" name="LREAL"> F  </i>
    <v name="ROPT">      0.00000000</v>
    <i type="int" name="LMAXPAW">  -100</i>
    <i type="int" name="LMAXMIX">     2</i>
    <i type="logical" name="NLSPLINE"> F  </i>
   </separator>
   <separator name="electronic startup" >
    <i type="int" name="ISTART">     0</i>
    <i type="int" name="ICHARG">     2</i>
    <i type="int" name="INIWAV">     1</i>
   </separator>
   <separator name="electronic spin" >
    <i type="int" name="ISPIN">     1</i>
    <i type="logical" name="LNONCOLLINEAR"> F  </i>
    <v name="MAGMOM">      1.00000000      1.00000000      1.00000000      1.00000000      1.00000000      1.00000000      1.00000000      1.00000000      1.00000000      1.00000000      1.00000000      1.00000000      1.00000000      1.00000000      1.00000000      1.00000000      1.00000000      1.00000000      1.00000000      1.00000000
      1.00000000      1.00000000      1.00000000      1.00000000      1.00000000      1.00000000      1.00000000      1.00000000      1.00000000      1.00000000      1.00000000      1.00000000      1.00000000      1.00000000      1.00000000      1.00000000      1.00000000      1.00000000      1.00000000      1.00000000
      1.00000000      1.00000000      1.00000000      1.00000000      1.00000000      1.00000000      1.00000000      1.00000000      1.00000000      1.00000000      1.00000000      1.00000000      1.00000000      1.00000000      1.00000000</v>
    <i name="NUPDOWN">     -1.00000000</i>
    <i type="logical" name="LSORBIT"> F  </i>
    <v name="SAXIS">      0.00000000      0.00000000      1.00000000</v>
    <i type="logical" name="LSPIRAL"> F  </i>
    <v name="QSPIRAL">      0.00000000      0.00000000      0.00000000</v>
    <i type="logical" name="LZEROZ"> F  </i>
   </separator>
   <separator name="electronic exchange-correlation" >
    <i type="logical" name="LASPH"> F  </i>
    <i type="logical" name="LMETAGGA"> F  </i>
   </separator>
   <separator name="electronic convergence" >
    <i type="int" name="NELM">   200</i>
    <i type="int" name="NELMDL">    -5</i>
    <i type="int" name="NELMIN">     2</i>
    <i name="ENINI">    550.00000000</i>
    <separator name="electronic convergence detail" >
     <i type="logical" name="LDIAG"> T  </i>
     <i type="logical" name="LSUBROT"> F  </i>
     <i name="WEIMIN">      0.00000000</i>
     <i name="EBREAK">      0.00000000</i>
     <i name="DEPER">      0.30000000</i>
     <i type="int" name="NRMM">     4</i>
     <i name="TIME">      0.40000000</i>
    </separator>
   </separator>
   <separator name="electronic mixer" >
    <i name="AMIX">      0.20000000</i>
    <i name="BMIX">      1.00000000</i>
    <i name="AMIN">      0.10000000</i>
    <i name="AMIX_MAG">      0.80000000</i>
    <i name="BMIX_MAG">      1.00000000</i>
    <separator name="electronic mixer details" >
     <i type="int" name="IMIX">     4</i>
     <i type="logical" name="MIXFIRST"> F  </i>
     <i type="int" name="MAXMIX">   -45</i>
     <i name="WC">    100.00000000</i>
     <i type="int" name="INIMIX">     1</i>
     <i type="int" name="MIXPRE">     1</i>
     <i type="int" name="MREMOVE">     5</i>
    </separator>
   </separator>
   <separator name="electronic dipolcorrection" >
    <i type="logical" name="LDIPOL"> F  </i>
    <i type="logical" name="LMONO"> F  </i>
    <i type="int" name="IDIPOL">     0</i>
    <i name="EPSILON">      1.00000000</i>
    <v name="DIPOL">   -100.00000000   -100.00000000   -100.00000000</v>
    <i name="EFIELD">      0.00000000</i>
   </separator>
  </separator>
  <separator name="grids" >
   <i type="int" name="NGX">    70</i>
   <i type="int" name="NGY">    70</i>
   <i type="int" name="NGZ">    70</i>
   <i type="int" name="NGXF">   140</i>
   <i type="int" name="NGYF">   140</i>
   <i type="int" name="NGZF">   140</i>
   <i type="logical" name="ADDGRID"> F  </i>
  </separator>
  <separator name="ionic" >
   <i type="int" name="NSW">     0</i>
   <i type="int" name="IBRION">    -1</i>
   <i type="int" name="MDALGO">     0</i>
   <i type="int" name="ISIF">     2</i>
   <i name="PSTRESS">      0.00000000</i>
   <i name="EDIFFG">     -0.05000000</i>
   <i type="int" name="NFREE">     1</i>
   <i name="POTIM">      0.50000000</i>
   <i name="SMASS">     -3.00000000</i>
   <i name="SCALEE">      1.00000000</i>
  </separator>
  <separator name="ionic md" >
   <i name="TEBEG">      0.00010000</i>
   <i name="TEEND">      0.00010000</i>
   <i type="int" name="NBLOCK">     1</i>
   <i type="int" name="KBLOCK">     1</i>
   <i type="int" name="NPACO">   256</i>
   <i name="APACO">     16.00000000</i>
  </separator>
  <separator name="symmetry" >
   <i type="int" name="ISYM">     2</i>
   <i name="SYMPREC">      0.00001000</i>
  </separator>
  <separator name="dos" >
   <i type="int" name="LORBIT">    10</i>
   <v name="RWIGS">     -1.00000000</v>
   <i type="int" name="NEDOS">   301</i>
   <i name="EMIN">     10.00000000</i>
   <i name="EMAX">    -10.00000000</i>
   <i name="EFERMI">      0.00000000</i>
  </separator>
  <separator name="writing" >
   <i type="int" name="NWRITE">     2</i>
   <i type="logical" name="LWAVE"> T  </i>
   <i type="logical" name="LDOWNSAMPLE"> F  </i>
   <i type="logical" name="LCHARG"> T  </i>
   <i type="logical" name="LPARD"> F  </i>
   <i type="logical" name="LVTOT"> F  </i>
   <i type="logical" name="LVHAR"> F  </i>
   <i type="logical" name="LELF"> F  </i>
   <i type="logical" name="LOPTICS"> F  </i>
   <v name="STM">      0.00000000      0.00000000      0.00000000      0.00000000      0.00000000      0.00000000      0.00000000</v>
  </separator>
  <separator name="performance" >
   <i type="int" name="NPAR">    24</i>
   <i type="int" name="NSIM">     4</i>
   <i type="int" name="NBLK">    -1</i>
   <i type="logical" name="LPLANE"> T  </i>
   <i type="logical" name="LSCALAPACK"> T  </i>
   <i type="logical" name="LSCAAWARE"> F  </i>
   <i type="logical" name="LSCALU"> F  </i>
   <i type="logical" name="LASYNC"> F  </i>
   <i type="logical" name="LORBITALREAL"> F  </i>
  </separator>
  <separator name="miscellaneous" >
   <i type="int" name="IDIOT">     3</i>
   <i type="int" name="ISPECIAL">     0</i>
   <i type="logical" name="LMUSIC"> F  </i>
   <v name="POMASS">     28.08500000</v>
   <v name="DARWINR">      0.00000000</v>
   <v name="DARWINV">      1.00000000</v>
   <i type="logical" name="LCORR"> T  </i>
  </separator>
  <i type="logical" name="GGA_COMPAT"> T  </i>
  <i type="logical" name="LBERRY"> F  </i>
  <i type="int" name="ICORELEVEL">     0</i>
  <i type="logical" name="LDAU"> F  </i>
  <i type="int" name="I_CONSTRAINED_M">     0</i>
  <separator name="electronic exchange-correlation" >
   <i type="string" name="GGA">--</i>
   <i type="int" name="VOSKOWN">     0</i>
   <i type="logical" name="LHFCALC"> F  </i>
   <i type="string" name="PRECFOCK"></i>
   <i type="logical" name="LSYMGRAD"> F  </i>
   <i type="logical" name="LHFONE"> F  </i>
   <i type="logical" name="LRHFCALC"> F  </i>
   <i type="logical" name="LTHOMAS"> F  </i>
   <i type="logical" name="LMODELHF"> F  </i>
   <i name="ENCUT4O">     -1.00000000</i>
   <i type="int" name="EXXOEP">     0</i>
   <i type="int" name="FOURORBIT">     0</i>
   <i name="AEXX">      0.00000000</i>
   <i name="HFALPHA">      0.00000000</i>
   <i name="MCALPHA">      0.00000000</i>
   <i name="ALDAX">      1.00000000</i>
   <i name="AGGAX">      1.00000000</i>
   <i name="ALDAC">      1.00000000</i>
   <i name="AGGAC">      1.00000000</i>
   <i type="int" name="NKREDX">     1</i>
   <i type="int" name="NKREDY">     1</i>
   <i type="int" name="NKREDZ">     1</i>
   <i type="logical" name="SHIFTRED"> F  </i>
   <i type="logical" name="ODDONLY"> F  </i>
   <i type="logical" name="EVENONLY"> F  </i>
   <i type="int" name="LMAXFOCK">     0</i>
   <i type="int" name="NMAXFOCKAE">     0</i>
   <i type="logical" name="LFOCKAEDFT"> F  </i>
   <i name="HFSCREEN">      0.00000000</i>
   <i name="HFSCREENC">      0.00000000</i>
   <i type="int" name="NBANDSGWLOW">     0</i>
  </separator>
  <separator name="vdW DFT" >
   <i type="logical" name="LUSE_VDW"> F  </i>
   <i name="Zab_VDW">     -0.84910000</i>
   <i name="PARAM1">      0.12340000</i>
   <i name="PARAM2">      1.00000000</i>
   <i name="PARAM3">      0.00000000</i>
  </separator>
  <separator name="model GW" >
   <i type="int" name="MODEL_GW">     0</i>
   <i name="MODEL_EPS0">     11.79266030</i>
   <i name="MODEL_ALPHA">      1.00000000</i>
  </separator>
  <separator name="linear response parameters" >
   <i type="logical" name="LEPSILON"> F  </i>
   <i type="logical" name="LRPA"> F  </i>
   <i type="logical" name="LNABLA"> F  </i>
   <i type="logical" name="LVEL"> F  </i>
   <i type="int" name="KINTER">     0</i>
   <i name="CSHIFT">      0.10000000</i>
   <i name="OMEGAMAX">     -1.00000000</i>
   <i name="DEG_THRESHOLD">      0.00200000</i>
   <i name="RTIME">     -0.10000000</i>
   <i name="WPLASMAI">      0.00000000</i>
   <v name="DFIELD">      0.00000000      0.00000000      0.00000000</v>
   <v name="WPLASMA">      0.00000000      0.00000000      0.00000000      0.00000000      0.00000000      0.00000000      0.00000000      0.00000000      0.00000000</v>
  </separator>
  <separator name="orbital magnetization" >
   <i type="logical" name="NUCIND"> F  </i>
   <v name="MAGPOS">      0.00000000      0.00000000      0.00000000</v>
   <i type="logical" name="LNICSALL"> T  </i>
   <i type="logical" name="ORBITALMAG"> F  </i>
   <i type="logical" name="LMAGBLOCH"> F  </i>
   <i type="logical" name="LCHIMAG"> F  </i>
   <i type="logical" name="LGAUGE"> T  </i>
   <i type="int" name="MAGATOM">     0</i>
   <v name="MAGDIPOL">      0.00000000      0.00000000      0.00000000</v>
   <v name="AVECCONST">      0.00000000      0.00000000      0.00000000</v>
  </separator>
  <separator name="response functions" >
   <i type="logical" name="LADDER"> F  </i>
   <i type="logical" name="LRPAFORCE"> F  </i>
   <i type="logical" name="LFXC"> F  </i>
   <i type="logical" name="LHARTREE"> T  </i>
   <i type="int" name="IBSE">     0</i>
   <v type="int" name="KPOINT">    -1     0     0     0</v>
   <i type="logical" name="LTCTE"> F  </i>
   <i type="logical" name="LTETE"> F  </i>
   <i type="logical" name="LTRIPLET"> F  </i>
   <i type="logical" name="LFXCEPS"> F  </i>
   <i type="logical" name="LFXHEG"> F  </i>
   <i type="int" name="NATURALO">     2</i>
   <i type="logical" name="L2ORDER"> F  </i>
   <i type="logical" name="LMP2LT"> F  </i>
   <i type="logical" name="LUSEW"> F  </i>
   <i name="ENCUTGW">     -2.00000000</i>
   <i name="ENCUTGWSOFT">     -2.00000000</i>
   <i name="ENCUTLF">     -1.00000000</i>
   <i type="int" name="LMAXMP2">    -1</i>
   <i name="SCISSOR">      0.00000000</i>
   <i type="int" name="NOMEGA">     0</i>
   <i type="int" name="NOMEGAR">     0</i>
   <i type="int" name="NBANDSGW">    -1</i>
   <i type="int" name="NBANDSO">    -1</i>
   <i type="int" name="NBANDSV">    -1</i>
   <i type="int" name="NELM">   200</i>
   <i type="int" name="NELMHF">     1</i>
   <i type="int" name="DIM">     3</i>
   <i type="int" name="ANTIRES">     0</i>
   <i name="OMEGAMAX">    -30.00000000</i>
   <i name="OMEGAMIN">    -30.00000000</i>
   <i name="OMEGATL">   -200.00000000</i>
   <i type="int" name="OMEGAGRID">   140</i>
   <i name="CSHIFT">     -0.10000000</i>
   <i type="logical" name="SELFENERGY"> F  </i>
   <i type="logical" name="LSPECTRAL"> F  </i>
   <i type="logical" name="LSPECTRALGW"> F  </i>
   <i type="logical" name="LSINGLES"> F  </i>
   <i type="logical" name="LFERMIGW"> F  </i>
   <i type="logical" name="ODDONLYGW"> F  </i>
   <i type="logical" name="EVENONLYGW"> F  </i>
   <i type="int" name="NKREDLFX">     1</i>
   <i type="int" name="NKREDLFY">     1</i>
   <i type="int" name="NKREDLFZ">     1</i>
   <i type="int" name="MAXMEM">  2800</i>
   <i type="int" name="TELESCOPE">     0</i>
   <i type="int" name="TAUPAR">     1</i>
   <i type="int" name="OMEGAPAR">    -1</i>
   <i name="LAMBDA">      1.00000000</i>
  </separator>
  <separator name="External order field" >
   <i name="OFIELD_KAPPA">      0.00000000</i>
   <v name="OFIELD_K">      0.00000000      0.00000000      0.00000000</v>
   <i name="OFIELD_Q6_NEAR">      0.00000000</i>
   <i name="OFIELD_Q6_FAR">      0.00000000</i>
   <i name="OFIELD_A">      0.00000000</i>
  </separator>
 </parameters>
 <atominfo>
  <atoms>      55 </atoms>
  <types>       1 </types>
  <array name="atoms" >
   <dimension dim="1">ion</dimension>
   <field type="string">element</field>
   <field type="int">atomtype</field>
   <set>
    <rc><c>Si</c><c>   1</c></rc>
    <rc><c>Si</c><c>   1</c></rc>
    <rc><c>Si</c><c>   1</c></rc>
    <rc><c>Si</c><c>   1</c></rc>
    <rc><c>Si</c><c>   1</c></rc>
    <rc><c>Si</c><c>   1</c></rc>
    <rc><c>Si</c><c>   1</c></rc>
    <rc><c>Si</c><c>   1</c></rc>
    <rc><c>Si</c><c>   1</c></rc>
    <rc><c>Si</c><c>   1</c></rc>
    <rc><c>Si</c><c>   1</c></rc>
    <rc><c>Si</c><c>   1</c></rc>
    <rc><c>Si</c><c>   1</c></rc>
    <rc><c>Si</c><c>   1</c></rc>
    <rc><c>Si</c><c>   1</c></rc>
    <rc><c>Si</c><c>   1</c></rc>
    <rc><c>Si</c><c>   1</c></rc>
    <rc><c>Si</c><c>   1</c></rc>
    <rc><c>Si</c><c>   1</c></rc>
    <rc><c>Si</c><c>   1</c></rc>
    <rc><c>Si</c><c>   1</c></rc>
    <rc><c>Si</c><c>   1</c></rc>
    <rc><c>Si</c><c>   1</c></rc>
    <rc><c>Si</c><c>   1</c></rc>
    <rc><c>Si</c><c>   1</c></rc>
    <rc><c>Si</c><c>   1</c></rc>
    <rc><c>Si</c><c>   1</c></rc>
    <rc><c>Si</c><c>   1</c></rc>
    <rc><c>Si</c><c>   1</c></rc>
    <rc><c>Si</c><c>   1</c></rc>
    <rc><c>Si</c><c>   1</c></rc>
    <rc><c>Si</c><c>   1</c></rc>
    <rc><c>Si</c><c>   1</c></rc>
    <rc><c>Si</c><c>   1</c></rc>
    <rc><c>Si</c><c>   1</c></rc>
    <rc><c>Si</c><c>   1</c></rc>
    <rc><c>Si</c><c>   1</c></rc>
    <rc><c>Si</c><c>   1</c></rc>
    <rc><c>Si</c><c>   1</c></rc>
    <rc><c>Si</c><c>   1</c></rc>
    <rc><c>Si</c><c>   1</c></rc>
    <rc><c>Si</c><c>   1</c></rc>
    <rc><c>Si</c><c>   1</c></rc>
    <rc><c>Si</c><c>   1</c></rc>
    <rc><c>Si</c><c>   1</c></rc>
    <rc><c>Si</c><c>   1</c></rc>
    <rc><c>Si</c><c>   1</c></rc>
    <rc><c>Si</c><c>   1</c></rc>
    <rc><c>Si</c><c>   1</c></rc>
    <rc><c>Si</c><c>   1</c></rc>
    <rc><c>Si</c><c>   1</c></rc>
    <rc><c>Si</c><c>   1</c></rc>
    <rc><c>Si</c><c>   1</c></rc>
    <rc><c>Si</c><c>   1</c></rc>
    <rc><c>Si</c><c>   1</c></rc>
   </set>
  </array>
  <array name="atomtypes" >
   <dimension dim="1">type</dimension>
   <field type="int">atomspertype</field>
   <field type="string">element</field>
   <field>mass</field>
   <field>valence</field>
   <field type="string">pseudopotential</field>
   <set>
    <rc><c>  55</c><c>Si</c><c>     28.08500000</c><c>      4.00000000</c><c>  PAW_PBE Si 05Jan2001                  </c></rc>
   </set>
  </array>
 </atominfo>
 <structure name="initialpos" >
  <crystal>
   <varray name="basis" >
    <v>       9.97646553       0.00000000       5.75991507 </v>
    <v>       3.32548851       9.40590192       5.75991507 </v>
    <v>       0.00000000       0.00000000      11.51983014 </v>
   </varray>
   <i name="volume">   1080.99386112 </i>
   <varray name="rec_basis" >
    <v>       0.10023590      -0.03543874       0.00000000 </v>
    <v>       0.00000000       0.10631623       0.00000000 </v>
    <v>      -0.05011795      -0.03543874       0.08680684 </v>
   </varray>
  </crystal>
  <varray name="positions" >
   <v>       0.29166667       0.29166667       0.29166667 </v>
   <v>       0.29166667       0.29166667       0.62500000 </v>
   <v>       0.29166667       0.29166667       0.95833333 </v>
   <v>       0.29166667       0.62500000       0.29166667 </v>
   <v>       0.29166667       0.62500000       0.62500000 </v>
   <v>       0.29166667       0.62500000       0.95833333 </v>
   <v>       0.29166667       0.95833333       0.29166667 </v>
   <v>       0.29166667       0.95833333       0.62500000 </v>
   <v>       0.29166667       0.95833333       0.95833333 </v>
   <v>       0.62500000       0.29166667       0.29166667 </v>
   <v>       0.62500000       0.29166667       0.62500000 </v>
   <v>       0.62500000       0.29166667       0.95833333 </v>
   <v>       0.62500000       0.62500000       0.29166667 </v>
   <v>       0.62500000       0.62500000       0.62500000 </v>
   <v>       0.62500000       0.62500000       0.95833333 </v>
   <v>       0.62500000       0.95833333       0.29166667 </v>
   <v>       0.62500000       0.95833333       0.62500000 </v>
   <v>       0.62500000       0.95833333       0.95833333 </v>
   <v>       0.95833333       0.29166667       0.29166667 </v>
   <v>       0.95833333       0.29166667       0.62500000 </v>
   <v>       0.95833333       0.29166667       0.95833333 </v>
   <v>       0.95833333       0.62500000       0.29166667 </v>
   <v>       0.95833333       0.62500000       0.62500000 </v>
   <v>       0.95833333       0.62500000       0.95833333 </v>
   <v>       0.95833333       0.95833333       0.29166667 </v>
   <v>       0.95833333       0.95833333       0.62500000 </v>
   <v>       0.95833333       0.95833333       0.95833333 </v>
   <v>       0.04166667       0.04166667       0.04166667 </v>
   <v>       0.04166667       0.04166667       0.37500000 </v>
   <v>       0.04166667       0.04166667       0.70833333 </v>
   <v>       0.04166667       0.37500000       0.04166667 </v>
   <v>       0.04166667       0.37500000       0.37500000 </v>
   <v>       0.04166667       0.37500000       0.70833333 </v>
   <v>       0.04166667       0.70833333       0.04166667 </v>
   <v>       0.04166667       0.70833333       0.37500000 </v>
   <v>       0.04166667       0.70833333       0.70833333 </v>
   <v>       0.37500000       0.04166667       0.04166667 </v>
   <v>       0.37500000       0.04166667       0.37500000 </v>
   <v>       0.37500000       0.04166667       0.70833333 </v>
   <v>       0.37500000       0.37500000       0.04166667 </v>
   <v>       0.37500000       0.37500000       0.37500000 </v>
   <v>       0.37500000       0.37500000       0.70833333 </v>
   <v>       0.37500000       0.70833333       0.04166667 </v>
   <v>       0.37500000       0.70833333       0.37500000 </v>
   <v>       0.37500000       0.70833333       0.70833333 </v>
   <v>       0.70833333       0.04166667       0.04166667 </v>
   <v>       0.70833333       0.04166667       0.37500000 </v>
   <v>       0.70833333       0.04166667       0.70833333 </v>
   <v>       0.70833333       0.37500000       0.04166667 </v>
   <v>       0.70833333       0.37500000       0.37500000 </v>
   <v>       0.70833333       0.37500000       0.70833333 </v>
   <v>       0.70833333       0.70833333       0.04166667 </v>
   <v>       0.70833333       0.70833333       0.37500000 </v>
   <v>       0.70833333       0.70833333       0.70833333 </v>
   <v>       0.54166667       0.54166667       0.54166667 </v>
  </varray>
 </structure>
 <calculation>
  <scstep>
   <time name="dav">    4.09    4.26</time>
   <time name="total">    4.31    4.49</time>
   <energy>
    <i name="alphaZ">     94.20124788 </i>
    <i name="ewald">  -6283.32455330 </i>
    <i name="hartreedc">   -334.73833171 </i>
    <i name="XCdc">   -509.16019900 </i>
    <i name="pawpsdc">   4846.80897882 </i>
    <i name="pawaedc">  -3879.17847845 </i>
    <i name="eentropy">     -0.01450755 </i>
    <i name="bandstr">   1000.00916998 </i>
    <i name="atom">   5668.65580356 </i>
    <i name="e_fr_energy">    603.25913024 </i>
    <i name="e_wo_entrp">    603.27363779 </i>
    <i name="e_0_energy">    603.26638401 </i>
   </energy>
  </scstep>
  <scstep>
   <time name="dav">    5.46    5.51</time>
   <time name="total">    5.98    6.04</time>
   <energy>
    <i name="e_fr_energy">   -239.21689181 </i>
    <i name="e_wo_entrp">   -239.20945084 </i>
    <i name="e_0_energy">   -239.21317132 </i>
   </energy>
  </scstep>
  <scstep>
   <time name="dav">    5.94    6.61</time>
   <time name="total">    6.38    7.48</time>
   <energy>
    <i name="e_fr_energy">   -291.22126712 </i>
    <i name="e_wo_entrp">   -291.19768205 </i>
    <i name="e_0_energy">   -291.20947459 </i>
   </energy>
  </scstep>
  <scstep>
   <time name="dav">    3.71    6.20</time>
   <time name="total">    4.04    6.87</time>
   <energy>
    <i name="e_fr_energy">   -292.47338849 </i>
    <i name="e_wo_entrp">   -292.44983652 </i>
    <i name="e_0_energy">   -292.46161251 </i>
   </energy>
  </scstep>
  <scstep>
   <time name="dav">    4.86    5.32</time>
   <time name="total">    5.08    5.55</time>
   <energy>
    <i name="e_fr_energy">   -292.49839309 </i>
    <i name="e_wo_entrp">   -292.47493755 </i>
    <i name="e_0_energy">   -292.48666532 </i>
   </energy>
  </scstep>
  <scstep>
   <time name="dav">    4.76    4.80</time>
   <time name="total">    5.46    5.52</time>
   <energy>
    <i name="e_fr_energy">   -290.26377262 </i>
    <i name="e_wo_entrp">   -290.23947629 </i>
    <i name="e_0_energy">   -290.25162446 </i>
   </energy>
  </scstep>
  <scstep>
   <time name="dav">    3.91    3.94</time>
   <time name="total">    4.17    4.20</time>
   <energy>
    <i name="e_fr_energy">   -287.28259283 </i>
    <i name="e_wo_entrp">   -287.26918404 </i>
    <i name="e_0_energy">   -287.27588843 </i>
   </energy>
  </scstep>
  <scstep>
   <time name="dav">    4.59    4.63</time>
   <time name="total">    5.45    5.50</time>
   <energy>
    <i name="e_fr_energy">   -287.30942827 </i>
    <i name="e_wo_entrp">   -287.29191786 </i>
    <i name="e_0_energy">   -287.30067306 </i>
   </energy>
  </scstep>
  <scstep>
   <time name="dav">    4.47    4.98</time>
   <time name="total">    4.89    5.39</time>
   <energy>
    <i name="e_fr_energy">   -287.30118226 </i>
    <i name="e_wo_entrp">   -287.28182555 </i>
    <i name="e_0_energy">   -287.29150390 </i>
   </energy>
  </scstep>
  <scstep>
   <time name="dav">    4.12    4.15</time>
   <time name="total">    4.39    4.43</time>
   <energy>
    <i name="e_fr_energy">   -287.30349036 </i>
    <i name="e_wo_entrp">   -287.28379331 </i>
    <i name="e_0_energy">   -287.29364184 </i>
   </energy>
  </scstep>
  <scstep>
   <time name="dav">    3.92    3.95</time>
   <time name="total">    4.17    4.21</time>
   <energy>
    <i name="e_fr_energy">   -287.30741566 </i>
    <i name="e_wo_entrp">   -287.28738843 </i>
    <i name="e_0_energy">   -287.29740205 </i>
   </energy>
  </scstep>
  <scstep>
   <time name="dav">    5.18    5.23</time>
   <time name="total">    6.08    6.13</time>
   <energy>
    <i name="e_fr_energy">   -287.30883941 </i>
    <i name="e_wo_entrp">   -287.28897467 </i>
    <i name="e_0_energy">   -287.29890704 </i>
   </energy>
  </scstep>
  <scstep>
   <time name="dav">    4.56    4.98</time>
   <time name="total">    5.15    5.58</time>
   <energy>
    <i name="e_fr_energy">   -287.30954239 </i>
    <i name="e_wo_entrp">   -287.28959241 </i>
    <i name="e_0_energy">   -287.29956740 </i>
   </energy>
  </scstep>
  <scstep>
   <time name="dav">    4.06    4.10</time>
   <time name="total">    4.38    4.42</time>
   <energy>
    <i name="e_fr_energy">   -287.30960049 </i>
    <i name="e_wo_entrp">   -287.28965103 </i>
    <i name="e_0_energy">   -287.29962576 </i>
   </energy>
  </scstep>
  <scstep>
   <time name="dav">    4.17    4.21</time>
   <time name="total">    4.43    4.47</time>
   <energy>
    <i name="e_fr_energy">   -287.30960980 </i>
    <i name="e_wo_entrp">   -287.28963178 </i>
    <i name="e_0_energy">   -287.29962079 </i>
   </energy>
  </scstep>
  <scstep>
   <time name="dav">    4.25    4.29</time>
   <time name="total">    4.51    4.55</time>
   <energy>
    <i name="e_fr_energy">   -287.30960741 </i>
    <i name="e_wo_entrp">   -287.28963345 </i>
    <i name="e_0_energy">   -287.29962043 </i>
   </energy>
  </scstep>
  <scstep>
   <time name="dav">    3.87    3.91</time>
   <time name="total">    4.13    4.17</time>
   <energy>
    <i name="e_fr_energy">   -287.30961234 </i>
    <i name="e_wo_entrp">   -287.28964151 </i>
    <i name="e_0_energy">   -287.29962693 </i>
   </energy>
  </scstep>
  <scstep>
   <time name="dav">    2.82    2.84</time>
   <time name="total">    3.09    3.11</time>
   <energy>
    <i name="e_fr_energy">   -287.30961108 </i>
    <i name="e_wo_entrp">   -287.28963564 </i>
    <i name="e_0_energy">   -287.29962336 </i>
   </energy>
  </scstep>
  <scstep>
   <time name="dav">    2.81    2.84</time>
   <time name="total">    2.91    2.93</time>
   <energy>
    <i name="alphaZ">     94.20124788 </i>
    <i name="ewald">  -6283.32455330 </i>
    <i name="hartreedc">   -437.60145166 </i>
    <i name="XCdc">   -489.56438410 </i>
    <i name="pawpsdc">  24157.86875732 </i>
    <i name="pawaedc"> -23196.36959348 </i>
    <i name="eentropy">     -0.01997699 </i>
    <i name="bandstr">    198.84453949 </i>
    <i name="atom">   5668.65580356 </i>
    <i name="e_fr_energy">   -287.30961127 </i>
    <i name="e_wo_entrp">   -287.28963428 </i>
    <i name="e_0_energy">   -287.29962278 </i>
   </energy>
  </scstep>
  <structure>
   <crystal>
    <varray name="basis" >
     <v>       9.97646553       0.00000000       5.75991507 </v>
     <v>       3.32548851       9.40590192       5.75991507 </v>
     <v>       0.00000000       0.00000000      11.51983014 </v>
    </varray>
    <i name="volume">   1080.99386112 </i>
    <varray name="rec_basis" >
     <v>       0.10023590      -0.03543874       0.00000000 </v>
     <v>       0.00000000       0.10631623       0.00000000 </v>
     <v>      -0.05011795      -0.03543874       0.08680684 </v>
    </varray>
   </crystal>
   <varray name="positions" >
    <v>       0.29166667       0.29166667       0.29166667 </v>
    <v>       0.29166667       0.29166667       0.62500000 </v>
    <v>       0.29166667       0.29166667       0.95833333 </v>
    <v>       0.29166667       0.62500000       0.29166667 </v>
    <v>       0.29166667       0.62500000       0.62500000 </v>
    <v>       0.29166667       0.62500000       0.95833333 </v>
    <v>       0.29166667       0.95833333       0.29166667 </v>
    <v>       0.29166667       0.95833333       0.62500000 </v>
    <v>       0.29166667       0.95833333       0.95833333 </v>
    <v>       0.62500000       0.29166667       0.29166667 </v>
    <v>       0.62500000       0.29166667       0.62500000 </v>
    <v>       0.62500000       0.29166667       0.95833333 </v>
    <v>       0.62500000       0.62500000       0.29166667 </v>
    <v>       0.62500000       0.62500000       0.62500000 </v>
    <v>       0.62500000       0.62500000       0.95833333 </v>
    <v>       0.62500000       0.95833333       0.29166667 </v>
    <v>       0.62500000       0.95833333       0.62500000 </v>
    <v>       0.62500000       0.95833333       0.95833333 </v>
    <v>       0.95833333       0.29166667       0.29166667 </v>
    <v>       0.95833333       0.29166667       0.62500000 </v>
    <v>       0.95833333       0.29166667       0.95833333 </v>
    <v>       0.95833333       0.62500000       0.29166667 </v>
    <v>       0.95833333       0.62500000       0.62500000 </v>
    <v>       0.95833333       0.62500000       0.95833333 </v>
    <v>       0.95833333       0.95833333       0.29166667 </v>
    <v>       0.95833333       0.95833333       0.62500000 </v>
    <v>       0.95833333       0.95833333       0.95833333 </v>
    <v>       0.04166667       0.04166667       0.04166667 </v>
    <v>       0.04166667       0.04166667       0.37500000 </v>
    <v>       0.04166667       0.04166667       0.70833333 </v>
    <v>       0.04166667       0.37500000       0.04166667 </v>
    <v>       0.04166667       0.37500000       0.37500000 </v>
    <v>       0.04166667       0.37500000       0.70833333 </v>
    <v>       0.04166667       0.70833333       0.04166667 </v>
    <v>       0.04166667       0.70833333       0.37500000 </v>
    <v>       0.04166667       0.70833333       0.70833333 </v>
    <v>       0.37500000       0.04166667       0.04166667 </v>
    <v>       0.37500000       0.04166667       0.37500000 </v>
    <v>       0.37500000       0.04166667       0.70833333 </v>
    <v>       0.37500000       0.37500000       0.04166667 </v>
    <v>       0.37500000       0.37500000       0.37500000 </v>
    <v>       0.37500000       0.37500000       0.70833333 </v>
    <v>       0.37500000       0.70833333       0.04166667 </v>
    <v>       0.37500000       0.70833333       0.37500000 </v>
    <v>       0.37500000       0.70833333       0.70833333 </v>
    <v>       0.70833333       0.04166667       0.04166667 </v>
    <v>       0.70833333       0.04166667       0.37500000 </v>
    <v>       0.70833333       0.04166667       0.70833333 </v>
    <v>       0.70833333       0.37500000       0.04166667 </v>
    <v>       0.70833333       0.37500000       0.37500000 </v>
    <v>       0.70833333       0.37500000       0.70833333 </v>
    <v>       0.70833333       0.70833333       0.04166667 </v>
    <v>       0.70833333       0.70833333       0.37500000 </v>
    <v>       0.70833333       0.70833333       0.70833333 </v>
    <v>       0.54166667       0.54166667       0.54166667 </v>
   </varray>
  </structure>
  <varray name="forces" >
   <v>       0.00000000       0.00000000       0.00000000 </v>
   <v>      -0.02784101      -0.01968657      -0.13370573 </v>
   <v>      -0.02784101      -0.01968657       0.13370573 </v>
   <v>      -0.05251803      -0.08948371      -0.09096389 </v>
   <v>      -1.03090553       0.36448014       0.00000000 </v>
   <v>      -0.05251803      -0.08948371       0.09096389 </v>
   <v>       0.02467702       0.12885684       0.04274185 </v>
   <v>       0.02467702       0.12885684      -0.04274185 </v>
   <v>       0.00168313      -0.00059508       0.00000000 </v>
   <v>      -0.10187206      -0.01968657      -0.09096389 </v>
   <v>       0.00000000      -1.09344043       0.00000000 </v>
   <v>      -0.10187206      -0.01968657       0.09096389 </v>
   <v>       0.51545276       0.36448014      -0.89279038 </v>
   <v>       0.51545276       0.36448014       0.89279038 </v>
   <v>      -0.04748909      -0.03357986       0.00000000 </v>
   <v>      -0.04935403       0.12885684       0.00000000 </v>
   <v>      -0.02374454       0.03357986      -0.04112676 </v>
   <v>      -0.02374454       0.03357986       0.04112676 </v>
   <v>       0.12971307      -0.01968657       0.04274185 </v>
   <v>       0.12971307      -0.01968657      -0.04274185 </v>
   <v>       0.00000000       0.00178523       0.00000000 </v>
   <v>       0.10503605      -0.08948371       0.00000000 </v>
   <v>       0.02374454      -0.03357986      -0.04112676 </v>
   <v>       0.02374454      -0.03357986       0.04112676 </v>
   <v>      -0.00084157      -0.00059508       0.00145763 </v>
   <v>       0.04748909       0.03357986       0.00000000 </v>
   <v>      -0.00084157      -0.00059508      -0.00145763 </v>
   <v>       0.00000000       0.00000000       0.00000000 </v>
   <v>      -0.06933322      -0.04902599       0.01376493 </v>
   <v>      -0.06933322      -0.04902599      -0.01376493 </v>
   <v>      -0.03069301       0.06026501      -0.05316186 </v>
   <v>      -0.02515151       0.00889240       0.00000000 </v>
   <v>      -0.03069301       0.06026501       0.05316186 </v>
   <v>      -0.03864020       0.03778697      -0.06692679 </v>
   <v>      -0.03864020       0.03778697       0.06692679 </v>
   <v>      -0.37444354       0.13238578      -0.00000000 </v>
   <v>       0.04658739      -0.04902599      -0.05316186 </v>
   <v>       0.00000000      -0.02667720       0.00000000 </v>
   <v>       0.04658739      -0.04902599       0.05316186 </v>
   <v>       0.01257575       0.00889240      -0.02178185 </v>
   <v>       0.01257575       0.00889240       0.02178185 </v>
   <v>      -0.37203898      -0.26307129      -0.00000000 </v>
   <v>       0.07728041       0.03778697       0.00000000 </v>
   <v>      -0.18601949       0.26307129      -0.32219521 </v>
   <v>      -0.18601949       0.26307129       0.32219521 </v>
   <v>       0.02274583      -0.04902599      -0.06692679 </v>
   <v>       0.02274583      -0.04902599       0.06692679 </v>
   <v>       0.00000000      -0.39715734      -0.00000000 </v>
   <v>       0.06138603       0.06026501       0.00000000 </v>
   <v>       0.18601949      -0.26307129      -0.32219521 </v>
   <v>       0.18601949      -0.26307129       0.32219521 </v>
   <v>       0.18722177       0.13238578      -0.32427761 </v>
   <v>       0.37203898       0.26307129      -0.00000000 </v>
   <v>       0.18722177       0.13238578       0.32427761 </v>
   <v>       0.00000000       0.00000000       0.00000000 </v>
  </varray>
  <varray name="stress" >
   <v>      42.71617884      -0.00000000       0.00000000 </v>
   <v>      -0.00000000      42.71617897       0.00000000 </v>
   <v>      -0.00000000       0.00000000      42.71617899 </v>
  </varray>
  <energy>
   <i name="e_fr_energy">   -287.30961127 </i>
   <i name="e_wo_entrp">   -287.29962278 </i>
   <i name="e_0_energy">     -0.01997699 </i>
  </energy>
  <time name="totalsc">  105.91  112.20</time>
  <eigenvalues>
   <array>
    <dimension dim="1">band</dimension>
    <dimension dim="2">kpoint</dimension>
    <dimension dim="3">spin</dimension>
    <field>eigene</field>
    <field>occ</field>
    <set>
     <set comment="spin 1">
      <set comment="kpoint 1">
       <r>   -6.7912    1.0000 </r>
       <r>   -5.5895    1.0000 </r>
       <r>   -4.8802    1.0000 </r>
       <r>   -4.8802    1.0000 </r>
       <r>   -4.8802    1.0000 </r>
       <r>   -4.5765    1.0000 </r>
       <r>   -4.5765    1.0000 </r>
       <r>   -4.5765    1.0000 </r>
       <r>   -4.5721    1.0000 </r>
       <r>   -4.2215    1.0000 </r>
       <r>   -4.1652    1.0000 </r>
       <r>   -4.1652    1.0000 </r>
       <r>   -4.1652    1.0000 </r>
       <r>   -4.1002    1.0000 </r>
       <r>   -4.1002    1.0000 </r>
       <r>   -3.0862    1.0000 </r>
       <r>   -3.0862    1.0000 </r>
       <r>   -3.0862    1.0000 </r>
       <r>   -2.8198    1.0000 </r>
       <r>   -2.7937    1.0000 </r>
       <r>   -2.7937    1.0000 </r>
       <r>   -2.7132    1.0000 </r>
       <r>   -2.7132    1.0000 </r>
       <r>   -2.7132    1.0000 </r>
       <r>   -2.6937    1.0000 </r>
       <r>   -2.6937    1.0000 </r>
       <r>   -2.6937    1.0000 </r>
       <r>   -1.5380    1.0000 </r>
       <r>   -1.0291    1.0000 </r>
       <r>   -1.0291    1.0000 </r>
       <r>   -1.0291    1.0000 </r>
       <r>   -0.9174    1.0000 </r>
       <r>   -0.9174    1.0000 </r>
       <r>   -0.8738    1.0000 </r>
       <r>   -0.8738    1.0000 </r>
       <r>   -0.8738    1.0000 </r>
       <r>   -0.7704    1.0000 </r>
       <r>   -0.7704    1.0000 </r>
       <r>   -0.7704    1.0000 </r>
       <r>   -0.3464    1.0000 </r>
       <r>    0.4685    1.0000 </r>
       <r>    0.4685    1.0000 </r>
       <r>    0.4685    1.0000 </r>
       <r>    0.5608    1.0000 </r>
       <r>    0.5608    1.0000 </r>
       <r>    0.5608    1.0000 </r>
       <r>    0.6277    1.0000 </r>
       <r>    0.8629    1.0000 </r>
       <r>    0.8629    1.0000 </r>
       <r>    0.8757    1.0000 </r>
       <r>    0.8757    1.0000 </r>
       <r>    0.8757    1.0000 </r>
       <r>    0.9151    1.0000 </r>
       <r>    1.0083    1.0000 </r>
       <r>    1.3298    1.0000 </r>
       <r>    1.3298    1.0000 </r>
       <r>    1.3298    1.0000 </r>
       <r>    1.5148    1.0000 </r>
       <r>    1.5148    1.0000 </r>
       <r>    1.5148    1.0000 </r>
       <r>    1.5692    1.0000 </r>
       <r>    1.5692    1.0000 </r>
       <r>    1.5984    1.0000 </r>
       <r>    1.5984    1.0000 </r>
       <r>    1.5984    1.0000 </r>
       <r>    2.8476    1.0000 </r>
       <r>    2.8476    1.0000 </r>
       <r>    2.8476    1.0000 </r>
       <r>    3.4790    1.0000 </r>
       <r>    3.4790    1.0000 </r>
       <r>    3.4790    1.0000 </r>
       <r>    3.5180    1.0000 </r>
       <r>    3.5180    1.0000 </r>
       <r>    3.5180    1.0000 </r>
       <r>    3.5794    1.0000 </r>
       <r>    3.5794    1.0000 </r>
       <r>    3.5794    1.0000 </r>
       <r>    3.6704    1.0000 </r>
       <r>    3.6704    1.0000 </r>
       <r>    3.7816    1.0000 </r>
       <r>    3.7816    1.0000 </r>
       <r>    3.7816    1.0000 </r>
       <r>    3.8353    1.0000 </r>
       <r>    3.8353    1.0000 </r>
       <r>    3.8353    1.0000 </r>
       <r>    3.8718    1.0000 </r>
       <r>    3.8718    1.0000 </r>
       <r>    3.8718    1.0000 </r>
       <r>    3.8916    1.0000 </r>
       <r>    4.4064    1.0000 </r>
       <r>    4.7512    1.0000 </r>
       <r>    4.7512    1.0000 </r>
       <r>    4.7851    1.0000 </r>
       <r>    4.7851    1.0000 </r>
       <r>    4.7851    1.0000 </r>
       <r>    4.9202    1.0000 </r>
       <r>    4.9202    1.0000 </r>
       <r>    4.9202    1.0000 </r>
       <r>    4.9211    1.0000 </r>
       <r>    4.9211    1.0000 </r>
       <r>    4.9211    1.0000 </r>
       <r>    5.0115    1.0000 </r>
       <r>    5.0115    1.0000 </r>
       <r>    5.0115    1.0000 </r>
       <r>    5.0125    1.0000 </r>
       <r>    5.0125    1.0000 </r>
       <r>    5.9087    1.0000 </r>
       <r>    5.9087    1.0000 </r>
       <r>    5.9087    1.0000 </r>
       <r>    6.5443    1.0000 </r>
       <r>    6.5443    1.0000 </r>
       <r>    6.5443    1.0000 </r>
       <r>    6.6557    0.9997 </r>
       <r>    6.6557    0.9997 </r>
       <r>    6.7210    0.9484 </r>
       <r>    6.7210    0.9484 </r>
       <r>    6.7210    0.9484 </r>
       <r>    6.9819    0.0000 </r>
       <r>    7.4181    0.0000 </r>
       <r>    7.4181    0.0000 </r>
       <r>    7.4181    0.0000 </r>
       <r>    7.4936    0.0000 </r>
       <r>    7.4936    0.0000 </r>
       <r>    7.5169    0.0000 </r>
       <r>    7.5169    0.0000 </r>
       <r>    7.5169    0.0000 </r>
       <r>    7.6538    0.0000 </r>
       <r>    7.6802    0.0000 </r>
       <r>    7.6802    0.0000 </r>
       <r>    7.6802    0.0000 </r>
       <r>    7.7037    0.0000 </r>
       <r>    7.7037    0.0000 </r>
       <r>    7.7037    0.0000 </r>
       <r>    7.7107    0.0000 </r>
       <r>    7.8410    0.0000 </r>
       <r>    7.8410    0.0000 </r>
       <r>    7.8410    0.0000 </r>
       <r>    7.8793    0.0000 </r>
       <r>    7.9468    0.0000 </r>
       <r>    7.9468    0.0000 </r>
       <r>    8.2982    0.0000 </r>
       <r>    8.2982    0.0000 </r>
       <r>    8.2982    0.0000 </r>
       <r>    8.8945    0.0000 </r>
      </set>
      <set comment="kpoint 2">
       <r>   -6.7726    1.0000 </r>
       <r>   -5.6175    1.0000 </r>
       <r>   -5.0985    1.0000 </r>
       <r>   -4.9153    1.0000 </r>
       <r>   -4.9153    1.0000 </r>
       <r>   -4.5844    1.0000 </r>
       <r>   -4.5400    1.0000 </r>
       <r>   -4.5400    1.0000 </r>
       <r>   -4.5174    1.0000 </r>
       <r>   -4.3509    1.0000 </r>
       <r>   -4.3509    1.0000 </r>
       <r>   -4.0978    1.0000 </r>
       <r>   -3.6834    1.0000 </r>
       <r>   -3.6257    1.0000 </r>
       <r>   -3.6257    1.0000 </r>
       <r>   -3.5484    1.0000 </r>
       <r>   -3.4086    1.0000 </r>
       <r>   -3.4086    1.0000 </r>
       <r>   -2.9371    1.0000 </r>
       <r>   -2.9371    1.0000 </r>
       <r>   -2.7995    1.0000 </r>
       <r>   -2.7430    1.0000 </r>
       <r>   -2.7430    1.0000 </r>
       <r>   -2.6885    1.0000 </r>
       <r>   -2.6079    1.0000 </r>
       <r>   -2.4782    1.0000 </r>
       <r>   -2.4782    1.0000 </r>
       <r>   -1.6432    1.0000 </r>
       <r>   -1.2246    1.0000 </r>
       <r>   -1.2246    1.0000 </r>
       <r>   -1.0930    1.0000 </r>
       <r>   -0.9877    1.0000 </r>
       <r>   -0.9877    1.0000 </r>
       <r>   -0.8931    1.0000 </r>
       <r>   -0.8931    1.0000 </r>
       <r>   -0.8097    1.0000 </r>
       <r>   -0.6940    1.0000 </r>
       <r>   -0.5132    1.0000 </r>
       <r>   -0.4112    1.0000 </r>
       <r>   -0.4112    1.0000 </r>
       <r>   -0.1075    1.0000 </r>
       <r>    0.0679    1.0000 </r>
       <r>    0.0679    1.0000 </r>
       <r>    0.1426    1.0000 </r>
       <r>    0.1874    1.0000 </r>
       <r>    0.1874    1.0000 </r>
       <r>    0.5149    1.0000 </r>
       <r>    0.9856    1.0000 </r>
       <r>    0.9856    1.0000 </r>
       <r>    1.1728    1.0000 </r>
       <r>    1.2822    1.0000 </r>
       <r>    1.4256    1.0000 </r>
       <r>    1.4256    1.0000 </r>
       <r>    1.5573    1.0000 </r>
       <r>    1.5573    1.0000 </r>
       <r>    1.5964    1.0000 </r>
       <r>    1.6881    1.0000 </r>
       <r>    1.7317    1.0000 </r>
       <r>    1.7317    1.0000 </r>
       <r>    1.7700    1.0000 </r>
       <r>    1.7700    1.0000 </r>
       <r>    1.8728    1.0000 </r>
       <r>    1.9137    1.0000 </r>
       <r>    1.9137    1.0000 </r>
       <r>    2.0308    1.0000 </r>
       <r>    2.5095    1.0000 </r>
       <r>    2.7314    1.0000 </r>
       <r>    2.7314    1.0000 </r>
       <r>    3.0859    1.0000 </r>
       <r>    3.0859    1.0000 </r>
       <r>    3.3011    1.0000 </r>
       <r>    3.3729    1.0000 </r>
       <r>    3.3863    1.0000 </r>
       <r>    3.3863    1.0000 </r>
       <r>    3.4680    1.0000 </r>
       <r>    3.4680    1.0000 </r>
       <r>    3.5433    1.0000 </r>
       <r>    3.5433    1.0000 </r>
       <r>    3.5560    1.0000 </r>
       <r>    3.5843    1.0000 </r>
       <r>    3.5923    1.0000 </r>
       <r>    3.6289    1.0000 </r>
       <r>    3.6289    1.0000 </r>
       <r>    3.7422    1.0000 </r>
       <r>    3.7422    1.0000 </r>
       <r>    3.8281    1.0000 </r>
       <r>    3.9817    1.0000 </r>
       <r>    4.0773    1.0000 </r>
       <r>    4.0773    1.0000 </r>
       <r>    4.1523    1.0000 </r>
       <r>    4.1523    1.0000 </r>
       <r>    4.2476    1.0000 </r>
       <r>    4.5148    1.0000 </r>
       <r>    4.5148    1.0000 </r>
       <r>    4.5286    1.0000 </r>
       <r>    4.6268    1.0000 </r>
       <r>    4.6268    1.0000 </r>
       <r>    4.6447    1.0000 </r>
       <r>    4.7682    1.0000 </r>
       <r>    4.7682    1.0000 </r>
       <r>    4.9217    1.0000 </r>
       <r>    4.9217    1.0000 </r>
       <r>    4.9377    1.0000 </r>
       <r>    4.9796    1.0000 </r>
       <r>    5.0828    1.0000 </r>
       <r>    5.1571    1.0000 </r>
       <r>    5.1571    1.0000 </r>
       <r>    5.7679    1.0000 </r>
       <r>    5.7679    1.0000 </r>
       <r>    6.5778    1.0000 </r>
       <r>    6.7367    0.8824 </r>
       <r>    6.7367    0.8824 </r>
       <r>    6.8616    0.0095 </r>
       <r>    6.8616    0.0095 </r>
       <r>    6.8745    0.0034 </r>
       <r>    7.1487    0.0000 </r>
       <r>    7.1487    0.0000 </r>
       <r>    7.2904    0.0000 </r>
       <r>    7.3800    0.0000 </r>
       <r>    7.3800    0.0000 </r>
       <r>    7.5142    0.0000 </r>
       <r>    7.5820    0.0000 </r>
       <r>    7.8129    0.0000 </r>
       <r>    7.8129    0.0000 </r>
       <r>    7.9195    0.0000 </r>
       <r>    7.9752    0.0000 </r>
       <r>    7.9796    0.0000 </r>
       <r>    7.9796    0.0000 </r>
       <r>    8.0471    0.0000 </r>
       <r>    8.0471    0.0000 </r>
       <r>    8.0814    0.0000 </r>
       <r>    8.0877    0.0000 </r>
       <r>    8.1403    0.0000 </r>
       <r>    8.1403    0.0000 </r>
       <r>    8.2105    0.0000 </r>
       <r>    8.2105    0.0000 </r>
       <r>    8.2169    0.0000 </r>
       <r>    8.3904    0.0000 </r>
       <r>    8.4901    0.0000 </r>
       <r>    8.4901    0.0000 </r>
       <r>    8.5636    0.0000 </r>
       <r>    8.6812    0.0000 </r>
       <r>    8.6812    0.0000 </r>
       <r>    8.8792    0.0000 </r>
      </set>
      <set comment="kpoint 3">
       <r>   -6.7527    1.0000 </r>
       <r>   -5.6444    1.0000 </r>
       <r>   -5.2417    1.0000 </r>
       <r>   -4.9235    1.0000 </r>
       <r>   -4.9235    1.0000 </r>
       <r>   -4.6670    1.0000 </r>
       <r>   -4.6670    1.0000 </r>
       <r>   -4.6571    1.0000 </r>
       <r>   -4.2497    1.0000 </r>
       <r>   -4.0905    1.0000 </r>
       <r>   -4.0396    1.0000 </r>
       <r>   -4.0396    1.0000 </r>
       <r>   -3.8743    1.0000 </r>
       <r>   -3.8743    1.0000 </r>
       <r>   -3.6985    1.0000 </r>
       <r>   -3.1493    1.0000 </r>
       <r>   -3.1022    1.0000 </r>
       <r>   -3.0831    1.0000 </r>
       <r>   -3.0831    1.0000 </r>
       <r>   -2.9737    1.0000 </r>
       <r>   -2.9737    1.0000 </r>
       <r>   -2.8307    1.0000 </r>
       <r>   -2.8307    1.0000 </r>
       <r>   -2.7395    1.0000 </r>
       <r>   -2.7231    1.0000 </r>
       <r>   -2.7231    1.0000 </r>
       <r>   -2.6833    1.0000 </r>
       <r>   -1.6660    1.0000 </r>
       <r>   -1.0975    1.0000 </r>
       <r>   -1.0975    1.0000 </r>
       <r>   -1.0152    1.0000 </r>
       <r>   -0.9334    1.0000 </r>
       <r>   -0.9334    1.0000 </r>
       <r>   -0.8470    1.0000 </r>
       <r>   -0.7710    1.0000 </r>
       <r>   -0.7710    1.0000 </r>
       <r>   -0.6843    1.0000 </r>
       <r>   -0.5965    1.0000 </r>
       <r>   -0.5965    1.0000 </r>
       <r>   -0.5931    1.0000 </r>
       <r>   -0.4907    1.0000 </r>
       <r>   -0.1206    1.0000 </r>
       <r>   -0.1206    1.0000 </r>
       <r>   -0.0830    1.0000 </r>
       <r>   -0.0830    1.0000 </r>
       <r>   -0.0418    1.0000 </r>
       <r>    0.7354    1.0000 </r>
       <r>    1.0464    1.0000 </r>
       <r>    1.4241    1.0000 </r>
       <r>    1.4241    1.0000 </r>
       <r>    1.4375    1.0000 </r>
       <r>    1.4375    1.0000 </r>
       <r>    1.6231    1.0000 </r>
       <r>    1.7428    1.0000 </r>
       <r>    1.8409    1.0000 </r>
       <r>    1.8409    1.0000 </r>
       <r>    1.9087    1.0000 </r>
       <r>    1.9920    1.0000 </r>
       <r>    1.9920    1.0000 </r>
       <r>    2.1640    1.0000 </r>
       <r>    2.1640    1.0000 </r>
       <r>    2.2684    1.0000 </r>
       <r>    2.3331    1.0000 </r>
       <r>    2.3331    1.0000 </r>
       <r>    2.6193    1.0000 </r>
       <r>    2.6193    1.0000 </r>
       <r>    2.7031    1.0000 </r>
       <r>    2.7794    1.0000 </r>
       <r>    2.8104    1.0000 </r>
       <r>    2.8104    1.0000 </r>
       <r>    2.9967    1.0000 </r>
       <r>    2.9967    1.0000 </r>
       <r>    3.1141    1.0000 </r>
       <r>    3.1617    1.0000 </r>
       <r>    3.1617    1.0000 </r>
       <r>    3.2285    1.0000 </r>
       <r>    3.2597    1.0000 </r>
       <r>    3.2597    1.0000 </r>
       <r>    3.3504    1.0000 </r>
       <r>    3.4107    1.0000 </r>
       <r>    3.4107    1.0000 </r>
       <r>    3.4604    1.0000 </r>
       <r>    3.4912    1.0000 </r>
       <r>    3.5429    1.0000 </r>
       <r>    3.7893    1.0000 </r>
       <r>    3.8417    1.0000 </r>
       <r>    3.8417    1.0000 </r>
       <r>    3.9527    1.0000 </r>
       <r>    3.9527    1.0000 </r>
       <r>    4.0044    1.0000 </r>
       <r>    4.0817    1.0000 </r>
       <r>    4.0817    1.0000 </r>
       <r>    4.1366    1.0000 </r>
       <r>    4.1366    1.0000 </r>
       <r>    4.1913    1.0000 </r>
       <r>    4.2350    1.0000 </r>
       <r>    4.5400    1.0000 </r>
       <r>    4.5400    1.0000 </r>
       <r>    4.6031    1.0000 </r>
       <r>    4.6031    1.0000 </r>
       <r>    4.6532    1.0000 </r>
       <r>    4.6946    1.0000 </r>
       <r>    4.7602    1.0000 </r>
       <r>    4.7602    1.0000 </r>
       <r>    5.2672    1.0000 </r>
       <r>    5.4229    1.0000 </r>
       <r>    5.4229    1.0000 </r>
       <r>    5.4972    1.0000 </r>
       <r>    5.4972    1.0000 </r>
       <r>    6.5933    1.0000 </r>
       <r>    6.7861    0.4163 </r>
       <r>    6.7861    0.4163 </r>
       <r>    6.9618    0.0000 </r>
       <r>    6.9618    0.0000 </r>
       <r>    7.0779    0.0000 </r>
       <r>    7.3212    0.0000 </r>
       <r>    7.5634    0.0000 </r>
       <r>    7.6983    0.0000 </r>
       <r>    7.6983    0.0000 </r>
       <r>    7.8255    0.0000 </r>
       <r>    7.8255    0.0000 </r>
       <r>    7.9256    0.0000 </r>
       <r>    7.9256    0.0000 </r>
       <r>    7.9444    0.0000 </r>
       <r>    8.1474    0.0000 </r>
       <r>    8.2718    0.0000 </r>
       <r>    8.3182    0.0000 </r>
       <r>    8.3586    0.0000 </r>
       <r>    8.3586    0.0000 </r>
       <r>    8.4339    0.0000 </r>
       <r>    8.4661    0.0000 </r>
       <r>    8.4661    0.0000 </r>
       <r>    8.5207    0.0000 </r>
       <r>    8.5207    0.0000 </r>
       <r>    8.6533    0.0000 </r>
       <r>    8.7817    0.0000 </r>
       <r>    8.7817    0.0000 </r>
       <r>    9.0019    0.0000 </r>
       <r>    9.1078    0.0000 </r>
       <r>    9.1078    0.0000 </r>
       <r>    9.1232    0.0000 </r>
       <r>    9.1589    0.0000 </r>
       <r>    9.1599    0.0000 </r>
       <r>    9.2651    0.0000 </r>
      </set>
      <set comment="kpoint 4">
       <r>   -6.7668    1.0000 </r>
       <r>   -5.6045    1.0000 </r>
       <r>   -5.0562    1.0000 </r>
       <r>   -5.0562    1.0000 </r>
       <r>   -4.9285    1.0000 </r>
       <r>   -4.8893    1.0000 </r>
       <r>   -4.6349    1.0000 </r>
       <r>   -4.3032    1.0000 </r>
       <r>   -4.3032    1.0000 </r>
       <r>   -4.0932    1.0000 </r>
       <r>   -4.0365    1.0000 </r>
       <r>   -4.0082    1.0000 </r>
       <r>   -4.0082    1.0000 </r>
       <r>   -4.0036    1.0000 </r>
       <r>   -3.5792    1.0000 </r>
       <r>   -3.3850    1.0000 </r>
       <r>   -3.3850    1.0000 </r>
       <r>   -3.2710    1.0000 </r>
       <r>   -3.1632    1.0000 </r>
       <r>   -3.0349    1.0000 </r>
       <r>   -3.0091    1.0000 </r>
       <r>   -3.0091    1.0000 </r>
       <r>   -2.9519    1.0000 </r>
       <r>   -2.3030    1.0000 </r>
       <r>   -2.2947    1.0000 </r>
       <r>   -2.2947    1.0000 </r>
       <r>   -2.2206    1.0000 </r>
       <r>   -1.7406    1.0000 </r>
       <r>   -1.4077    1.0000 </r>
       <r>   -1.4077    1.0000 </r>
       <r>   -1.3225    1.0000 </r>
       <r>   -1.2687    1.0000 </r>
       <r>   -0.9101    1.0000 </r>
       <r>   -0.8824    1.0000 </r>
       <r>   -0.8824    1.0000 </r>
       <r>   -0.6343    1.0000 </r>
       <r>   -0.5321    1.0000 </r>
       <r>   -0.3659    1.0000 </r>
       <r>   -0.3659    1.0000 </r>
       <r>   -0.3015    1.0000 </r>
       <r>   -0.2872    1.0000 </r>
       <r>   -0.2051    1.0000 </r>
       <r>   -0.2051    1.0000 </r>
       <r>   -0.1467    1.0000 </r>
       <r>    0.4669    1.0000 </r>
       <r>    0.6909    1.0000 </r>
       <r>    0.6909    1.0000 </r>
       <r>    0.7055    1.0000 </r>
       <r>    0.7384    1.0000 </r>
       <r>    1.3348    1.0000 </r>
       <r>    1.3348    1.0000 </r>
       <r>    1.4443    1.0000 </r>
       <r>    1.5324    1.0000 </r>
       <r>    1.6203    1.0000 </r>
       <r>    1.6203    1.0000 </r>
       <r>    1.6961    1.0000 </r>
       <r>    1.6977    1.0000 </r>
       <r>    1.7757    1.0000 </r>
       <r>    1.7757    1.0000 </r>
       <r>    1.8056    1.0000 </r>
       <r>    1.8868    1.0000 </r>
       <r>    1.9950    1.0000 </r>
       <r>    2.0632    1.0000 </r>
       <r>    2.0632    1.0000 </r>
       <r>    2.3635    1.0000 </r>
       <r>    2.4565    1.0000 </r>
       <r>    2.6862    1.0000 </r>
       <r>    2.6862    1.0000 </r>
       <r>    3.0936    1.0000 </r>
       <r>    3.1314    1.0000 </r>
       <r>    3.1314    1.0000 </r>
       <r>    3.1332    1.0000 </r>
       <r>    3.1812    1.0000 </r>
       <r>    3.2019    1.0000 </r>
       <r>    3.2019    1.0000 </r>
       <r>    3.4232    1.0000 </r>
       <r>    3.4369    1.0000 </r>
       <r>    3.4369    1.0000 </r>
       <r>    3.5450    1.0000 </r>
       <r>    3.7367    1.0000 </r>
       <r>    3.7367    1.0000 </r>
       <r>    3.7409    1.0000 </r>
       <r>    3.7579    1.0000 </r>
       <r>    3.8822    1.0000 </r>
       <r>    3.8822    1.0000 </r>
       <r>    3.9185    1.0000 </r>
       <r>    3.9446    1.0000 </r>
       <r>    4.0420    1.0000 </r>
       <r>    4.0654    1.0000 </r>
       <r>    4.0654    1.0000 </r>
       <r>    4.1722    1.0000 </r>
       <r>    4.2157    1.0000 </r>
       <r>    4.2157    1.0000 </r>
       <r>    4.3067    1.0000 </r>
       <r>    4.3862    1.0000 </r>
       <r>    4.3871    1.0000 </r>
       <r>    4.3871    1.0000 </r>
       <r>    4.4842    1.0000 </r>
       <r>    4.4900    1.0000 </r>
       <r>    4.4900    1.0000 </r>
       <r>    4.5613    1.0000 </r>
       <r>    5.0430    1.0000 </r>
       <r>    5.1977    1.0000 </r>
       <r>    5.2190    1.0000 </r>
       <r>    5.2190    1.0000 </r>
       <r>    5.2492    1.0000 </r>
       <r>    5.2852    1.0000 </r>
       <r>    5.4838    1.0000 </r>
       <r>    5.4838    1.0000 </r>
       <r>    6.4808    1.0000 </r>
       <r>    6.7180    0.9570 </r>
       <r>    6.9287    0.0000 </r>
       <r>    6.9287    0.0000 </r>
       <r>    7.0586    0.0000 </r>
       <r>    7.2330    0.0000 </r>
       <r>    7.2330    0.0000 </r>
       <r>    7.3130    0.0000 </r>
       <r>    7.3651    0.0000 </r>
       <r>    7.4673    0.0000 </r>
       <r>    7.6411    0.0000 </r>
       <r>    7.6538    0.0000 </r>
       <r>    7.6538    0.0000 </r>
       <r>    7.6761    0.0000 </r>
       <r>    7.8057    0.0000 </r>
       <r>    7.9345    0.0000 </r>
       <r>    7.9345    0.0000 </r>
       <r>    7.9358    0.0000 </r>
       <r>    8.0377    0.0000 </r>
       <r>    8.1413    0.0000 </r>
       <r>    8.1413    0.0000 </r>
       <r>    8.2244    0.0000 </r>
       <r>    8.3119    0.0000 </r>
       <r>    8.3536    0.0000 </r>
       <r>    8.3536    0.0000 </r>
       <r>    8.3816    0.0000 </r>
       <r>    8.4314    0.0000 </r>
       <r>    8.4538    0.0000 </r>
       <r>    8.4846    0.0000 </r>
       <r>    8.4931    0.0000 </r>
       <r>    8.4931    0.0000 </r>
       <r>    8.6479    0.0000 </r>
       <r>    8.7433    0.0000 </r>
       <r>    8.7433    0.0000 </r>
       <r>    9.0118    0.0000 </r>
      </set>
      <set comment="kpoint 5">
       <r>   -6.7473    1.0000 </r>
       <r>   -5.5763    1.0000 </r>
       <r>   -5.3344    1.0000 </r>
       <r>   -5.0727    1.0000 </r>
       <r>   -5.0652    1.0000 </r>
       <r>   -4.6609    1.0000 </r>
       <r>   -4.5885    1.0000 </r>
       <r>   -4.3822    1.0000 </r>
       <r>   -4.1968    1.0000 </r>
       <r>   -4.1018    1.0000 </r>
       <r>   -3.9711    1.0000 </r>
       <r>   -3.9497    1.0000 </r>
       <r>   -3.8012    1.0000 </r>
       <r>   -3.6958    1.0000 </r>
       <r>   -3.5752    1.0000 </r>
       <r>   -3.4495    1.0000 </r>
       <r>   -3.4474    1.0000 </r>
       <r>   -3.3760    1.0000 </r>
       <r>   -3.2214    1.0000 </r>
       <r>   -3.2072    1.0000 </r>
       <r>   -3.1102    1.0000 </r>
       <r>   -3.0736    1.0000 </r>
       <r>   -2.5715    1.0000 </r>
       <r>   -2.5287    1.0000 </r>
       <r>   -2.4407    1.0000 </r>
       <r>   -2.2914    1.0000 </r>
       <r>   -2.2826    1.0000 </r>
       <r>   -1.6569    1.0000 </r>
       <r>   -1.3835    1.0000 </r>
       <r>   -1.3303    1.0000 </r>
       <r>   -1.3012    1.0000 </r>
       <r>   -1.1932    1.0000 </r>
       <r>   -1.1175    1.0000 </r>
       <r>   -0.9088    1.0000 </r>
       <r>   -0.8455    1.0000 </r>
       <r>   -0.8317    1.0000 </r>
       <r>   -0.5822    1.0000 </r>
       <r>   -0.5562    1.0000 </r>
       <r>   -0.5194    1.0000 </r>
       <r>   -0.4563    1.0000 </r>
       <r>   -0.4496    1.0000 </r>
       <r>   -0.1290    1.0000 </r>
       <r>   -0.1266    1.0000 </r>
       <r>    0.0695    1.0000 </r>
       <r>    0.2003    1.0000 </r>
       <r>    0.2386    1.0000 </r>
       <r>    0.7157    1.0000 </r>
       <r>    0.8790    1.0000 </r>
       <r>    0.9175    1.0000 </r>
       <r>    1.1200    1.0000 </r>
       <r>    1.5299    1.0000 </r>
       <r>    1.7014    1.0000 </r>
       <r>    1.8225    1.0000 </r>
       <r>    1.8965    1.0000 </r>
       <r>    1.9509    1.0000 </r>
       <r>    2.0300    1.0000 </r>
       <r>    2.1081    1.0000 </r>
       <r>    2.1284    1.0000 </r>
       <r>    2.2951    1.0000 </r>
       <r>    2.2967    1.0000 </r>
       <r>    2.3495    1.0000 </r>
       <r>    2.4192    1.0000 </r>
       <r>    2.4818    1.0000 </r>
       <r>    2.5183    1.0000 </r>
       <r>    2.5212    1.0000 </r>
       <r>    2.6119    1.0000 </r>
       <r>    2.6377    1.0000 </r>
       <r>    2.7570    1.0000 </r>
       <r>    2.7850    1.0000 </r>
       <r>    2.8125    1.0000 </r>
       <r>    2.8869    1.0000 </r>
       <r>    2.9794    1.0000 </r>
       <r>    2.9965    1.0000 </r>
       <r>    3.0179    1.0000 </r>
       <r>    3.0461    1.0000 </r>
       <r>    3.1105    1.0000 </r>
       <r>    3.1980    1.0000 </r>
       <r>    3.2447    1.0000 </r>
       <r>    3.2610    1.0000 </r>
       <r>    3.3140    1.0000 </r>
       <r>    3.3347    1.0000 </r>
       <r>    3.3979    1.0000 </r>
       <r>    3.5019    1.0000 </r>
       <r>    3.6380    1.0000 </r>
       <r>    3.6501    1.0000 </r>
       <r>    3.7123    1.0000 </r>
       <r>    3.7497    1.0000 </r>
       <r>    3.7948    1.0000 </r>
       <r>    3.9134    1.0000 </r>
       <r>    3.9889    1.0000 </r>
       <r>    3.9946    1.0000 </r>
       <r>    4.0701    1.0000 </r>
       <r>    4.0748    1.0000 </r>
       <r>    4.2056    1.0000 </r>
       <r>    4.2272    1.0000 </r>
       <r>    4.3144    1.0000 </r>
       <r>    4.3424    1.0000 </r>
       <r>    4.3778    1.0000 </r>
       <r>    4.3851    1.0000 </r>
       <r>    4.4273    1.0000 </r>
       <r>    4.5296    1.0000 </r>
       <r>    4.5469    1.0000 </r>
       <r>    4.9127    1.0000 </r>
       <r>    4.9201    1.0000 </r>
       <r>    5.0036    1.0000 </r>
       <r>    5.1236    1.0000 </r>
       <r>    5.2966    1.0000 </r>
       <r>    5.4907    1.0000 </r>
       <r>    5.5680    1.0000 </r>
       <r>    6.6737    0.9985 </r>
       <r>    6.8049    0.2287 </r>
       <r>    7.0838    0.0000 </r>
       <r>    7.1585    0.0000 </r>
       <r>    7.3919    0.0000 </r>
       <r>    7.5368    0.0000 </r>
       <r>    7.5416    0.0000 </r>
       <r>    7.5729    0.0000 </r>
       <r>    7.6799    0.0000 </r>
       <r>    7.7725    0.0000 </r>
       <r>    7.8607    0.0000 </r>
       <r>    7.9799    0.0000 </r>
       <r>    8.0090    0.0000 </r>
       <r>    8.0638    0.0000 </r>
       <r>    8.1363    0.0000 </r>
       <r>    8.2251    0.0000 </r>
       <r>    8.3260    0.0000 </r>
       <r>    8.3766    0.0000 </r>
       <r>    8.4644    0.0000 </r>
       <r>    8.4681    0.0000 </r>
       <r>    8.5246    0.0000 </r>
       <r>    8.5641    0.0000 </r>
       <r>    8.6523    0.0000 </r>
       <r>    8.6568    0.0000 </r>
       <r>    8.6776    0.0000 </r>
       <r>    8.7584    0.0000 </r>
       <r>    8.8218    0.0000 </r>
       <r>    8.8849    0.0000 </r>
       <r>    8.9652    0.0000 </r>
       <r>    8.9653    0.0000 </r>
       <r>    8.9925    0.0000 </r>
       <r>    9.0421    0.0000 </r>
       <r>    9.0967    0.0000 </r>
       <r>    9.1036    0.0000 </r>
       <r>    9.1638    0.0000 </r>
      </set>
      <set comment="kpoint 6">
       <r>   -6.7535    1.0000 </r>
       <r>   -5.5984    1.0000 </r>
       <r>   -5.3152    1.0000 </r>
       <r>   -5.0040    1.0000 </r>
       <r>   -4.9494    1.0000 </r>
       <r>   -4.6815    1.0000 </r>
       <r>   -4.5309    1.0000 </r>
       <r>   -4.5183    1.0000 </r>
       <r>   -4.3408    1.0000 </r>
       <r>   -4.1549    1.0000 </r>
       <r>   -4.0693    1.0000 </r>
       <r>   -3.9852    1.0000 </r>
       <r>   -3.8453    1.0000 </r>
       <r>   -3.7400    1.0000 </r>
       <r>   -3.5068    1.0000 </r>
       <r>   -3.4722    1.0000 </r>
       <r>   -3.3423    1.0000 </r>
       <r>   -3.2538    1.0000 </r>
       <r>   -3.1263    1.0000 </r>
       <r>   -3.0325    1.0000 </r>
       <r>   -2.9997    1.0000 </r>
       <r>   -2.8644    1.0000 </r>
       <r>   -2.8249    1.0000 </r>
       <r>   -2.7688    1.0000 </r>
       <r>   -2.5606    1.0000 </r>
       <r>   -2.5382    1.0000 </r>
       <r>   -2.0866    1.0000 </r>
       <r>   -1.7591    1.0000 </r>
       <r>   -1.5130    1.0000 </r>
       <r>   -1.1286    1.0000 </r>
       <r>   -1.0221    1.0000 </r>
       <r>   -0.9765    1.0000 </r>
       <r>   -0.8710    1.0000 </r>
       <r>   -0.8408    1.0000 </r>
       <r>   -0.8154    1.0000 </r>
       <r>   -0.7527    1.0000 </r>
       <r>   -0.6985    1.0000 </r>
       <r>   -0.6746    1.0000 </r>
       <r>   -0.6012    1.0000 </r>
       <r>   -0.5925    1.0000 </r>
       <r>   -0.5443    1.0000 </r>
       <r>   -0.5238    1.0000 </r>
       <r>    0.0693    1.0000 </r>
       <r>    0.3643    1.0000 </r>
       <r>    0.3911    1.0000 </r>
       <r>    0.5276    1.0000 </r>
       <r>    0.5810    1.0000 </r>
       <r>    0.6418    1.0000 </r>
       <r>    0.6551    1.0000 </r>
       <r>    1.0409    1.0000 </r>
       <r>    1.4490    1.0000 </r>
       <r>    1.6176    1.0000 </r>
       <r>    1.7146    1.0000 </r>
       <r>    1.9074    1.0000 </r>
       <r>    1.9187    1.0000 </r>
       <r>    1.9605    1.0000 </r>
       <r>    2.0448    1.0000 </r>
       <r>    2.0569    1.0000 </r>
       <r>    2.1515    1.0000 </r>
       <r>    2.2094    1.0000 </r>
       <r>    2.2149    1.0000 </r>
       <r>    2.2726    1.0000 </r>
       <r>    2.3839    1.0000 </r>
       <r>    2.4129    1.0000 </r>
       <r>    2.4929    1.0000 </r>
       <r>    2.5186    1.0000 </r>
       <r>    2.5244    1.0000 </r>
       <r>    2.6344    1.0000 </r>
       <r>    2.8352    1.0000 </r>
       <r>    2.8396    1.0000 </r>
       <r>    2.9384    1.0000 </r>
       <r>    2.9820    1.0000 </r>
       <r>    3.0022    1.0000 </r>
       <r>    3.0328    1.0000 </r>
       <r>    3.2076    1.0000 </r>
       <r>    3.2805    1.0000 </r>
       <r>    3.3188    1.0000 </r>
       <r>    3.3196    1.0000 </r>
       <r>    3.4105    1.0000 </r>
       <r>    3.4581    1.0000 </r>
       <r>    3.4740    1.0000 </r>
       <r>    3.5242    1.0000 </r>
       <r>    3.5507    1.0000 </r>
       <r>    3.5763    1.0000 </r>
       <r>    3.6268    1.0000 </r>
       <r>    3.7289    1.0000 </r>
       <r>    3.7729    1.0000 </r>
       <r>    3.8573    1.0000 </r>
       <r>    3.9272    1.0000 </r>
       <r>    3.9988    1.0000 </r>
       <r>    4.0437    1.0000 </r>
       <r>    4.0665    1.0000 </r>
       <r>    4.2613    1.0000 </r>
       <r>    4.2948    1.0000 </r>
       <r>    4.3471    1.0000 </r>
       <r>    4.4808    1.0000 </r>
       <r>    4.4867    1.0000 </r>
       <r>    4.5400    1.0000 </r>
       <r>    4.6303    1.0000 </r>
       <r>    4.6383    1.0000 </r>
       <r>    4.6983    1.0000 </r>
       <r>    4.7326    1.0000 </r>
       <r>    4.8060    1.0000 </r>
       <r>    4.8608    1.0000 </r>
       <r>    4.9381    1.0000 </r>
       <r>    4.9794    1.0000 </r>
       <r>    5.0482    1.0000 </r>
       <r>    5.3927    1.0000 </r>
       <r>    5.8010    1.0000 </r>
       <r>    6.6894    0.9942 </r>
       <r>    6.8501    0.0216 </r>
       <r>    7.0560    0.0000 </r>
       <r>    7.1439    0.0000 </r>
       <r>    7.1860    0.0000 </r>
       <r>    7.2429    0.0000 </r>
       <r>    7.3616    0.0000 </r>
       <r>    7.5230    0.0000 </r>
       <r>    7.6595    0.0000 </r>
       <r>    7.7300    0.0000 </r>
       <r>    7.7886    0.0000 </r>
       <r>    7.7943    0.0000 </r>
       <r>    7.8382    0.0000 </r>
       <r>    7.9535    0.0000 </r>
       <r>    8.0031    0.0000 </r>
       <r>    8.1014    0.0000 </r>
       <r>    8.1347    0.0000 </r>
       <r>    8.1487    0.0000 </r>
       <r>    8.3065    0.0000 </r>
       <r>    8.4144    0.0000 </r>
       <r>    8.4275    0.0000 </r>
       <r>    8.4745    0.0000 </r>
       <r>    8.5280    0.0000 </r>
       <r>    8.5747    0.0000 </r>
       <r>    8.5855    0.0000 </r>
       <r>    8.6111    0.0000 </r>
       <r>    8.6771    0.0000 </r>
       <r>    8.7277    0.0000 </r>
       <r>    8.7479    0.0000 </r>
       <r>    8.8547    0.0000 </r>
       <r>    8.8941    0.0000 </r>
       <r>    9.0082    0.0000 </r>
       <r>    9.0200    0.0000 </r>
       <r>    9.1412    0.0000 </r>
       <r>    9.2028    0.0000 </r>
      </set>
      <set comment="kpoint 7">
       <r>   -6.7415    1.0000 </r>
       <r>   -5.5387    1.0000 </r>
       <r>   -5.2820    1.0000 </r>
       <r>   -5.1507    1.0000 </r>
       <r>   -5.1507    1.0000 </r>
       <r>   -5.0087    1.0000 </r>
       <r>   -4.2226    1.0000 </r>
       <r>   -4.1566    1.0000 </r>
       <r>   -4.0950    1.0000 </r>
       <r>   -4.0950    1.0000 </r>
       <r>   -3.7730    1.0000 </r>
       <r>   -3.6708    1.0000 </r>
       <r>   -3.6708    1.0000 </r>
       <r>   -3.6545    1.0000 </r>
       <r>   -3.5933    1.0000 </r>
       <r>   -3.5703    1.0000 </r>
       <r>   -3.5454    1.0000 </r>
       <r>   -3.5454    1.0000 </r>
       <r>   -3.4791    1.0000 </r>
       <r>   -3.4688    1.0000 </r>
       <r>   -3.4688    1.0000 </r>
       <r>   -3.4515    1.0000 </r>
       <r>   -2.0540    1.0000 </r>
       <r>   -2.0261    1.0000 </r>
       <r>   -1.9738    1.0000 </r>
       <r>   -1.9738    1.0000 </r>
       <r>   -1.9385    1.0000 </r>
       <r>   -1.8175    1.0000 </r>
       <r>   -1.7294    1.0000 </r>
       <r>   -1.7230    1.0000 </r>
       <r>   -1.7230    1.0000 </r>
       <r>   -1.6976    1.0000 </r>
       <r>   -1.4165    1.0000 </r>
       <r>   -0.7576    1.0000 </r>
       <r>   -0.7576    1.0000 </r>
       <r>   -0.7456    1.0000 </r>
       <r>   -0.6659    1.0000 </r>
       <r>   -0.6659    1.0000 </r>
       <r>   -0.6450    1.0000 </r>
       <r>   -0.6221    1.0000 </r>
       <r>    0.1273    1.0000 </r>
       <r>    0.1273    1.0000 </r>
       <r>    0.1455    1.0000 </r>
       <r>    0.1605    1.0000 </r>
       <r>    0.2743    1.0000 </r>
       <r>    0.3291    1.0000 </r>
       <r>    0.3291    1.0000 </r>
       <r>    0.3633    1.0000 </r>
       <r>    0.8340    1.0000 </r>
       <r>    1.4369    1.0000 </r>
       <r>    1.7517    1.0000 </r>
       <r>    1.7517    1.0000 </r>
       <r>    2.1948    1.0000 </r>
       <r>    2.2356    1.0000 </r>
       <r>    2.2356    1.0000 </r>
       <r>    2.2408    1.0000 </r>
       <r>    2.2442    1.0000 </r>
       <r>    2.2913    1.0000 </r>
       <r>    2.2913    1.0000 </r>
       <r>    2.3133    1.0000 </r>
       <r>    2.3664    1.0000 </r>
       <r>    2.3827    1.0000 </r>
       <r>    2.3827    1.0000 </r>
       <r>    2.3969    1.0000 </r>
       <r>    2.3969    1.0000 </r>
       <r>    2.4016    1.0000 </r>
       <r>    2.4095    1.0000 </r>
       <r>    2.4157    1.0000 </r>
       <r>    2.8979    1.0000 </r>
       <r>    2.8979    1.0000 </r>
       <r>    2.9066    1.0000 </r>
       <r>    2.9958    1.0000 </r>
       <r>    3.0435    1.0000 </r>
       <r>    3.1321    1.0000 </r>
       <r>    3.1321    1.0000 </r>
       <r>    3.1366    1.0000 </r>
       <r>    3.2097    1.0000 </r>
       <r>    3.2097    1.0000 </r>
       <r>    3.3459    1.0000 </r>
       <r>    3.3459    1.0000 </r>
       <r>    3.3844    1.0000 </r>
       <r>    3.4593    1.0000 </r>
       <r>    3.5729    1.0000 </r>
       <r>    3.5873    1.0000 </r>
       <r>    3.5873    1.0000 </r>
       <r>    3.6149    1.0000 </r>
       <r>    3.6292    1.0000 </r>
       <r>    3.7009    1.0000 </r>
       <r>    3.7009    1.0000 </r>
       <r>    3.7058    1.0000 </r>
       <r>    3.8915    1.0000 </r>
       <r>    3.9268    1.0000 </r>
       <r>    3.9961    1.0000 </r>
       <r>    4.0077    1.0000 </r>
       <r>    4.0077    1.0000 </r>
       <r>    4.1440    1.0000 </r>
       <r>    4.1676    1.0000 </r>
       <r>    4.1676    1.0000 </r>
       <r>    4.2384    1.0000 </r>
       <r>    4.2386    1.0000 </r>
       <r>    4.6939    1.0000 </r>
       <r>    4.6939    1.0000 </r>
       <r>    4.7344    1.0000 </r>
       <r>    4.7344    1.0000 </r>
       <r>    5.2979    1.0000 </r>
       <r>    5.3627    1.0000 </r>
       <r>    5.3627    1.0000 </r>
       <r>    5.4020    1.0000 </r>
       <r>    5.5362    1.0000 </r>
       <r>    6.4290    1.0000 </r>
       <r>    6.8852    0.0013 </r>
       <r>    6.9654    0.0000 </r>
       <r>    7.2552    0.0000 </r>
       <r>    7.2552    0.0000 </r>
       <r>    7.6049    0.0000 </r>
       <r>    7.7175    0.0000 </r>
       <r>    7.9379    0.0000 </r>
       <r>    7.9810    0.0000 </r>
       <r>    8.0290    0.0000 </r>
       <r>    8.0290    0.0000 </r>
       <r>    8.1576    0.0000 </r>
       <r>    8.2344    0.0000 </r>
       <r>    8.2344    0.0000 </r>
       <r>    8.3012    0.0000 </r>
       <r>    8.3261    0.0000 </r>
       <r>    8.3261    0.0000 </r>
       <r>    8.5392    0.0000 </r>
       <r>    8.6667    0.0000 </r>
       <r>    8.7073    0.0000 </r>
       <r>    8.7449    0.0000 </r>
       <r>    8.7752    0.0000 </r>
       <r>    8.7752    0.0000 </r>
       <r>    8.7878    0.0000 </r>
       <r>    8.7878    0.0000 </r>
       <r>    8.8161    0.0000 </r>
       <r>    8.8292    0.0000 </r>
       <r>    8.8947    0.0000 </r>
       <r>    8.8947    0.0000 </r>
       <r>    8.9419    0.0000 </r>
       <r>    8.9861    0.0000 </r>
       <r>    9.1537    0.0000 </r>
       <r>    9.1537    0.0000 </r>
       <r>    9.2727    0.0000 </r>
       <r>    9.3425    0.0000 </r>
      </set>
      <set comment="kpoint 8">
       <r>   -6.7410    1.0000 </r>
       <r>   -5.4362    1.0000 </r>
       <r>   -5.4143    1.0000 </r>
       <r>   -5.3923    1.0000 </r>
       <r>   -4.7984    1.0000 </r>
       <r>   -4.6991    1.0000 </r>
       <r>   -4.5871    1.0000 </r>
       <r>   -4.4863    1.0000 </r>
       <r>   -4.0601    1.0000 </r>
       <r>   -4.0058    1.0000 </r>
[...]
        <r>  0.0014  0.0049  0.0000 </r>
        <r>  0.0001  0.0012  0.0000 </r>
        <r>  0.0014  0.0049  0.0000 </r>
        <r>  0.0008  0.0053  0.0000 </r>
        <r>  0.0008  0.0020  0.0000 </r>
        <r>  0.0008  0.0053  0.0000 </r>
        <r>  0.0008  0.0053  0.0000 </r>
        <r>  0.0001  0.0004  0.0000 </r>
        <r>  0.0014  0.0049  0.0000 </r>
        <r>  0.0028  0.0010  0.0000 </r>
        <r>  0.0001  0.0004  0.0000 </r>
        <r>  0.0014  0.0049  0.0000 </r>
        <r>  0.0008  0.0020  0.0000 </r>
        <r>  0.0001  0.0012  0.0000 </r>
        <r>  0.0014  0.0049  0.0000 </r>
        <r>  0.0001  0.0004  0.0000 </r>
        <r>  0.0028  0.0010  0.0000 </r>
        <r>  0.0001  0.0012  0.0000 </r>
        <r>  0.0001  0.0004  0.0000 </r>
        <r>  0.0001  0.0012  0.0000 </r>
        <r>  0.0000  0.0001  0.0000 </r>
        <r>  0.0006  0.0012  0.0000 </r>
        <r>  0.0006  0.0012  0.0000 </r>
        <r>  0.0037  0.0011  0.0000 </r>
        <r>  0.0000  0.0011  0.0000 </r>
        <r>  0.0006  0.0012  0.0000 </r>
        <r>  0.0037  0.0011  0.0000 </r>
        <r>  0.0006  0.0012  0.0000 </r>
        <r>  0.0009  0.0029  0.0000 </r>
        <r>  0.0006  0.0012  0.0000 </r>
        <r>  0.0000  0.0011  0.0000 </r>
        <r>  0.0037  0.0011  0.0000 </r>
        <r>  0.0000  0.0011  0.0000 </r>
        <r>  0.0000  0.0011  0.0000 </r>
        <r>  0.0004  0.0065  0.0000 </r>
        <r>  0.0006  0.0012  0.0000 </r>
        <r>  0.0000  0.0064  0.0000 </r>
        <r>  0.0004  0.0065  0.0000 </r>
        <r>  0.0006  0.0012  0.0000 </r>
        <r>  0.0037  0.0011  0.0000 </r>
        <r>  0.0009  0.0029  0.0000 </r>
        <r>  0.0006  0.0012  0.0000 </r>
        <r>  0.0004  0.0065  0.0000 </r>
        <r>  0.0000  0.0064  0.0000 </r>
        <r>  0.0009  0.0029  0.0000 </r>
        <r>  0.0004  0.0065  0.0000 </r>
        <r>  0.0009  0.0029  0.0000 </r>
        <r>  0.0000  0.0000  0.0000 </r>
       </set>
       <set comment="band 139">
        <r>  0.0000  0.0044  0.0000 </r>
        <r>  0.0012  0.0039  0.0000 </r>
        <r>  0.0012  0.0039  0.0000 </r>
        <r>  0.0001  0.0015  0.0000 </r>
        <r>  0.0000  0.0009  0.0000 </r>
        <r>  0.0012  0.0039  0.0000 </r>
        <r>  0.0001  0.0015  0.0000 </r>
        <r>  0.0012  0.0039  0.0000 </r>
        <r>  0.0031  0.0023  0.0000 </r>
        <r>  0.0012  0.0039  0.0000 </r>
        <r>  0.0000  0.0009  0.0000 </r>
        <r>  0.0001  0.0015  0.0000 </r>
        <r>  0.0000  0.0009  0.0000 </r>
        <r>  0.0000  0.0009  0.0000 </r>
        <r>  0.0000  0.0032  0.0000 </r>
        <r>  0.0012  0.0039  0.0000 </r>
        <r>  0.0000  0.0107  0.0000 </r>
        <r>  0.0000  0.0031  0.0000 </r>
        <r>  0.0012  0.0039  0.0000 </r>
        <r>  0.0001  0.0015  0.0000 </r>
        <r>  0.0031  0.0023  0.0000 </r>
        <r>  0.0012  0.0039  0.0000 </r>
        <r>  0.0000  0.0031  0.0000 </r>
        <r>  0.0000  0.0106  0.0000 </r>
        <r>  0.0031  0.0023  0.0000 </r>
        <r>  0.0000  0.0032  0.0000 </r>
        <r>  0.0031  0.0023  0.0000 </r>
        <r>  0.0000  0.0127  0.0000 </r>
        <r>  0.0001  0.0031  0.0000 </r>
        <r>  0.0001  0.0031  0.0000 </r>
        <r>  0.0003  0.0013  0.0000 </r>
        <r>  0.0009  0.0010  0.0000 </r>
        <r>  0.0001  0.0031  0.0000 </r>
        <r>  0.0003  0.0013  0.0000 </r>
        <r>  0.0001  0.0031  0.0000 </r>
        <r>  0.0010  0.0006  0.0000 </r>
        <r>  0.0001  0.0031  0.0000 </r>
        <r>  0.0009  0.0010  0.0000 </r>
        <r>  0.0003  0.0013  0.0000 </r>
        <r>  0.0009  0.0010  0.0000 </r>
        <r>  0.0009  0.0010  0.0000 </r>
        <r>  0.0006  0.0050  0.0000 </r>
        <r>  0.0001  0.0031  0.0000 </r>
        <r>  0.0000  0.0039  0.0000 </r>
        <r>  0.0006  0.0050  0.0000 </r>
        <r>  0.0001  0.0031  0.0000 </r>
        <r>  0.0003  0.0013  0.0000 </r>
        <r>  0.0010  0.0006  0.0000 </r>
        <r>  0.0001  0.0031  0.0000 </r>
        <r>  0.0006  0.0050  0.0000 </r>
        <r>  0.0000  0.0039  0.0000 </r>
        <r>  0.0010  0.0006  0.0000 </r>
        <r>  0.0006  0.0050  0.0000 </r>
        <r>  0.0010  0.0006  0.0000 </r>
        <r>  0.0000  0.0000  0.0000 </r>
       </set>
       <set comment="band 140">
        <r>  0.0000  0.0023  0.0000 </r>
        <r>  0.0001  0.0025  0.0000 </r>
        <r>  0.0001  0.0025  0.0000 </r>
        <r>  0.0010  0.0034  0.0000 </r>
        <r>  0.0001  0.0037  0.0000 </r>
        <r>  0.0001  0.0025  0.0000 </r>
        <r>  0.0010  0.0034  0.0000 </r>
        <r>  0.0001  0.0025  0.0000 </r>
        <r>  0.0008  0.0049  0.0000 </r>
        <r>  0.0001  0.0025  0.0000 </r>
        <r>  0.0001  0.0037  0.0000 </r>
        <r>  0.0010  0.0034  0.0000 </r>
        <r>  0.0001  0.0037  0.0000 </r>
        <r>  0.0001  0.0037  0.0000 </r>
        <r>  0.0003  0.0026  0.0000 </r>
        <r>  0.0001  0.0025  0.0000 </r>
        <r>  0.0000  0.0029  0.0000 </r>
        <r>  0.0003  0.0026  0.0000 </r>
        <r>  0.0001  0.0025  0.0000 </r>
        <r>  0.0010  0.0034  0.0000 </r>
        <r>  0.0008  0.0049  0.0000 </r>
        <r>  0.0001  0.0025  0.0000 </r>
        <r>  0.0003  0.0026  0.0000 </r>
        <r>  0.0000  0.0029  0.0000 </r>
        <r>  0.0008  0.0048  0.0000 </r>
        <r>  0.0003  0.0026  0.0000 </r>
        <r>  0.0008  0.0048  0.0000 </r>
        <r>  0.0004  0.0000  0.0000 </r>
        <r>  0.0007  0.0052  0.0000 </r>
        <r>  0.0007  0.0052  0.0000 </r>
        <r>  0.0004  0.0037  0.0000 </r>
        <r>  0.0002  0.0017  0.0000 </r>
        <r>  0.0007  0.0052  0.0000 </r>
        <r>  0.0004  0.0038  0.0000 </r>
        <r>  0.0007  0.0052  0.0000 </r>
        <r>  0.0000  0.0024  0.0000 </r>
        <r>  0.0007  0.0052  0.0000 </r>
        <r>  0.0002  0.0017  0.0000 </r>
        <r>  0.0004  0.0037  0.0000 </r>
        <r>  0.0002  0.0017  0.0000 </r>
        <r>  0.0002  0.0017  0.0000 </r>
        <r>  0.0001  0.0018  0.0000 </r>
        <r>  0.0007  0.0052  0.0000 </r>
        <r>  0.0008  0.0002  0.0000 </r>
        <r>  0.0001  0.0018  0.0000 </r>
        <r>  0.0007  0.0052  0.0000 </r>
        <r>  0.0004  0.0038  0.0000 </r>
        <r>  0.0000  0.0024  0.0000 </r>
        <r>  0.0007  0.0052  0.0000 </r>
        <r>  0.0001  0.0018  0.0000 </r>
        <r>  0.0008  0.0002  0.0000 </r>
        <r>  0.0000  0.0024  0.0000 </r>
        <r>  0.0001  0.0018  0.0000 </r>
        <r>  0.0000  0.0024  0.0000 </r>
        <r>  0.0000  0.0000  0.0000 </r>
       </set>
       <set comment="band 141">
        <r>  0.0000  0.0009  0.0000 </r>
        <r>  0.0005  0.0031  0.0000 </r>
        <r>  0.0005  0.0031  0.0000 </r>
        <r>  0.0001  0.0057  0.0000 </r>
        <r>  0.0009  0.0016  0.0000 </r>
        <r>  0.0005  0.0030  0.0000 </r>
        <r>  0.0001  0.0058  0.0000 </r>
        <r>  0.0005  0.0031  0.0000 </r>
        <r>  0.0011  0.0021  0.0000 </r>
        <r>  0.0005  0.0030  0.0000 </r>
        <r>  0.0009  0.0016  0.0000 </r>
        <r>  0.0001  0.0058  0.0000 </r>
        <r>  0.0009  0.0016  0.0000 </r>
        <r>  0.0009  0.0016  0.0000 </r>
        <r>  0.0010  0.0012  0.0000 </r>
        <r>  0.0005  0.0031  0.0000 </r>
        <r>  0.0032  0.0017  0.0000 </r>
        <r>  0.0010  0.0012  0.0000 </r>
        <r>  0.0005  0.0031  0.0000 </r>
        <r>  0.0001  0.0058  0.0000 </r>
        <r>  0.0011  0.0021  0.0000 </r>
        <r>  0.0005  0.0031  0.0000 </r>
        <r>  0.0011  0.0012  0.0000 </r>
        <r>  0.0032  0.0017  0.0000 </r>
        <r>  0.0011  0.0021  0.0000 </r>
        <r>  0.0011  0.0012  0.0000 </r>
        <r>  0.0011  0.0021  0.0000 </r>
        <r>  0.0000  0.0122  0.0000 </r>
        <r>  0.0008  0.0028  0.0000 </r>
        <r>  0.0008  0.0028  0.0000 </r>
        <r>  0.0010  0.0017  0.0000 </r>
        <r>  0.0042  0.0007  0.0000 </r>
        <r>  0.0008  0.0028  0.0000 </r>
        <r>  0.0010  0.0017  0.0000 </r>
        <r>  0.0008  0.0028  0.0000 </r>
        <r>  0.0000  0.0040  0.0000 </r>
        <r>  0.0007  0.0028  0.0000 </r>
        <r>  0.0042  0.0007  0.0000 </r>
        <r>  0.0010  0.0017  0.0000 </r>
        <r>  0.0042  0.0007  0.0000 </r>
        <r>  0.0042  0.0007  0.0000 </r>
        <r>  0.0011  0.0017  0.0000 </r>
        <r>  0.0007  0.0028  0.0000 </r>
        <r>  0.0000  0.0007  0.0000 </r>
        <r>  0.0011  0.0017  0.0000 </r>
        <r>  0.0008  0.0028  0.0000 </r>
        <r>  0.0010  0.0018  0.0000 </r>
        <r>  0.0000  0.0040  0.0000 </r>
        <r>  0.0007  0.0028  0.0000 </r>
        <r>  0.0011  0.0017  0.0000 </r>
        <r>  0.0000  0.0007  0.0000 </r>
        <r>  0.0000  0.0040  0.0000 </r>
        <r>  0.0011  0.0017  0.0000 </r>
        <r>  0.0000  0.0040  0.0000 </r>
        <r>  0.0000  0.0000  0.0000 </r>
       </set>
       <set comment="band 142">
        <r>  0.0000  0.0120  0.0000 </r>
        <r>  0.0007  0.0036  0.0000 </r>
        <r>  0.0001  0.0015  0.0000 </r>
        <r>  0.0024  0.0075  0.0000 </r>
        <r>  0.0009  0.0026  0.0000 </r>
        <r>  0.0001  0.0042  0.0000 </r>
        <r>  0.0015  0.0075  0.0000 </r>
        <r>  0.0002  0.0041  0.0000 </r>
        <r>  0.0001  0.0027  0.0000 </r>
        <r>  0.0006  0.0008  0.0000 </r>
        <r>  0.0022  0.0016  0.0000 </r>
        <r>  0.0015  0.0074  0.0000 </r>
        <r>  0.0022  0.0016  0.0000 </r>
        <r>  0.0009  0.0026  0.0000 </r>
        <r>  0.0011  0.0034  0.0000 </r>
        <r>  0.0001  0.0015  0.0000 </r>
        <r>  0.0003  0.0040  0.0000 </r>
        <r>  0.0019  0.0060  0.0000 </r>
        <r>  0.0006  0.0007  0.0000 </r>
        <r>  0.0024  0.0076  0.0000 </r>
        <r>  0.0000  0.0017  0.0000 </r>
        <r>  0.0007  0.0037  0.0000 </r>
        <r>  0.0003  0.0012  0.0000 </r>
        <r>  0.0003  0.0041  0.0000 </r>
        <r>  0.0000  0.0017  0.0000 </r>
        <r>  0.0010  0.0036  0.0000 </r>
        <r>  0.0001  0.0026  0.0000 </r>
        <r>  0.0000  0.0027  0.0000 </r>
        <r>  0.0007  0.0040  0.0000 </r>
        <r>  0.0036  0.0014  0.0000 </r>
        <r>  0.0000  0.0014  0.0000 </r>
        <r>  0.0011  0.0070  0.0000 </r>
        <r>  0.0025  0.0020  0.0000 </r>
        <r>  0.0000  0.0014  0.0000 </r>
        <r>  0.0025  0.0020  0.0000 </r>
        <r>  0.0011  0.0032  0.0000 </r>
        <r>  0.0014  0.0033  0.0000 </r>
        <r>  0.0002  0.0097  0.0000 </r>
        <r>  0.0000  0.0014  0.0000 </r>
        <r>  0.0002  0.0097  0.0000 </r>
        <r>  0.0010  0.0070  0.0000 </r>
        <r>  0.0003  0.0013  0.0000 </r>
        <r>  0.0036  0.0014  0.0000 </r>
        <r>  0.0011  0.0090  0.0000 </r>
        <r>  0.0005  0.0025  0.0000 </r>
        <r>  0.0014  0.0032  0.0000 </r>
        <r>  0.0000  0.0014  0.0000 </r>
        <r>  0.0002  0.0041  0.0000 </r>
        <r>  0.0006  0.0040  0.0000 </r>
        <r>  0.0001  0.0003  0.0000 </r>
        <r>  0.0012  0.0090  0.0000 </r>
        <r>  0.0002  0.0041  0.0000 </r>
        <r>  0.0003  0.0013  0.0000 </r>
        <r>  0.0012  0.0032  0.0000 </r>
        <r>  0.0001  0.0000  0.0000 </r>
       </set>
       <set comment="band 143">
        <r>  0.0000  0.0132  0.0000 </r>
        <r>  0.0003  0.0027  0.0000 </r>
        <r>  0.0011  0.0048  0.0000 </r>
        <r>  0.0004  0.0042  0.0000 </r>
        <r>  0.0015  0.0020  0.0000 </r>
        <r>  0.0009  0.0021  0.0000 </r>
        <r>  0.0011  0.0044  0.0000 </r>
        <r>  0.0009  0.0021  0.0000 </r>
        <r>  0.0000  0.0006  0.0000 </r>
        <r>  0.0004  0.0054  0.0000 </r>
        <r>  0.0003  0.0029  0.0000 </r>
        <r>  0.0012  0.0044  0.0000 </r>
        <r>  0.0003  0.0029  0.0000 </r>
        <r>  0.0014  0.0020  0.0000 </r>
        <r>  0.0010  0.0041  0.0000 </r>
        <r>  0.0011  0.0049  0.0000 </r>
        <r>  0.0007  0.0075  0.0000 </r>
        <r>  0.0001  0.0020  0.0000 </r>
        <r>  0.0004  0.0054  0.0000 </r>
        <r>  0.0004  0.0044  0.0000 </r>
        <r>  0.0000  0.0016  0.0000 </r>
        <r>  0.0003  0.0027  0.0000 </r>
        <r>  0.0020  0.0065  0.0000 </r>
        <r>  0.0008  0.0074  0.0000 </r>
        <r>  0.0000  0.0016  0.0000 </r>
        <r>  0.0009  0.0042  0.0000 </r>
        <r>  0.0000  0.0006  0.0000 </r>
        <r>  0.0000  0.0046  0.0000 </r>
        <r>  0.0028  0.0015  0.0000 </r>
        <r>  0.0001  0.0036  0.0000 </r>
        <r>  0.0000  0.0011  0.0000 </r>
        <r>  0.0005  0.0056  0.0000 </r>
        <r>  0.0009  0.0033  0.0000 </r>
        <r>  0.0000  0.0012  0.0000 </r>
        <r>  0.0009  0.0032  0.0000 </r>
        <r>  0.0003  0.0036  0.0000 </r>
        <r>  0.0019  0.0020  0.0000 </r>
        <r>  0.0012  0.0025  0.0000 </r>
        <r>  0.0000  0.0012  0.0000 </r>
        <r>  0.0013  0.0026  0.0000 </r>
        <r>  0.0005  0.0056  0.0000 </r>
        <r>  0.0007  0.0028  0.0000 </r>
        <r>  0.0001  0.0036  0.0000 </r>
        <r>  0.0004  0.0137  0.0000 </r>
        <r>  0.0006  0.0017  0.0000 </r>
        <r>  0.0020  0.0019  0.0000 </r>
        <r>  0.0000  0.0011  0.0000 </r>
        <r>  0.0013  0.0028  0.0000 </r>
        <r>  0.0028  0.0015  0.0000 </r>
        <r>  0.0009  0.0037  0.0000 </r>
        <r>  0.0004  0.0138  0.0000 </r>
        <r>  0.0013  0.0027  0.0000 </r>
        <r>  0.0007  0.0028  0.0000 </r>
        <r>  0.0004  0.0035  0.0000 </r>
        <r>  0.0000  0.0000  0.0000 </r>
       </set>
       <set comment="band 144">
        <r>  0.0107  0.0000  0.0000 </r>
        <r>  0.0008  0.0038  0.0000 </r>
        <r>  0.0000  0.0046  0.0000 </r>
        <r>  0.0017  0.0044  0.0000 </r>
        <r>  0.0009  0.0004  0.0000 </r>
        <r>  0.0002  0.0036  0.0000 </r>
        <r>  0.0020  0.0048  0.0000 </r>
        <r>  0.0004  0.0041  0.0000 </r>
        <r>  0.0004  0.0014  0.0000 </r>
        <r>  0.0007  0.0049  0.0000 </r>
        <r>  0.0005  0.0004  0.0000 </r>
        <r>  0.0024  0.0051  0.0000 </r>
        <r>  0.0005  0.0006  0.0000 </r>
        <r>  0.0007  0.0002  0.0000 </r>
        <r>  0.0005  0.0079  0.0000 </r>
        <r>  0.0002  0.0051  0.0000 </r>
        <r>  0.0020  0.0004  0.0000 </r>
        <r>  0.0006  0.0065  0.0000 </r>
        <r>  0.0002  0.0050  0.0000 </r>
        <r>  0.0019  0.0043  0.0000 </r>
        <r>  0.0003  0.0025  0.0000 </r>
        <r>  0.0002  0.0038  0.0000 </r>
        <r>  0.0003  0.0087  0.0000 </r>
        <r>  0.0026  0.0004  0.0000 </r>
        <r>  0.0003  0.0023  0.0000 </r>
        <r>  0.0005  0.0076  0.0000 </r>
        <r>  0.0004  0.0017  0.0000 </r>
        <r>  0.0001  0.0008  0.0000 </r>
        <r>  0.0010  0.0085  0.0000 </r>
        <r>  0.0001  0.0090  0.0000 </r>
        <r>  0.0003  0.0022  0.0000 </r>
        <r>  0.0003  0.0038  0.0000 </r>
        <r>  0.0005  0.0094  0.0000 </r>
        <r>  0.0005  0.0018  0.0000 </r>
        <r>  0.0005  0.0090  0.0000 </r>
        <r>  0.0015  0.0020  0.0000 </r>
        <r>  0.0009  0.0086  0.0000 </r>
        <r>  0.0001  0.0060  0.0000 </r>
        <r>  0.0005  0.0010  0.0000 </r>
        <r>  0.0001  0.0037  0.0000 </r>
        <r>  0.0005  0.0059  0.0000 </r>
        <r>  0.0001  0.0042  0.0000 </r>
        <r>  0.0004  0.0087  0.0000 </r>
        <r>  0.0003  0.0015  0.0000 </r>
        <r>  0.0001  0.0038  0.0000 </r>
        <r>  0.0005  0.0085  0.0000 </r>
        <r>  0.0002  0.0009  0.0000 </r>
        <r>  0.0030  0.0023  0.0000 </r>
        <r>  0.0009  0.0088  0.0000 </r>
        <r>  0.0000  0.0045  0.0000 </r>
        <r>  0.0002  0.0006  0.0000 </r>
        <r>  0.0028  0.0017  0.0000 </r>
        <r>  0.0001  0.0043  0.0000 </r>
        <r>  0.0018  0.0027  0.0000 </r>
        <r>  0.0000  0.0001  0.0000 </r>
       </set>
      </set>
     </set>
    </set>
   </array>
  </projected>
 </calculation>
 <structure name="finalpos" >
  <crystal>
   <varray name="basis" >
    <v>       9.97646553       0.00000000       5.75991507 </v>
    <v>       3.32548851       9.40590192       5.75991507 </v>
    <v>       0.00000000       0.00000000      11.51983014 </v>
   </varray>
   <i name="volume">   1080.99386112 </i>
   <varray name="rec_basis" >
    <v>       0.10023590      -0.03543874       0.00000000 </v>
    <v>       0.00000000       0.10631623       0.00000000 </v>
    <v>      -0.05011795      -0.03543874       0.08680684 </v>
   </varray>
  </crystal>
  <varray name="positions" >
   <v>       0.29166667       0.29166667       0.29166667 </v>
   <v>       0.29166667       0.29166667       0.62500000 </v>
   <v>       0.29166667       0.29166667       0.95833333 </v>
   <v>       0.29166667       0.62500000       0.29166667 </v>
   <v>       0.29166667       0.62500000       0.62500000 </v>
   <v>       0.29166667       0.62500000       0.95833333 </v>
   <v>       0.29166667       0.95833333       0.29166667 </v>
   <v>       0.29166667       0.95833333       0.62500000 </v>
   <v>       0.29166667       0.95833333       0.95833333 </v>
   <v>       0.62500000       0.29166667       0.29166667 </v>
   <v>       0.62500000       0.29166667       0.62500000 </v>
   <v>       0.62500000       0.29166667       0.95833333 </v>
   <v>       0.62500000       0.62500000       0.29166667 </v>
   <v>       0.62500000       0.62500000       0.62500000 </v>
   <v>       0.62500000       0.62500000       0.95833333 </v>
   <v>       0.62500000       0.95833333       0.29166667 </v>
   <v>       0.62500000       0.95833333       0.62500000 </v>
   <v>       0.62500000       0.95833333       0.95833333 </v>
   <v>       0.95833333       0.29166667       0.29166667 </v>
   <v>       0.95833333       0.29166667       0.62500000 </v>
   <v>       0.95833333       0.29166667       0.95833333 </v>
   <v>       0.95833333       0.62500000       0.29166667 </v>
   <v>       0.95833333       0.62500000       0.62500000 </v>
   <v>       0.95833333       0.62500000       0.95833333 </v>
   <v>       0.95833333       0.95833333       0.29166667 </v>
   <v>       0.95833333       0.95833333       0.62500000 </v>
   <v>       0.95833333       0.95833333       0.95833333 </v>
   <v>       0.04166667       0.04166667       0.04166667 </v>
   <v>       0.04166667       0.04166667       0.37500000 </v>
   <v>       0.04166667       0.04166667       0.70833333 </v>
   <v>       0.04166667       0.37500000       0.04166667 </v>
   <v>       0.04166667       0.37500000       0.37500000 </v>
   <v>       0.04166667       0.37500000       0.70833333 </v>
   <v>       0.04166667       0.70833333       0.04166667 </v>
   <v>       0.04166667       0.70833333       0.37500000 </v>
   <v>       0.04166667       0.70833333       0.70833333 </v>
   <v>       0.37500000       0.04166667       0.04166667 </v>
   <v>       0.37500000       0.04166667       0.37500000 </v>
   <v>       0.37500000       0.04166667       0.70833333 </v>
   <v>       0.37500000       0.37500000       0.04166667 </v>
   <v>       0.37500000       0.37500000       0.37500000 </v>
   <v>       0.37500000       0.37500000       0.70833333 </v>
   <v>       0.37500000       0.70833333       0.04166667 </v>
   <v>       0.37500000       0.70833333       0.37500000 </v>
   <v>       0.37500000       0.70833333       0.70833333 </v>
   <v>       0.70833333       0.04166667       0.04166667 </v>
   <v>       0.70833333       0.04166667       0.37500000 </v>
   <v>       0.70833333       0.04166667       0.70833333 </v>
   <v>       0.70833333       0.37500000       0.04166667 </v>
   <v>       0.70833333       0.37500000       0.37500000 </v>
   <v>       0.70833333       0.37500000       0.70833333 </v>
   <v>       0.70833333       0.70833333       0.04166667 </v>
   <v>       0.70833333       0.70833333       0.37500000 </v>
   <v>       0.70833333       0.70833333       0.70833333 </v>
   <v>       0.54166667       0.54166667       0.54166667 </v>
  </varray>
 </structure>
</modeling>
