<?xml version="1.0" encoding="ISO-8859-1"?>
<modeling>
 <generator>
  <i name="program" type="string">vasp </i>
  <i name="version" type="string">5.4.4.18Apr17-6-g9f103f2a35  </i>
  <i name="subversion" type="string">(build Jun 19 2019 10:34:07) complex            parallel </i>
  <i name="platform" type="string">LB-5.4 </i>
  <i name="date" type="string">2023 05 15 </i>
  <i name="time" type="string">18:33:38 </i>
 </generator>
 <incar>
  <i type="string" name="SYSTEM"> Si</i>
  <i type="string" name="PREC">normal</i>
  <i type="string" name="ALGO"> Normal</i>
  <i type="int" name="ISPIN">     1</i>
  <i name="AMIX">      0.20000000</i>
  <i type="int" name="NELM">   200</i>
  <i type="int" name="IBRION">     2</i>
  <i name="EDIFF">      0.00000100</i>
  <i name="EDIFFG">     -0.05000000</i>
  <i type="int" name="NSW">     0</i>
  <i type="int" name="ISIF">     2</i>
  <i type="int" name="ISYM">     2</i>
  <i name="ENCUT">    550.00000000</i>
  <i name="NELECT">    215.00000000</i>
  <i type="logical" name="LREAL"> F  </i>
  <i type="int" name="ISMEAR">     0</i>
  <i name="SIGMA">      0.05000000</i>
  <i type="logical" name="LWAVE"> T  </i>
  <i type="logical" name="LCHARG"> T  </i>
  <i type="int" name="LORBIT">    10</i>
  <v type="int" name="KPOINT_BSE">    -1     0     0     0</v>
  <i type="int" name="NELM">   200</i>
 </incar>
 <structure name="primitive_cell" >
  <crystal>
   <varray name="basis" >
    <v>       9.97646553       0.00000000       5.75991507 </v>
    <v>       3.32548851       9.40590192       5.75991507 </v>
    <v>       0.00000000       0.00000000      11.51983014 </v>
   </varray>
   <i name="volume">   1080.99386112 </i>
   <varray name="rec_basis" >
    <v>       0.10023590      -0.03543874       0.00000000 </v>
    <v>       0.00000000       0.10631623       0.00000000 </v>
    <v>      -0.05011795      -0.03543874       0.08680684 </v>
   </varray>
  </crystal>
  <varray name="positions" >
   <v>       0.29166667       0.29166667       0.29166667 </v>
   <v>       0.04166667       0.37500000       0.37500000 </v>
   <v>       0.37500000       0.37500000       0.04166667 </v>
   <v>       0.37500000       0.37500000       0.37500000 </v>
   <v>       0.37500000       0.04166667       0.37500000 </v>
   <v>      -0.04166667       0.29166667       0.29166667 </v>
   <v>      -0.37500000       0.29166667      -0.04166667 </v>
   <v>      -0.04166667       0.29166667      -0.37500000 </v>
   <v>      -0.37500000       0.29166667       0.29166667 </v>
   <v>      -0.37500000      -0.04166667       0.29166667 </v>
   <v>      -0.04166667      -0.37500000       0.29166667 </v>
   <v>       0.29166667      -0.04166667       0.29166667 </v>
   <v>       0.29166667      -0.37500000      -0.04166667 </v>
   <v>       0.29166667      -0.04166667      -0.37500000 </v>
   <v>       0.29166667      -0.37500000       0.29166667 </v>
   <v>       0.29166667       0.29166667      -0.04166667 </v>
   <v>       0.29166667       0.29166667      -0.37500000 </v>
   <v>      -0.29166667       0.37500000       0.04166667 </v>
   <v>       0.04166667       0.04166667       0.37500000 </v>
   <v>      -0.29166667       0.04166667       0.04166667 </v>
   <v>       0.04166667       0.04166667      -0.29166667 </v>
   <v>      -0.29166667       0.04166667       0.37500000 </v>
   <v>       0.37500000      -0.29166667       0.04166667 </v>
   <v>       0.04166667       0.37500000       0.04166667 </v>
   <v>       0.04166667       0.37500000      -0.29166667 </v>
   <v>       0.04166667      -0.29166667       0.04166667 </v>
   <v>       0.04166667      -0.29166667       0.37500000 </v>
   <v>       0.37500000       0.04166667       0.04166667 </v>
   <v>       0.37500000       0.04166667      -0.29166667 </v>
   <v>      -0.04166667      -0.04166667      -0.37500000 </v>
   <v>      -0.37500000      -0.37500000      -0.04166667 </v>
   <v>      -0.37500000      -0.04166667      -0.04166667 </v>
   <v>      -0.04166667      -0.37500000      -0.04166667 </v>
   <v>      -0.37500000      -0.04166667      -0.37500000 </v>
   <v>      -0.04166667      -0.37500000      -0.37500000 </v>
   <v>      -0.29166667       0.37500000       0.37500000 </v>
   <v>      -0.29166667       0.37500000      -0.29166667 </v>
   <v>      -0.29166667      -0.29166667       0.37500000 </v>
   <v>       0.37500000      -0.29166667      -0.29166667 </v>
   <v>       0.37500000      -0.29166667       0.37500000 </v>
   <v>       0.37500000       0.37500000      -0.29166667 </v>
   <v>      -0.37500000       0.29166667      -0.37500000 </v>
   <v>      -0.04166667       0.29166667      -0.04166667 </v>
   <v>      -0.37500000      -0.37500000       0.29166667 </v>
   <v>      -0.04166667      -0.04166667      -0.04166667 </v>
   <v>      -0.37500000      -0.37500000      -0.37500000 </v>
   <v>      -0.04166667      -0.04166667       0.29166667 </v>
   <v>       0.29166667      -0.37500000      -0.37500000 </v>
   <v>       0.29166667      -0.04166667      -0.04166667 </v>
   <v>      -0.29166667       0.04166667      -0.29166667 </v>
   <v>       0.04166667       0.04166667       0.04166667 </v>
   <v>      -0.29166667      -0.29166667      -0.29166667 </v>
   <v>      -0.29166667      -0.29166667       0.04166667 </v>
   <v>       0.04166667      -0.29166667      -0.29166667 </v>
  </varray>
 </structure>
 <varray name="primitive_index" >
  <v type="int" >        1 </v>
  <v type="int" >       32 </v>
  <v type="int" >       40 </v>
  <v type="int" >       41 </v>
  <v type="int" >       38 </v>
  <v type="int" >       19 </v>
  <v type="int" >       12 </v>
  <v type="int" >       20 </v>
  <v type="int" >       10 </v>
  <v type="int" >       16 </v>
  <v type="int" >       22 </v>
  <v type="int" >        7 </v>
  <v type="int" >        6 </v>
  <v type="int" >        8 </v>
  <v type="int" >        4 </v>
  <v type="int" >        3 </v>
  <v type="int" >        2 </v>
  <v type="int" >       49 </v>
  <v type="int" >       29 </v>
  <v type="int" >       46 </v>
  <v type="int" >       30 </v>
  <v type="int" >       47 </v>
  <v type="int" >       43 </v>
  <v type="int" >       31 </v>
  <v type="int" >       33 </v>
  <v type="int" >       34 </v>
  <v type="int" >       35 </v>
  <v type="int" >       37 </v>
  <v type="int" >       39 </v>
  <v type="int" >       26 </v>
  <v type="int" >       15 </v>
  <v type="int" >       18 </v>
  <v type="int" >       24 </v>
  <v type="int" >       17 </v>
  <v type="int" >       23 </v>
  <v type="int" >       50 </v>
  <v type="int" >       51 </v>
  <v type="int" >       53 </v>
  <v type="int" >       45 </v>
  <v type="int" >       44 </v>
  <v type="int" >       42 </v>
  <v type="int" >       11 </v>
  <v type="int" >       21 </v>
  <v type="int" >       13 </v>
  <v type="int" >       27 </v>
  <v type="int" >       14 </v>
  <v type="int" >       25 </v>
  <v type="int" >        5 </v>
  <v type="int" >        9 </v>
  <v type="int" >       48 </v>
  <v type="int" >       28 </v>
  <v type="int" >       54 </v>
  <v type="int" >       52 </v>
  <v type="int" >       36 </v>
 </varray>
 <kpoints>
  <generation param="Gamma">
   <v type="int" name="divisions">       4        4        4 </v>
   <v name="usershift">      0.00000000       0.00000000       0.00000000 </v>
   <v name="genvec1">      0.25000000       0.00000000       0.00000000 </v>
   <v name="genvec2">      0.00000000       0.25000000       0.00000000 </v>
   <v name="genvec3">     -0.00000000      -0.00000000       0.25000000 </v>
   <v name="shift">      0.00000000       0.00000000       0.00000000 </v>
  </generation>
  <varray name="kpointlist" >
   <v>       0.00000000       0.00000000       0.00000000 </v>
   <v>       0.25000000       0.00000000       0.00000000 </v>
   <v>       0.50000000       0.00000000       0.00000000 </v>
   <v>       0.25000000       0.25000000       0.00000000 </v>
   <v>       0.50000000       0.25000000       0.00000000 </v>
   <v>      -0.25000000       0.25000000       0.00000000 </v>
   <v>       0.50000000       0.50000000       0.00000000 </v>
   <v>      -0.25000000       0.50000000       0.25000000 </v>
  </varray>
  <varray name="weights" >
   <v>       0.01562500 </v>
   <v>       0.12500000 </v>
   <v>       0.06250000 </v>
   <v>       0.09375000 </v>
   <v>       0.37500000 </v>
   <v>       0.18750000 </v>
   <v>       0.04687500 </v>
   <v>       0.09375000 </v>
  </varray>
 </kpoints>
 <parameters>
  <separator name="general" >
   <i type="string" name="SYSTEM">Si</i>
   <i type="logical" name="LCOMPAT"> F  </i>
  </separator>
  <separator name="electronic" >
   <i type="string" name="PREC">normal</i>
   <i name="ENMAX">    550.00000000</i>
   <i name="ENAUG">    535.51400000</i>
   <i name="EDIFF">      0.00000100</i>
   <i type="int" name="IALGO">    38</i>
   <i type="int" name="IWAVPR">    10</i>
   <i type="int" name="NBANDS">   144</i>
   <i name="NELECT">    215.00000000</i>
   <i type="int" name="TURBO">     0</i>
   <i type="int" name="IRESTART">     0</i>
   <i type="int" name="NREBOOT">     0</i>
   <i type="int" name="NMIN">     0</i>
   <i name="EREF">      0.00000000</i>
   <separator name="electronic smearing" >
    <i type="int" name="ISMEAR">     0</i>
    <i name="SIGMA">      0.05000000</i>
    <i name="KSPACING">      0.50000000</i>
    <i type="logical" name="KGAMMA"> T  </i>
   </separator>
   <separator name="electronic projectors" >
    <i type="logical" name="LREAL"> F  </i>
    <v name="ROPT">      0.00000000      0.00000000</v>
    <i type="int" name="LMAXPAW">  -100</i>
    <i type="int" name="LMAXMIX">     2</i>
    <i type="logical" name="NLSPLINE"> F  </i>
   </separator>
   <separator name="electronic startup" >
    <i type="int" name="ISTART">     0</i>
    <i type="int" name="ICHARG">     2</i>
    <i type="int" name="INIWAV">     1</i>
   </separator>
   <separator name="electronic spin" >
    <i type="int" name="ISPIN">     1</i>
    <i type="logical" name="LNONCOLLINEAR"> F  </i>
    <v name="MAGMOM">      1.00000000      1.00000000      1.00000000      1.00000000      1.00000000      1.00000000      1.00000000      1.00000000      1.00000000      1.00000000      1.00000000      1.00000000      1.00000000      1.00000000      1.00000000      1.00000000      1.00000000      1.00000000      1.00000000      1.00000000
      1.00000000      1.00000000      1.00000000      1.00000000      1.00000000      1.00000000      1.00000000      1.00000000      1.00000000      1.00000000      1.00000000      1.00000000      1.00000000      1.00000000      1.00000000      1.00000000      1.00000000      1.00000000      1.00000000      1.00000000
      1.00000000      1.00000000      1.00000000      1.00000000      1.00000000      1.00000000      1.00000000      1.00000000      1.00000000      1.00000000      1.00000000      1.00000000      1.00000000      1.00000000</v>
    <i name="NUPDOWN">     -1.00000000</i>
    <i type="logical" name="LSORBIT"> F  </i>
    <v name="SAXIS">      0.00000000      0.00000000      1.00000000</v>
    <i type="logical" name="LSPIRAL"> F  </i>
    <v name="QSPIRAL">      0.00000000      0.00000000      0.00000000</v>
    <i type="logical" name="LZEROZ"> F  </i>
   </separator>
   <separator name="electronic exchange-correlation" >
    <i type="logical" name="LASPH"> F  </i>
    <i type="logical" name="LMETAGGA"> F  </i>
   </separator>
   <separator name="electronic convergence" >
    <i type="int" name="NELM">   200</i>
    <i type="int" name="NELMDL">    -5</i>
    <i type="int" name="NELMIN">     2</i>
    <i name="ENINI">    550.00000000</i>
    <separator name="electronic convergence detail" >
     <i type="logical" name="LDIAG"> T  </i>
     <i type="logical" name="LSUBROT"> F  </i>
     <i name="WEIMIN">      0.00000000</i>
     <i name="EBREAK">      0.00000000</i>
     <i name="DEPER">      0.30000000</i>
     <i type="int" name="NRMM">     4</i>
     <i name="TIME">      0.40000000</i>
    </separator>
   </separator>
   <separator name="electronic mixer" >
    <i name="AMIX">      0.20000000</i>
    <i name="BMIX">      1.00000000</i>
    <i name="AMIN">      0.10000000</i>
    <i name="AMIX_MAG">      0.80000000</i>
    <i name="BMIX_MAG">      1.00000000</i>
    <separator name="electronic mixer details" >
     <i type="int" name="IMIX">     4</i>
     <i type="logical" name="MIXFIRST"> F  </i>
     <i type="int" name="MAXMIX">   -45</i>
     <i name="WC">    100.00000000</i>
     <i type="int" name="INIMIX">     1</i>
     <i type="int" name="MIXPRE">     1</i>
     <i type="int" name="MREMOVE">     5</i>
    </separator>
   </separator>
   <separator name="electronic dipolcorrection" >
    <i type="logical" name="LDIPOL"> F  </i>
    <i type="logical" name="LMONO"> F  </i>
    <i type="int" name="IDIPOL">     0</i>
    <i name="EPSILON">      1.00000000</i>
    <v name="DIPOL">   -100.00000000   -100.00000000   -100.00000000</v>
    <i name="EFIELD">      0.00000000</i>
   </separator>
  </separator>
  <separator name="grids" >
   <i type="int" name="NGX">    70</i>
   <i type="int" name="NGY">    70</i>
   <i type="int" name="NGZ">    70</i>
   <i type="int" name="NGXF">   140</i>
   <i type="int" name="NGYF">   140</i>
   <i type="int" name="NGZF">   140</i>
   <i type="logical" name="ADDGRID"> F  </i>
  </separator>
  <separator name="ionic" >
   <i type="int" name="NSW">     0</i>
   <i type="int" name="IBRION">    -1</i>
   <i type="int" name="MDALGO">     0</i>
   <i type="int" name="ISIF">     2</i>
   <i name="PSTRESS">      0.00000000</i>
   <i name="EDIFFG">     -0.05000000</i>
   <i type="int" name="NFREE">     1</i>
   <i name="POTIM">      0.50000000</i>
   <i name="SMASS">     -3.00000000</i>
   <i name="SCALEE">      1.00000000</i>
  </separator>
  <separator name="ionic md" >
   <i name="TEBEG">      0.00010000</i>
   <i name="TEEND">      0.00010000</i>
   <i type="int" name="NBLOCK">     1</i>
   <i type="int" name="KBLOCK">     1</i>
   <i type="int" name="NPACO">   256</i>
   <i name="APACO">     16.00000000</i>
  </separator>
  <separator name="symmetry" >
   <i type="int" name="ISYM">     2</i>
   <i name="SYMPREC">      0.00001000</i>
  </separator>
  <separator name="dos" >
   <i type="int" name="LORBIT">    10</i>
   <v name="RWIGS">     -1.00000000     -1.00000000</v>
   <i type="int" name="NEDOS">   301</i>
   <i name="EMIN">     10.00000000</i>
   <i name="EMAX">    -10.00000000</i>
   <i name="EFERMI">      0.00000000</i>
  </separator>
  <separator name="writing" >
   <i type="int" name="NWRITE">     2</i>
   <i type="logical" name="LWAVE"> T  </i>
   <i type="logical" name="LDOWNSAMPLE"> F  </i>
   <i type="logical" name="LCHARG"> T  </i>
   <i type="logical" name="LPARD"> F  </i>
   <i type="logical" name="LVTOT"> F  </i>
   <i type="logical" name="LVHAR"> F  </i>
   <i type="logical" name="LELF"> F  </i>
   <i type="logical" name="LOPTICS"> F  </i>
   <v name="STM">      0.00000000      0.00000000      0.00000000      0.00000000      0.00000000      0.00000000      0.00000000</v>
  </separator>
  <separator name="performance" >
   <i type="int" name="NPAR">    24</i>
   <i type="int" name="NSIM">     4</i>
   <i type="int" name="NBLK">    -1</i>
   <i type="logical" name="LPLANE"> T  </i>
   <i type="logical" name="LSCALAPACK"> T  </i>
   <i type="logical" name="LSCAAWARE"> F  </i>
   <i type="logical" name="LSCALU"> F  </i>
   <i type="logical" name="LASYNC"> F  </i>
   <i type="logical" name="LORBITALREAL"> F  </i>
  </separator>
  <separator name="miscellaneous" >
   <i type="int" name="IDIOT">     3</i>
   <i type="int" name="ISPECIAL">     0</i>
   <i type="logical" name="LMUSIC"> F  </i>
   <v name="POMASS">     10.81100000     28.08500000</v>
   <v name="DARWINR">      0.00000000      0.00000000</v>
   <v name="DARWINV">      1.00000000      1.00000000</v>
   <i type="logical" name="LCORR"> T  </i>
  </separator>
  <i type="logical" name="GGA_COMPAT"> T  </i>
  <i type="logical" name="LBERRY"> F  </i>
  <i type="int" name="ICORELEVEL">     0</i>
  <i type="logical" name="LDAU"> F  </i>
  <i type="int" name="I_CONSTRAINED_M">     0</i>
  <separator name="electronic exchange-correlation" >
   <i type="string" name="GGA">--</i>
   <i type="int" name="VOSKOWN">     0</i>
   <i type="logical" name="LHFCALC"> F  </i>
   <i type="string" name="PRECFOCK"></i>
   <i type="logical" name="LSYMGRAD"> F  </i>
   <i type="logical" name="LHFONE"> F  </i>
   <i type="logical" name="LRHFCALC"> F  </i>
   <i type="logical" name="LTHOMAS"> F  </i>
   <i type="logical" name="LMODELHF"> F  </i>
   <i name="ENCUT4O">     -1.00000000</i>
   <i type="int" name="EXXOEP">     0</i>
   <i type="int" name="FOURORBIT">     0</i>
   <i name="AEXX">      0.00000000</i>
   <i name="HFALPHA">      0.00000000</i>
   <i name="MCALPHA">      0.00000000</i>
   <i name="ALDAX">      1.00000000</i>
   <i name="AGGAX">      1.00000000</i>
   <i name="ALDAC">      1.00000000</i>
   <i name="AGGAC">      1.00000000</i>
   <i type="int" name="NKREDX">     1</i>
   <i type="int" name="NKREDY">     1</i>
   <i type="int" name="NKREDZ">     1</i>
   <i type="logical" name="SHIFTRED"> F  </i>
   <i type="logical" name="ODDONLY"> F  </i>
   <i type="logical" name="EVENONLY"> F  </i>
   <i type="int" name="LMAXFOCK">     0</i>
   <i type="int" name="NMAXFOCKAE">     0</i>
   <i type="logical" name="LFOCKAEDFT"> F  </i>
   <i name="HFSCREEN">      0.00000000</i>
   <i name="HFSCREENC">      0.00000000</i>
   <i type="int" name="NBANDSGWLOW">     0</i>
  </separator>
  <separator name="vdW DFT" >
   <i type="logical" name="LUSE_VDW"> F  </i>
   <i name="Zab_VDW">     -0.84910000</i>
   <i name="PARAM1">      0.12340000</i>
   <i name="PARAM2">      1.00000000</i>
   <i name="PARAM3">      0.00000000</i>
  </separator>
  <separator name="model GW" >
   <i type="int" name="MODEL_GW">     0</i>
   <i name="MODEL_EPS0">     12.01104290</i>
   <i name="MODEL_ALPHA">      1.00000000</i>
  </separator>
  <separator name="linear response parameters" >
   <i type="logical" name="LEPSILON"> F  </i>
   <i type="logical" name="LRPA"> F  </i>
   <i type="logical" name="LNABLA"> F  </i>
   <i type="logical" name="LVEL"> F  </i>
   <i type="int" name="KINTER">     0</i>
   <i name="CSHIFT">      0.10000000</i>
   <i name="OMEGAMAX">     -1.00000000</i>
   <i name="DEG_THRESHOLD">      0.00200000</i>
   <i name="RTIME">     -0.10000000</i>
   <i name="WPLASMAI">      0.00000000</i>
   <v name="DFIELD">      0.00000000      0.00000000      0.00000000</v>
   <v name="WPLASMA">      0.00000000      0.00000000      0.00000000      0.00000000      0.00000000      0.00000000      0.00000000      0.00000000      0.00000000</v>
  </separator>
  <separator name="orbital magnetization" >
   <i type="logical" name="NUCIND"> F  </i>
   <v name="MAGPOS">      0.00000000      0.00000000      0.00000000</v>
   <i type="logical" name="LNICSALL"> T  </i>
   <i type="logical" name="ORBITALMAG"> F  </i>
   <i type="logical" name="LMAGBLOCH"> F  </i>
   <i type="logical" name="LCHIMAG"> F  </i>
   <i type="logical" name="LGAUGE"> T  </i>
   <i type="int" name="MAGATOM">     0</i>
   <v name="MAGDIPOL">      0.00000000      0.00000000      0.00000000</v>
   <v name="AVECCONST">      0.00000000      0.00000000      0.00000000</v>
  </separator>
  <separator name="response functions" >
   <i type="logical" name="LADDER"> F  </i>
   <i type="logical" name="LRPAFORCE"> F  </i>
   <i type="logical" name="LFXC"> F  </i>
   <i type="logical" name="LHARTREE"> T  </i>
   <i type="int" name="IBSE">     0</i>
   <v type="int" name="KPOINT">    -1     0     0     0</v>
   <i type="logical" name="LTCTE"> F  </i>
   <i type="logical" name="LTETE"> F  </i>
   <i type="logical" name="LTRIPLET"> F  </i>
   <i type="logical" name="LFXCEPS"> F  </i>
   <i type="logical" name="LFXHEG"> F  </i>
   <i type="int" name="NATURALO">     2</i>
   <i type="logical" name="L2ORDER"> F  </i>
   <i type="logical" name="LMP2LT"> F  </i>
   <i type="logical" name="LUSEW"> F  </i>
   <i name="ENCUTGW">     -2.00000000</i>
   <i name="ENCUTGWSOFT">     -2.00000000</i>
   <i name="ENCUTLF">     -1.00000000</i>
   <i type="int" name="LMAXMP2">    -1</i>
   <i name="SCISSOR">      0.00000000</i>
   <i type="int" name="NOMEGA">     0</i>
   <i type="int" name="NOMEGAR">     0</i>
   <i type="int" name="NBANDSGW">    -1</i>
   <i type="int" name="NBANDSO">    -1</i>
   <i type="int" name="NBANDSV">    -1</i>
   <i type="int" name="NELM">   200</i>
   <i type="int" name="NELMHF">     1</i>
   <i type="int" name="DIM">     3</i>
   <i type="int" name="ANTIRES">     0</i>
   <i name="OMEGAMAX">    -30.00000000</i>
   <i name="OMEGAMIN">    -30.00000000</i>
   <i name="OMEGATL">   -200.00000000</i>
   <i type="int" name="OMEGAGRID">   140</i>
   <i name="CSHIFT">     -0.10000000</i>
   <i type="logical" name="SELFENERGY"> F  </i>
   <i type="logical" name="LSPECTRAL"> F  </i>
   <i type="logical" name="LSPECTRALGW"> F  </i>
   <i type="logical" name="LSINGLES"> F  </i>
   <i type="logical" name="LFERMIGW"> F  </i>
   <i type="logical" name="ODDONLYGW"> F  </i>
   <i type="logical" name="EVENONLYGW"> F  </i>
   <i type="int" name="NKREDLFX">     1</i>
   <i type="int" name="NKREDLFY">     1</i>
   <i type="int" name="NKREDLFZ">     1</i>
   <i type="int" name="MAXMEM">  2800</i>
   <i type="int" name="TELESCOPE">     0</i>
   <i type="int" name="TAUPAR">     1</i>
   <i type="int" name="OMEGAPAR">    -1</i>
   <i name="LAMBDA">      1.00000000</i>
  </separator>
  <separator name="External order field" >
   <i name="OFIELD_KAPPA">      0.00000000</i>
   <v name="OFIELD_K">      0.00000000      0.00000000      0.00000000</v>
   <i name="OFIELD_Q6_NEAR">      0.00000000</i>
   <i name="OFIELD_Q6_FAR">      0.00000000</i>
   <i name="OFIELD_A">      0.00000000</i>
  </separator>
 </parameters>
 <atominfo>
  <atoms>      54 </atoms>
  <types>       2 </types>
  <array name="atoms" >
   <dimension dim="1">ion</dimension>
   <field type="string">element</field>
   <field type="int">atomtype</field>
   <set>
    <rc><c>B </c><c>   1</c></rc>
    <rc><c>Si</c><c>   2</c></rc>
    <rc><c>Si</c><c>   2</c></rc>
    <rc><c>Si</c><c>   2</c></rc>
    <rc><c>Si</c><c>   2</c></rc>
    <rc><c>Si</c><c>   2</c></rc>
    <rc><c>Si</c><c>   2</c></rc>
    <rc><c>Si</c><c>   2</c></rc>
    <rc><c>Si</c><c>   2</c></rc>
    <rc><c>Si</c><c>   2</c></rc>
    <rc><c>Si</c><c>   2</c></rc>
    <rc><c>Si</c><c>   2</c></rc>
    <rc><c>Si</c><c>   2</c></rc>
    <rc><c>Si</c><c>   2</c></rc>
    <rc><c>Si</c><c>   2</c></rc>
    <rc><c>Si</c><c>   2</c></rc>
    <rc><c>Si</c><c>   2</c></rc>
    <rc><c>Si</c><c>   2</c></rc>
    <rc><c>Si</c><c>   2</c></rc>
    <rc><c>Si</c><c>   2</c></rc>
    <rc><c>Si</c><c>   2</c></rc>
    <rc><c>Si</c><c>   2</c></rc>
    <rc><c>Si</c><c>   2</c></rc>
    <rc><c>Si</c><c>   2</c></rc>
    <rc><c>Si</c><c>   2</c></rc>
    <rc><c>Si</c><c>   2</c></rc>
    <rc><c>Si</c><c>   2</c></rc>
    <rc><c>Si</c><c>   2</c></rc>
    <rc><c>Si</c><c>   2</c></rc>
    <rc><c>Si</c><c>   2</c></rc>
    <rc><c>Si</c><c>   2</c></rc>
    <rc><c>Si</c><c>   2</c></rc>
    <rc><c>Si</c><c>   2</c></rc>
    <rc><c>Si</c><c>   2</c></rc>
    <rc><c>Si</c><c>   2</c></rc>
    <rc><c>Si</c><c>   2</c></rc>
    <rc><c>Si</c><c>   2</c></rc>
    <rc><c>Si</c><c>   2</c></rc>
    <rc><c>Si</c><c>   2</c></rc>
    <rc><c>Si</c><c>   2</c></rc>
    <rc><c>Si</c><c>   2</c></rc>
    <rc><c>Si</c><c>   2</c></rc>
    <rc><c>Si</c><c>   2</c></rc>
    <rc><c>Si</c><c>   2</c></rc>
    <rc><c>Si</c><c>   2</c></rc>
    <rc><c>Si</c><c>   2</c></rc>
    <rc><c>Si</c><c>   2</c></rc>
    <rc><c>Si</c><c>   2</c></rc>
    <rc><c>Si</c><c>   2</c></rc>
    <rc><c>Si</c><c>   2</c></rc>
    <rc><c>Si</c><c>   2</c></rc>
    <rc><c>Si</c><c>   2</c></rc>
    <rc><c>Si</c><c>   2</c></rc>
    <rc><c>Si</c><c>   2</c></rc>
   </set>
  </array>
  <array name="atomtypes" >
   <dimension dim="1">type</dimension>
   <field type="int">atomspertype</field>
   <field type="string">element</field>
   <field>mass</field>
   <field>valence</field>
   <field type="string">pseudopotential</field>
   <set>
    <rc><c>   1</c><c>B </c><c>     10.81100000</c><c>      3.00000000</c><c>  PAW_PBE B 06Sep2000                   </c></rc>
    <rc><c>  53</c><c>Si</c><c>     28.08500000</c><c>      4.00000000</c><c>  PAW_PBE Si 05Jan2001                  </c></rc>
   </set>
  </array>
 </atominfo>
 <structure name="initialpos" >
  <crystal>
   <varray name="basis" >
    <v>       9.97646553       0.00000000       5.75991507 </v>
    <v>       3.32548851       9.40590192       5.75991507 </v>
    <v>       0.00000000       0.00000000      11.51983014 </v>
   </varray>
   <i name="volume">   1080.99386112 </i>
   <varray name="rec_basis" >
    <v>       0.10023590      -0.03543874       0.00000000 </v>
    <v>       0.00000000       0.10631623       0.00000000 </v>
    <v>      -0.05011795      -0.03543874       0.08680684 </v>
   </varray>
  </crystal>
  <varray name="positions" >
   <v>       0.29166667       0.29166667       0.29166667 </v>
   <v>       0.29166667       0.29166667       0.62500000 </v>
   <v>       0.29166667       0.29166667       0.95833333 </v>
   <v>       0.29166667       0.62500000       0.29166667 </v>
   <v>       0.29166667       0.62500000       0.62500000 </v>
   <v>       0.29166667       0.62500000       0.95833333 </v>
   <v>       0.29166667       0.95833333       0.29166667 </v>
   <v>       0.29166667       0.95833333       0.62500000 </v>
   <v>       0.29166667       0.95833333       0.95833333 </v>
   <v>       0.62500000       0.29166667       0.29166667 </v>
   <v>       0.62500000       0.29166667       0.62500000 </v>
   <v>       0.62500000       0.29166667       0.95833333 </v>
   <v>       0.62500000       0.62500000       0.29166667 </v>
   <v>       0.62500000       0.62500000       0.62500000 </v>
   <v>       0.62500000       0.62500000       0.95833333 </v>
   <v>       0.62500000       0.95833333       0.29166667 </v>
   <v>       0.62500000       0.95833333       0.62500000 </v>
   <v>       0.62500000       0.95833333       0.95833333 </v>
   <v>       0.95833333       0.29166667       0.29166667 </v>
   <v>       0.95833333       0.29166667       0.62500000 </v>
   <v>       0.95833333       0.29166667       0.95833333 </v>
   <v>       0.95833333       0.62500000       0.29166667 </v>
   <v>       0.95833333       0.62500000       0.62500000 </v>
   <v>       0.95833333       0.62500000       0.95833333 </v>
   <v>       0.95833333       0.95833333       0.29166667 </v>
   <v>       0.95833333       0.95833333       0.62500000 </v>
   <v>       0.95833333       0.95833333       0.95833333 </v>
   <v>       0.04166667       0.04166667       0.04166667 </v>
   <v>       0.04166667       0.04166667       0.37500000 </v>
   <v>       0.04166667       0.04166667       0.70833333 </v>
   <v>       0.04166667       0.37500000       0.04166667 </v>
   <v>       0.04166667       0.37500000       0.37500000 </v>
   <v>       0.04166667       0.37500000       0.70833333 </v>
   <v>       0.04166667       0.70833333       0.04166667 </v>
   <v>       0.04166667       0.70833333       0.37500000 </v>
   <v>       0.04166667       0.70833333       0.70833333 </v>
   <v>       0.37500000       0.04166667       0.04166667 </v>
   <v>       0.37500000       0.04166667       0.37500000 </v>
   <v>       0.37500000       0.04166667       0.70833333 </v>
   <v>       0.37500000       0.37500000       0.04166667 </v>
   <v>       0.37500000       0.37500000       0.37500000 </v>
   <v>       0.37500000       0.37500000       0.70833333 </v>
   <v>       0.37500000       0.70833333       0.04166667 </v>
   <v>       0.37500000       0.70833333       0.37500000 </v>
   <v>       0.37500000       0.70833333       0.70833333 </v>
   <v>       0.70833333       0.04166667       0.04166667 </v>
   <v>       0.70833333       0.04166667       0.37500000 </v>
   <v>       0.70833333       0.04166667       0.70833333 </v>
   <v>       0.70833333       0.37500000       0.04166667 </v>
   <v>       0.70833333       0.37500000       0.37500000 </v>
   <v>       0.70833333       0.37500000       0.70833333 </v>
   <v>       0.70833333       0.70833333       0.04166667 </v>
   <v>       0.70833333       0.70833333       0.37500000 </v>
   <v>       0.70833333       0.70833333       0.70833333 </v>
  </varray>
 </structure>
 <calculation>
  <scstep>
   <time name="dav">    3.55    3.58</time>
   <time name="total">    4.16    4.21</time>
   <energy>
    <i name="alphaZ">     93.27357238 </i>
    <i name="ewald">  -6115.53854741 </i>
    <i name="hartreedc">   -300.67959059 </i>
    <i name="XCdc">   -487.55551508 </i>
    <i name="pawpsdc">   4714.06124509 </i>
    <i name="pawaedc">  -3780.76198842 </i>
    <i name="eentropy">     -0.01771868 </i>
    <i name="bandstr">    901.01075101 </i>
    <i name="atom">   5533.69225236 </i>
    <i name="e_fr_energy">    557.48446066 </i>
    <i name="e_wo_entrp">    557.50217934 </i>
    <i name="e_0_energy">    557.49332000 </i>
   </energy>
  </scstep>
  <scstep>
   <time name="dav">    6.45    6.51</time>
   <time name="total">    6.45    6.51</time>
   <energy>
    <i name="e_fr_energy">   -247.84658054 </i>
    <i name="e_wo_entrp">   -247.83487454 </i>
    <i name="e_0_energy">   -247.84072754 </i>
   </energy>
  </scstep>
  <scstep>
   <time name="dav">    4.07    4.11</time>
   <time name="total">    4.07    4.11</time>
   <energy>
    <i name="e_fr_energy">   -295.91643425 </i>
    <i name="e_wo_entrp">   -295.91402295 </i>
    <i name="e_0_energy">   -295.91522860 </i>
   </energy>
  </scstep>
  <scstep>
   <time name="dav">    4.27    4.31</time>
   <time name="total">    4.27    4.32</time>
   <energy>
    <i name="e_fr_energy">   -296.85553163 </i>
    <i name="e_wo_entrp">   -296.85310756 </i>
    <i name="e_0_energy">   -296.85431959 </i>
   </energy>
  </scstep>
  <scstep>
   <time name="dav">    4.23    4.28</time>
   <time name="total">    4.41    4.45</time>
   <energy>
    <i name="e_fr_energy">   -296.87626974 </i>
    <i name="e_wo_entrp">   -296.87384532 </i>
    <i name="e_0_energy">   -296.87505753 </i>
   </energy>
  </scstep>
  <scstep>
   <time name="dav">    4.26    4.30</time>
   <time name="total">    4.52    4.56</time>
   <energy>
    <i name="e_fr_energy">   -294.85582278 </i>
    <i name="e_wo_entrp">   -294.85327861 </i>
    <i name="e_0_energy">   -294.85455070 </i>
   </energy>
  </scstep>
  <scstep>
   <time name="dav">    4.20    4.23</time>
   <time name="total">    4.46    4.50</time>
   <energy>
    <i name="e_fr_energy">   -292.07989690 </i>
    <i name="e_wo_entrp">   -292.07732982 </i>
    <i name="e_0_energy">   -292.07861336 </i>
   </energy>
  </scstep>
  <scstep>
   <time name="dav">    4.16    4.19</time>
   <time name="total">    4.42    4.46</time>
   <energy>
    <i name="e_fr_energy">   -292.00632445 </i>
    <i name="e_wo_entrp">   -292.00380562 </i>
    <i name="e_0_energy">   -292.00506503 </i>
   </energy>
  </scstep>
  <scstep>
   <time name="dav">    4.03    4.07</time>
   <time name="total">    4.29    4.33</time>
   <energy>
    <i name="e_fr_energy">   -292.01696208 </i>
    <i name="e_wo_entrp">   -292.01444045 </i>
    <i name="e_0_energy">   -292.01570127 </i>
   </energy>
  </scstep>
  <scstep>
   <time name="dav">    4.32    4.36</time>
   <time name="total">    4.58    4.62</time>
   <energy>
    <i name="e_fr_energy">   -292.02208214 </i>
    <i name="e_wo_entrp">   -292.01954978 </i>
    <i name="e_0_energy">   -292.02081596 </i>
   </energy>
  </scstep>
  <scstep>
   <time name="dav">    4.13    4.16</time>
   <time name="total">    4.38    4.42</time>
   <energy>
    <i name="e_fr_energy">   -292.02625967 </i>
    <i name="e_wo_entrp">   -292.02372632 </i>
    <i name="e_0_energy">   -292.02499300 </i>
   </energy>
  </scstep>
  <scstep>
   <time name="dav">    4.31    4.35</time>
   <time name="total">    4.65    4.69</time>
   <energy>
    <i name="e_fr_energy">   -292.02892375 </i>
    <i name="e_wo_entrp">   -292.02638843 </i>
    <i name="e_0_energy">   -292.02765609 </i>
   </energy>
  </scstep>
  <scstep>
   <time name="dav">    3.98    4.01</time>
   <time name="total">    4.23    4.27</time>
   <energy>
    <i name="e_fr_energy">   -292.02922479 </i>
    <i name="e_wo_entrp">   -292.02669057 </i>
    <i name="e_0_energy">   -292.02795768 </i>
   </energy>
  </scstep>
  <scstep>
   <time name="dav">    3.93    3.97</time>
   <time name="total">    4.20    4.24</time>
   <energy>
    <i name="e_fr_energy">   -292.02934108 </i>
    <i name="e_wo_entrp">   -292.02680639 </i>
    <i name="e_0_energy">   -292.02807374 </i>
   </energy>
  </scstep>
  <scstep>
   <time name="dav">    4.22    4.28</time>
   <time name="total">    4.48    4.55</time>
   <energy>
    <i name="e_fr_energy">   -292.02934218 </i>
    <i name="e_wo_entrp">   -292.02680755 </i>
    <i name="e_0_energy">   -292.02807486 </i>
   </energy>
  </scstep>
  <scstep>
   <time name="dav">    4.21    4.25</time>
   <time name="total">    4.47    4.51</time>
   <energy>
    <i name="e_fr_energy">   -292.02934647 </i>
    <i name="e_wo_entrp">   -292.02681216 </i>
    <i name="e_0_energy">   -292.02807931 </i>
   </energy>
  </scstep>
  <scstep>
   <time name="dav">    2.93    2.96</time>
   <time name="total">    3.02    3.05</time>
   <energy>
    <i name="alphaZ">     93.27357238 </i>
    <i name="ewald">  -6115.53854741 </i>
    <i name="hartreedc">   -403.38049910 </i>
    <i name="XCdc">   -470.81870002 </i>
    <i name="pawpsdc">  22796.93345883 </i>
    <i name="pawaedc"> -21869.41693069 </i>
    <i name="eentropy">     -0.00253435 </i>
    <i name="bandstr">    143.22858130 </i>
    <i name="atom">   5533.69225236 </i>
    <i name="e_fr_energy">   -292.02934669 </i>
    <i name="e_wo_entrp">   -292.02681234 </i>
    <i name="e_0_energy">   -292.02807952 </i>
   </energy>
  </scstep>
  <structure>
   <crystal>
    <varray name="basis" >
     <v>       9.97646553       0.00000000       5.75991507 </v>
     <v>       3.32548851       9.40590192       5.75991507 </v>
     <v>       0.00000000       0.00000000      11.51983014 </v>
    </varray>
    <i name="volume">   1080.99386112 </i>
    <varray name="rec_basis" >
     <v>       0.10023590      -0.03543874       0.00000000 </v>
     <v>       0.00000000       0.10631623       0.00000000 </v>
     <v>      -0.05011795      -0.03543874       0.08680684 </v>
    </varray>
   </crystal>
   <varray name="positions" >
    <v>       0.29166667       0.29166667       0.29166667 </v>
    <v>       0.29166667       0.29166667       0.62500000 </v>
    <v>       0.29166667       0.29166667       0.95833333 </v>
    <v>       0.29166667       0.62500000       0.29166667 </v>
    <v>       0.29166667       0.62500000       0.62500000 </v>
    <v>       0.29166667       0.62500000       0.95833333 </v>
    <v>       0.29166667       0.95833333       0.29166667 </v>
    <v>       0.29166667       0.95833333       0.62500000 </v>
    <v>       0.29166667       0.95833333       0.95833333 </v>
    <v>       0.62500000       0.29166667       0.29166667 </v>
    <v>       0.62500000       0.29166667       0.62500000 </v>
    <v>       0.62500000       0.29166667       0.95833333 </v>
    <v>       0.62500000       0.62500000       0.29166667 </v>
    <v>       0.62500000       0.62500000       0.62500000 </v>
    <v>       0.62500000       0.62500000       0.95833333 </v>
    <v>       0.62500000       0.95833333       0.29166667 </v>
    <v>       0.62500000       0.95833333       0.62500000 </v>
    <v>       0.62500000       0.95833333       0.95833333 </v>
    <v>       0.95833333       0.29166667       0.29166667 </v>
    <v>       0.95833333       0.29166667       0.62500000 </v>
    <v>       0.95833333       0.29166667       0.95833333 </v>
    <v>       0.95833333       0.62500000       0.29166667 </v>
    <v>       0.95833333       0.62500000       0.62500000 </v>
    <v>       0.95833333       0.62500000       0.95833333 </v>
    <v>       0.95833333       0.95833333       0.29166667 </v>
    <v>       0.95833333       0.95833333       0.62500000 </v>
    <v>       0.95833333       0.95833333       0.95833333 </v>
    <v>       0.04166667       0.04166667       0.04166667 </v>
    <v>       0.04166667       0.04166667       0.37500000 </v>
    <v>       0.04166667       0.04166667       0.70833333 </v>
    <v>       0.04166667       0.37500000       0.04166667 </v>
    <v>       0.04166667       0.37500000       0.37500000 </v>
    <v>       0.04166667       0.37500000       0.70833333 </v>
    <v>       0.04166667       0.70833333       0.04166667 </v>
    <v>       0.04166667       0.70833333       0.37500000 </v>
    <v>       0.04166667       0.70833333       0.70833333 </v>
    <v>       0.37500000       0.04166667       0.04166667 </v>
    <v>       0.37500000       0.04166667       0.37500000 </v>
    <v>       0.37500000       0.04166667       0.70833333 </v>
    <v>       0.37500000       0.37500000       0.04166667 </v>
    <v>       0.37500000       0.37500000       0.37500000 </v>
    <v>       0.37500000       0.37500000       0.70833333 </v>
    <v>       0.37500000       0.70833333       0.04166667 </v>
    <v>       0.37500000       0.70833333       0.37500000 </v>
    <v>       0.37500000       0.70833333       0.70833333 </v>
    <v>       0.70833333       0.04166667       0.04166667 </v>
    <v>       0.70833333       0.04166667       0.37500000 </v>
    <v>       0.70833333       0.04166667       0.70833333 </v>
    <v>       0.70833333       0.37500000       0.04166667 </v>
    <v>       0.70833333       0.37500000       0.37500000 </v>
    <v>       0.70833333       0.37500000       0.70833333 </v>
    <v>       0.70833333       0.70833333       0.04166667 </v>
    <v>       0.70833333       0.70833333       0.37500000 </v>
    <v>       0.70833333       0.70833333       0.70833333 </v>
   </varray>
  </structure>
  <varray name="forces" >
   <v>       0.00000000       0.00000000       0.00000000 </v>
   <v>       0.10969147       0.07756358      -0.07652534 </v>
   <v>       0.10969147       0.07756358       0.07652534 </v>
   <v>       0.03275477      -0.14004626       0.05673293 </v>
   <v>       0.02602802      -0.00920229      -0.00000000 </v>
   <v>       0.03275477      -0.14004626      -0.05673293 </v>
   <v>       0.07693670      -0.01508091       0.13325827 </v>
   <v>       0.07693670      -0.01508091      -0.13325827 </v>
   <v>       0.03789227      -0.01339694       0.00000000 </v>
   <v>      -0.12111862       0.07756358       0.05673293 </v>
   <v>       0.00000000       0.02760688      -0.00000000 </v>
   <v>      -0.12111862       0.07756358      -0.05673293 </v>
   <v>      -0.01301401      -0.00920229       0.02254092 </v>
   <v>      -0.01301401      -0.00920229      -0.02254092 </v>
   <v>      -0.00722061      -0.00510574       0.00000000 </v>
   <v>      -0.15387339      -0.01508091       0.00000000 </v>
   <v>      -0.00361031       0.00510574      -0.00625323 </v>
   <v>      -0.00361031       0.00510574       0.00625323 </v>
   <v>       0.01142715       0.07756358       0.13325827 </v>
   <v>       0.01142715       0.07756358      -0.13325827 </v>
   <v>       0.00000000       0.04019082       0.00000000 </v>
   <v>      -0.06550955      -0.14004626       0.00000000 </v>
   <v>       0.00361031      -0.00510574      -0.00625323 </v>
   <v>       0.00361031      -0.00510574       0.00625323 </v>
   <v>      -0.01894614      -0.01339694       0.03281567 </v>
   <v>       0.00722061       0.00510574       0.00000000 </v>
   <v>      -0.01894614      -0.01339694      -0.03281567 </v>
   <v>       0.00000000       0.00000000       0.00000000 </v>
   <v>       0.02118476       0.01497989      -0.02413051 </v>
   <v>       0.02118476       0.01497989       0.02413051 </v>
   <v>       0.00362650      -0.03468237       0.00628129 </v>
   <v>       2.03465180      -0.71935804       0.00000000 </v>
   <v>       0.00362650      -0.03468237      -0.00628129 </v>
   <v>       0.01755826       0.00472259       0.03041180 </v>
   <v>       0.01755826       0.00472259      -0.03041180 </v>
   <v>      -0.00790281       0.00279406       0.00000000 </v>
   <v>      -0.03149002       0.01497989       0.00628129 </v>
   <v>       0.00000000       2.15807413       0.00000000 </v>
   <v>      -0.03149002       0.01497989      -0.00628129 </v>
   <v>      -1.01732590      -0.71935804       1.76206015 </v>
   <v>      -1.01732590      -0.71935804      -1.76206015 </v>
   <v>      -0.08472352      -0.05990858       0.00000000 </v>
   <v>      -0.03511652       0.00472259       0.00000000 </v>
   <v>      -0.04236176       0.05990858      -0.07337272 </v>
   <v>      -0.04236176       0.05990858       0.07337272 </v>
   <v>       0.01030525       0.01497989       0.03041180 </v>
   <v>       0.01030525       0.01497989      -0.03041180 </v>
   <v>       0.00000000      -0.00838219       0.00000000 </v>
   <v>      -0.00725301      -0.03468237       0.00000000 </v>
   <v>       0.04236176      -0.05990858      -0.07337272 </v>
   <v>       0.04236176      -0.05990858       0.07337272 </v>
   <v>       0.00395140       0.00279406      -0.00684403 </v>
   <v>       0.08472352       0.05990858       0.00000000 </v>
   <v>       0.00395140       0.00279406       0.00684403 </v>
  </varray>
  <varray name="stress" >
   <v>       9.11392037       0.00000000       0.00000000 </v>
   <v>      -0.00000000       9.11392040      -0.00000000 </v>
   <v>      -0.00000000      -0.00000000       9.11392041 </v>
  </varray>
  <energy>
   <i name="e_fr_energy">   -292.02934669 </i>
   <i name="e_wo_entrp">   -292.02807952 </i>
   <i name="e_0_energy">     -0.00253435 </i>
  </energy>
  <time name="totalsc">   87.80   88.70</time>
  <eigenvalues>
   <array>
    <dimension dim="1">band</dimension>
    <dimension dim="2">kpoint</dimension>
    <dimension dim="3">spin</dimension>
    <field>eigene</field>
    <field>occ</field>
    <set>
     <set comment="spin 1">
      <set comment="kpoint 1">
       <r>   -6.2363    1.0000 </r>
       <r>   -4.9272    1.0000 </r>
       <r>   -4.9002    1.0000 </r>
       <r>   -4.9002    1.0000 </r>
       <r>   -4.9002    1.0000 </r>
       <r>   -4.8687    1.0000 </r>
       <r>   -4.8687    1.0000 </r>
       <r>   -4.8687    1.0000 </r>
       <r>   -4.7111    1.0000 </r>
       <r>   -4.3666    1.0000 </r>
       <r>   -4.3666    1.0000 </r>
       <r>   -4.3294    1.0000 </r>
       <r>   -4.3294    1.0000 </r>
       <r>   -4.3294    1.0000 </r>
       <r>   -4.0280    1.0000 </r>
       <r>   -3.0353    1.0000 </r>
       <r>   -3.0353    1.0000 </r>
       <r>   -3.0353    1.0000 </r>
       <r>   -3.0221    1.0000 </r>
       <r>   -3.0221    1.0000 </r>
       <r>   -2.9936    1.0000 </r>
       <r>   -2.9936    1.0000 </r>
       <r>   -2.9936    1.0000 </r>
       <r>   -2.9038    1.0000 </r>
       <r>   -2.9038    1.0000 </r>
       <r>   -2.9038    1.0000 </r>
       <r>   -2.3700    1.0000 </r>
       <r>   -1.1038    1.0000 </r>
       <r>   -1.1038    1.0000 </r>
       <r>   -1.1038    1.0000 </r>
       <r>   -1.0865    1.0000 </r>
       <r>   -1.0865    1.0000 </r>
       <r>   -1.0636    1.0000 </r>
       <r>   -1.0636    1.0000 </r>
       <r>   -1.0636    1.0000 </r>
       <r>   -0.9530    1.0000 </r>
       <r>   -0.9530    1.0000 </r>
       <r>   -0.9530    1.0000 </r>
       <r>   -0.6099    1.0000 </r>
       <r>    0.3525    1.0000 </r>
       <r>    0.3706    1.0000 </r>
       <r>    0.3706    1.0000 </r>
       <r>    0.3706    1.0000 </r>
       <r>    0.4197    1.0000 </r>
       <r>    0.4197    1.0000 </r>
       <r>    0.4197    1.0000 </r>
       <r>    0.4343    1.0000 </r>
       <r>    0.6863    1.0000 </r>
       <r>    0.6863    1.0000 </r>
       <r>    0.7564    1.0000 </r>
       <r>    0.7564    1.0000 </r>
       <r>    0.7564    1.0000 </r>
       <r>    1.0479    1.0000 </r>
       <r>    1.2594    1.0000 </r>
       <r>    1.2594    1.0000 </r>
       <r>    1.2594    1.0000 </r>
       <r>    1.2615    1.0000 </r>
       <r>    1.2615    1.0000 </r>
       <r>    1.2615    1.0000 </r>
       <r>    1.2739    1.0000 </r>
       <r>    1.3451    1.0000 </r>
       <r>    1.3451    1.0000 </r>
       <r>    1.5411    1.0000 </r>
       <r>    1.5411    1.0000 </r>
       <r>    1.5411    1.0000 </r>
       <r>    3.2605    1.0000 </r>
       <r>    3.2605    1.0000 </r>
       <r>    3.2605    1.0000 </r>
       <r>    3.2882    1.0000 </r>
       <r>    3.2882    1.0000 </r>
       <r>    3.2882    1.0000 </r>
       <r>    3.2924    1.0000 </r>
       <r>    3.2924    1.0000 </r>
       <r>    3.2924    1.0000 </r>
       <r>    3.3459    1.0000 </r>
       <r>    3.3459    1.0000 </r>
       <r>    3.3459    1.0000 </r>
       <r>    3.5737    1.0000 </r>
       <r>    3.5737    1.0000 </r>
       <r>    3.5737    1.0000 </r>
       <r>    3.5786    1.0000 </r>
       <r>    3.6042    1.0000 </r>
       <r>    3.6042    1.0000 </r>
       <r>    3.6160    1.0000 </r>
       <r>    3.6160    1.0000 </r>
       <r>    3.6160    1.0000 </r>
       <r>    3.8380    1.0000 </r>
       <r>    3.8380    1.0000 </r>
       <r>    3.8380    1.0000 </r>
       <r>    4.6690    1.0000 </r>
       <r>    4.6690    1.0000 </r>
       <r>    4.6690    1.0000 </r>
       <r>    4.6706    1.0000 </r>
       <r>    4.6706    1.0000 </r>
       <r>    4.6791    1.0000 </r>
       <r>    4.6791    1.0000 </r>
       <r>    4.6791    1.0000 </r>
       <r>    4.7234    1.0000 </r>
       <r>    4.7234    1.0000 </r>
       <r>    4.7316    1.0000 </r>
       <r>    4.7316    1.0000 </r>
       <r>    4.7316    1.0000 </r>
       <r>    5.0462    1.0000 </r>
       <r>    5.0462    1.0000 </r>
       <r>    5.0462    1.0000 </r>
       <r>    5.7974    0.0000 </r>
       <r>    5.7974    0.0000 </r>
       <r>    5.7974    0.0000 </r>
       <r>    6.4441    0.0000 </r>
       <r>    6.4505    0.0000 </r>
       <r>    6.4505    0.0000 </r>
       <r>    6.4710    0.0000 </r>
       <r>    6.4710    0.0000 </r>
       <r>    6.4710    0.0000 </r>
       <r>    7.2558    0.0000 </r>
       <r>    7.2577    0.0000 </r>
       <r>    7.2577    0.0000 </r>
       <r>    7.2577    0.0000 </r>
       <r>    7.2715    0.0000 </r>
       <r>    7.2715    0.0000 </r>
       <r>    7.2715    0.0000 </r>
       <r>    7.3230    0.0000 </r>
       <r>    7.3230    0.0000 </r>
       <r>    7.3230    0.0000 </r>
       <r>    7.3467    0.0000 </r>
       <r>    7.3467    0.0000 </r>
       <r>    7.4395    0.0000 </r>
       <r>    7.4395    0.0000 </r>
       <r>    7.4395    0.0000 </r>
       <r>    7.4556    0.0000 </r>
       <r>    7.4999    0.0000 </r>
       <r>    7.5796    0.0000 </r>
       <r>    7.5796    0.0000 </r>
       <r>    7.5796    0.0000 </r>
       <r>    7.7061    0.0000 </r>
       <r>    7.7900    0.0000 </r>
       <r>    7.7900    0.0000 </r>
       <r>    7.7900    0.0000 </r>
       <r>    7.8193    0.0000 </r>
       <r>    7.8193    0.0000 </r>
       <r>    8.3063    0.0000 </r>
       <r>    8.3063    0.0000 </r>
       <r>    8.3063    0.0000 </r>
       <r>    9.0674    0.0000 </r>
      </set>
      <set comment="kpoint 2">
       <r>   -6.1474    1.0000 </r>
       <r>   -5.4427    1.0000 </r>
       <r>   -5.0100    1.0000 </r>
       <r>   -5.0100    1.0000 </r>
       <r>   -4.9796    1.0000 </r>
       <r>   -4.7416    1.0000 </r>
       <r>   -4.7416    1.0000 </r>
       <r>   -4.6866    1.0000 </r>
       <r>   -4.5848    1.0000 </r>
       <r>   -4.5848    1.0000 </r>
       <r>   -4.4314    1.0000 </r>
       <r>   -4.2200    1.0000 </r>
       <r>   -3.8182    1.0000 </r>
       <r>   -3.8182    1.0000 </r>
       <r>   -3.7084    1.0000 </r>
       <r>   -3.5898    1.0000 </r>
       <r>   -3.5898    1.0000 </r>
       <r>   -3.4503    1.0000 </r>
       <r>   -3.0222    1.0000 </r>
       <r>   -3.0222    1.0000 </r>
       <r>   -2.9886    1.0000 </r>
       <r>   -2.9440    1.0000 </r>
       <r>   -2.9440    1.0000 </r>
       <r>   -2.7831    1.0000 </r>
       <r>   -2.7103    1.0000 </r>
       <r>   -2.7103    1.0000 </r>
       <r>   -2.3408    1.0000 </r>
       <r>   -1.3493    1.0000 </r>
       <r>   -1.3493    1.0000 </r>
       <r>   -1.2526    1.0000 </r>
       <r>   -1.1296    1.0000 </r>
       <r>   -1.1296    1.0000 </r>
       <r>   -1.1018    1.0000 </r>
       <r>   -1.0468    1.0000 </r>
       <r>   -1.0468    1.0000 </r>
       <r>   -0.8974    1.0000 </r>
       <r>   -0.7098    1.0000 </r>
       <r>   -0.5710    1.0000 </r>
       <r>   -0.5710    1.0000 </r>
       <r>   -0.4327    1.0000 </r>
       <r>   -0.0918    1.0000 </r>
       <r>   -0.0918    1.0000 </r>
       <r>   -0.0724    1.0000 </r>
       <r>    0.0481    1.0000 </r>
       <r>    0.0481    1.0000 </r>
       <r>    0.2723    1.0000 </r>
       <r>    0.8681    1.0000 </r>
       <r>    0.8681    1.0000 </r>
       <r>    0.8925    1.0000 </r>
       <r>    1.2918    1.0000 </r>
       <r>    1.2918    1.0000 </r>
       <r>    1.3533    1.0000 </r>
       <r>    1.4338    1.0000 </r>
       <r>    1.4468    1.0000 </r>
       <r>    1.4468    1.0000 </r>
       <r>    1.4686    1.0000 </r>
       <r>    1.4903    1.0000 </r>
       <r>    1.4903    1.0000 </r>
       <r>    1.5343    1.0000 </r>
       <r>    1.6402    1.0000 </r>
       <r>    1.6402    1.0000 </r>
       <r>    1.7185    1.0000 </r>
       <r>    1.7733    1.0000 </r>
       <r>    1.7733    1.0000 </r>
       <r>    1.9604    1.0000 </r>
       <r>    2.8115    1.0000 </r>
       <r>    2.8115    1.0000 </r>
       <r>    2.8445    1.0000 </r>
       <r>    3.1330    1.0000 </r>
       <r>    3.1596    1.0000 </r>
       <r>    3.1596    1.0000 </r>
       <r>    3.2646    1.0000 </r>
       <r>    3.2646    1.0000 </r>
       <r>    3.2691    1.0000 </r>
       <r>    3.2845    1.0000 </r>
       <r>    3.2845    1.0000 </r>
       <r>    3.2908    1.0000 </r>
       <r>    3.3029    1.0000 </r>
       <r>    3.3370    1.0000 </r>
       <r>    3.3370    1.0000 </r>
       <r>    3.4384    1.0000 </r>
       <r>    3.4384    1.0000 </r>
       <r>    3.5646    1.0000 </r>
       <r>    3.5672    1.0000 </r>
       <r>    3.6514    1.0000 </r>
       <r>    3.6514    1.0000 </r>
       <r>    3.8607    1.0000 </r>
       <r>    3.8607    1.0000 </r>
       <r>    3.9799    1.0000 </r>
       <r>    4.0151    1.0000 </r>
       <r>    4.0577    1.0000 </r>
       <r>    4.0577    1.0000 </r>
       <r>    4.3837    1.0000 </r>
       <r>    4.4119    1.0000 </r>
       <r>    4.4119    1.0000 </r>
       <r>    4.4551    1.0000 </r>
       <r>    4.4551    1.0000 </r>
       <r>    4.5869    1.0000 </r>
       <r>    4.5888    1.0000 </r>
       <r>    4.5888    1.0000 </r>
       <r>    4.7103    1.0000 </r>
       <r>    4.8158    1.0000 </r>
       <r>    4.8158    1.0000 </r>
       <r>    4.9950    1.0000 </r>
       <r>    5.0690    1.0000 </r>
       <r>    5.0690    1.0000 </r>
       <r>    5.6620    0.0001 </r>
       <r>    5.6620    0.0001 </r>
       <r>    6.6133    0.0000 </r>
       <r>    6.6222    0.0000 </r>
       <r>    6.6222    0.0000 </r>
       <r>    6.9091    0.0000 </r>
       <r>    6.9091    0.0000 </r>
       <r>    6.9168    0.0000 </r>
       <r>    6.9995    0.0000 </r>
       <r>    7.0279    0.0000 </r>
       <r>    7.0279    0.0000 </r>
       <r>    7.3245    0.0000 </r>
       <r>    7.5728    0.0000 </r>
       <r>    7.5882    0.0000 </r>
       <r>    7.5882    0.0000 </r>
       <r>    7.7101    0.0000 </r>
       <r>    7.7615    0.0000 </r>
       <r>    7.7615    0.0000 </r>
       <r>    7.7830    0.0000 </r>
       <r>    7.8272    0.0000 </r>
       <r>    7.8481    0.0000 </r>
       <r>    7.8481    0.0000 </r>
       <r>    7.8906    0.0000 </r>
       <r>    7.9002    0.0000 </r>
       <r>    7.9002    0.0000 </r>
       <r>    7.9346    0.0000 </r>
       <r>    7.9539    0.0000 </r>
       <r>    7.9539    0.0000 </r>
       <r>    8.0283    0.0000 </r>
       <r>    8.1074    0.0000 </r>
       <r>    8.1074    0.0000 </r>
       <r>    8.3399    0.0000 </r>
       <r>    8.5085    0.0000 </r>
       <r>    8.5085    0.0000 </r>
       <r>    8.5142    0.0000 </r>
       <r>    8.5608    0.0000 </r>
       <r>    8.5608    0.0000 </r>
       <r>    9.0129    0.0000 </r>
      </set>
      <set comment="kpoint 3">
       <r>   -5.9240    1.0000 </r>
       <r>   -5.8303    1.0000 </r>
       <r>   -5.0049    1.0000 </r>
       <r>   -4.9919    1.0000 </r>
       <r>   -4.9919    1.0000 </r>
       <r>   -4.9255    1.0000 </r>
       <r>   -4.9255    1.0000 </r>
       <r>   -4.7604    1.0000 </r>
       <r>   -4.1686    1.0000 </r>
       <r>   -4.1686    1.0000 </r>
       <r>   -4.1382    1.0000 </r>
       <r>   -4.1356    1.0000 </r>
       <r>   -4.1356    1.0000 </r>
       <r>   -4.0075    1.0000 </r>
       <r>   -3.8350    1.0000 </r>
       <r>   -3.2036    1.0000 </r>
       <r>   -3.2036    1.0000 </r>
       <r>   -3.1935    1.0000 </r>
       <r>   -3.1762    1.0000 </r>
       <r>   -3.1762    1.0000 </r>
       <r>   -3.0336    1.0000 </r>
       <r>   -3.0172    1.0000 </r>
       <r>   -3.0172    1.0000 </r>
       <r>   -2.9835    1.0000 </r>
       <r>   -2.9240    1.0000 </r>
       <r>   -2.9240    1.0000 </r>
       <r>   -2.4118    1.0000 </r>
       <r>   -1.2465    1.0000 </r>
       <r>   -1.1630    1.0000 </r>
       <r>   -1.1630    1.0000 </r>
       <r>   -1.1380    1.0000 </r>
       <r>   -1.0946    1.0000 </r>
       <r>   -1.0946    1.0000 </r>
       <r>   -1.0254    1.0000 </r>
       <r>   -0.8697    1.0000 </r>
       <r>   -0.8697    1.0000 </r>
       <r>   -0.8318    1.0000 </r>
       <r>   -0.8318    1.0000 </r>
       <r>   -0.7894    1.0000 </r>
       <r>   -0.6060    1.0000 </r>
       <r>   -0.3082    1.0000 </r>
       <r>   -0.3082    1.0000 </r>
       <r>   -0.2724    1.0000 </r>
       <r>   -0.2046    1.0000 </r>
       <r>   -0.2046    1.0000 </r>
       <r>    0.0408    1.0000 </r>
       <r>    1.2322    1.0000 </r>
       <r>    1.2560    1.0000 </r>
       <r>    1.2560    1.0000 </r>
       <r>    1.3317    1.0000 </r>
       <r>    1.3317    1.0000 </r>
       <r>    1.4272    1.0000 </r>
       <r>    1.6584    1.0000 </r>
       <r>    1.6846    1.0000 </r>
       <r>    1.6846    1.0000 </r>
       <r>    1.7024    1.0000 </r>
       <r>    1.8430    1.0000 </r>
       <r>    1.8430    1.0000 </r>
       <r>    2.0583    1.0000 </r>
       <r>    2.0762    1.0000 </r>
       <r>    2.0762    1.0000 </r>
       <r>    2.1571    1.0000 </r>
       <r>    2.1571    1.0000 </r>
       <r>    2.1631    1.0000 </r>
       <r>    2.6515    1.0000 </r>
       <r>    2.6515    1.0000 </r>
       <r>    2.6685    1.0000 </r>
       <r>    2.6685    1.0000 </r>
       <r>    2.6992    1.0000 </r>
       <r>    2.7168    1.0000 </r>
       <r>    2.9316    1.0000 </r>
       <r>    2.9316    1.0000 </r>
       <r>    2.9364    1.0000 </r>
       <r>    2.9924    1.0000 </r>
       <r>    2.9924    1.0000 </r>
       <r>    3.1159    1.0000 </r>
       <r>    3.1234    1.0000 </r>
       <r>    3.1234    1.0000 </r>
       <r>    3.1441    1.0000 </r>
       <r>    3.1737    1.0000 </r>
       <r>    3.2929    1.0000 </r>
       <r>    3.2929    1.0000 </r>
       <r>    3.3493    1.0000 </r>
       <r>    3.3928    1.0000 </r>
       <r>    3.6856    1.0000 </r>
       <r>    3.6856    1.0000 </r>
       <r>    3.6941    1.0000 </r>
       <r>    3.7653    1.0000 </r>
       <r>    3.7653    1.0000 </r>
       <r>    3.9411    1.0000 </r>
       <r>    3.9633    1.0000 </r>
       <r>    3.9743    1.0000 </r>
       <r>    3.9743    1.0000 </r>
       <r>    4.0437    1.0000 </r>
       <r>    4.0437    1.0000 </r>
       <r>    4.2242    1.0000 </r>
       <r>    4.3822    1.0000 </r>
       <r>    4.4019    1.0000 </r>
       <r>    4.4019    1.0000 </r>
       <r>    4.4309    1.0000 </r>
       <r>    4.4721    1.0000 </r>
       <r>    4.4721    1.0000 </r>
       <r>    4.6983    1.0000 </r>
       <r>    4.6983    1.0000 </r>
       <r>    5.2341    1.0000 </r>
       <r>    5.2341    1.0000 </r>
       <r>    5.4533    0.9792 </r>
       <r>    5.4533    0.9792 </r>
       <r>    6.7360    0.0000 </r>
       <r>    6.7360    0.0000 </r>
       <r>    6.7509    0.0000 </r>
       <r>    6.8264    0.0000 </r>
       <r>    6.8789    0.0000 </r>
       <r>    6.8789    0.0000 </r>
       <r>    7.2691    0.0000 </r>
       <r>    7.6665    0.0000 </r>
       <r>    7.6665    0.0000 </r>
       <r>    7.6911    0.0000 </r>
       <r>    7.6936    0.0000 </r>
       <r>    7.7229    0.0000 </r>
       <r>    7.7229    0.0000 </r>
       <r>    8.0380    0.0000 </r>
       <r>    8.0917    0.0000 </r>
       <r>    8.1473    0.0000 </r>
       <r>    8.1473    0.0000 </r>
       <r>    8.1612    0.0000 </r>
       <r>    8.2277    0.0000 </r>
       <r>    8.2818    0.0000 </r>
       <r>    8.2818    0.0000 </r>
       <r>    8.4117    0.0000 </r>
       <r>    8.4284    0.0000 </r>
       <r>    8.4284    0.0000 </r>
       <r>    8.4586    0.0000 </r>
       <r>    8.4807    0.0000 </r>
       <r>    8.4807    0.0000 </r>
       <r>    8.8920    0.0000 </r>
       <r>    8.8920    0.0000 </r>
       <r>    8.9514    0.0000 </r>
       <r>    8.9514    0.0000 </r>
       <r>    9.0373    0.0000 </r>
       <r>    9.0671    0.0000 </r>
       <r>    9.0677    0.0000 </r>
       <r>    9.0693    0.0000 </r>
       <r>    9.1384    0.0000 </r>
      </set>
      <set comment="kpoint 4">
       <r>   -6.1174    1.0000 </r>
       <r>   -5.2304    1.0000 </r>
       <r>   -5.2178    1.0000 </r>
       <r>   -5.2011    1.0000 </r>
       <r>   -5.2011    1.0000 </r>
       <r>   -5.0042    1.0000 </r>
       <r>   -4.4016    1.0000 </r>
       <r>   -4.3939    1.0000 </r>
       <r>   -4.3939    1.0000 </r>
       <r>   -4.3579    1.0000 </r>
       <r>   -4.2683    1.0000 </r>
       <r>   -4.2246    1.0000 </r>
       <r>   -4.2246    1.0000 </r>
       <r>   -4.0099    1.0000 </r>
       <r>   -3.5404    1.0000 </r>
       <r>   -3.5113    1.0000 </r>
       <r>   -3.5113    1.0000 </r>
       <r>   -3.4455    1.0000 </r>
       <r>   -3.3119    1.0000 </r>
       <r>   -3.2067    1.0000 </r>
       <r>   -3.2067    1.0000 </r>
       <r>   -3.1866    1.0000 </r>
       <r>   -2.8970    1.0000 </r>
       <r>   -2.4759    1.0000 </r>
       <r>   -2.4398    1.0000 </r>
       <r>   -2.4398    1.0000 </r>
       <r>   -2.1994    1.0000 </r>
       <r>   -1.5604    1.0000 </r>
       <r>   -1.5235    1.0000 </r>
       <r>   -1.5235    1.0000 </r>
       <r>   -1.4057    1.0000 </r>
       <r>   -1.0760    1.0000 </r>
       <r>   -1.0760    1.0000 </r>
       <r>   -1.0661    1.0000 </r>
       <r>   -0.9850    1.0000 </r>
       <r>   -0.7123    1.0000 </r>
       <r>   -0.5222    1.0000 </r>
       <r>   -0.4868    1.0000 </r>
       <r>   -0.4868    1.0000 </r>
       <r>   -0.4157    1.0000 </r>
       <r>   -0.3629    1.0000 </r>
       <r>   -0.3348    1.0000 </r>
       <r>   -0.3348    1.0000 </r>
       <r>   -0.1392    1.0000 </r>
       <r>    0.5106    1.0000 </r>
       <r>    0.5668    1.0000 </r>
       <r>    0.5668    1.0000 </r>
       <r>    0.7052    1.0000 </r>
       <r>    1.2956    1.0000 </r>
       <r>    1.3216    1.0000 </r>
       <r>    1.3216    1.0000 </r>
       <r>    1.3913    1.0000 </r>
       <r>    1.4472    1.0000 </r>
       <r>    1.4561    1.0000 </r>
       <r>    1.4561    1.0000 </r>
       <r>    1.4739    1.0000 </r>
       <r>    1.5770    1.0000 </r>
       <r>    1.6146    1.0000 </r>
       <r>    1.6232    1.0000 </r>
       <r>    1.6232    1.0000 </r>
       <r>    1.8191    1.0000 </r>
       <r>    1.9048    1.0000 </r>
       <r>    1.9048    1.0000 </r>
       <r>    1.9227    1.0000 </r>
       <r>    2.2781    1.0000 </r>
       <r>    2.8520    1.0000 </r>
       <r>    2.8563    1.0000 </r>
       <r>    2.8563    1.0000 </r>
       <r>    2.8741    1.0000 </r>
       <r>    2.9358    1.0000 </r>
       <r>    2.9456    1.0000 </r>
       <r>    2.9456    1.0000 </r>
       <r>    3.0239    1.0000 </r>
       <r>    3.0394    1.0000 </r>
       <r>    3.0394    1.0000 </r>
       <r>    3.2933    1.0000 </r>
       <r>    3.3249    1.0000 </r>
       <r>    3.3249    1.0000 </r>
       <r>    3.3732    1.0000 </r>
       <r>    3.6327    1.0000 </r>
       <r>    3.6432    1.0000 </r>
       <r>    3.6432    1.0000 </r>
       <r>    3.6707    1.0000 </r>
       <r>    3.6925    1.0000 </r>
       <r>    3.7053    1.0000 </r>
       <r>    3.7117    1.0000 </r>
       <r>    3.7117    1.0000 </r>
       <r>    3.9148    1.0000 </r>
       <r>    3.9148    1.0000 </r>
       <r>    4.0045    1.0000 </r>
       <r>    4.0280    1.0000 </r>
       <r>    4.0280    1.0000 </r>
       <r>    4.0439    1.0000 </r>
       <r>    4.1351    1.0000 </r>
       <r>    4.1738    1.0000 </r>
       <r>    4.1738    1.0000 </r>
       <r>    4.2895    1.0000 </r>
       <r>    4.2964    1.0000 </r>
       <r>    4.4600    1.0000 </r>
       <r>    4.4600    1.0000 </r>
       <r>    4.4606    1.0000 </r>
       <r>    5.0090    1.0000 </r>
       <r>    5.0268    1.0000 </r>
       <r>    5.1070    1.0000 </r>
       <r>    5.1070    1.0000 </r>
       <r>    5.1166    1.0000 </r>
       <r>    5.4284    0.9970 </r>
       <r>    5.4284    0.9970 </r>
       <r>    6.3103    0.0000 </r>
       <r>    6.8399    0.0000 </r>
       <r>    6.9214    0.0000 </r>
       <r>    7.1073    0.0000 </r>
       <r>    7.1098    0.0000 </r>
       <r>    7.1262    0.0000 </r>
       <r>    7.1262    0.0000 </r>
       <r>    7.4008    0.0000 </r>
       <r>    7.4008    0.0000 </r>
       <r>    7.4402    0.0000 </r>
       <r>    7.4719    0.0000 </r>
       <r>    7.5007    0.0000 </r>
       <r>    7.5007    0.0000 </r>
       <r>    7.5029    0.0000 </r>
       <r>    7.5197    0.0000 </r>
       <r>    7.8456    0.0000 </r>
       <r>    7.8490    0.0000 </r>
       <r>    7.8490    0.0000 </r>
       <r>    7.8669    0.0000 </r>
       <r>    8.0188    0.0000 </r>
       <r>    8.1398    0.0000 </r>
       <r>    8.1398    0.0000 </r>
       <r>    8.1423    0.0000 </r>
       <r>    8.1739    0.0000 </r>
       <r>    8.1831    0.0000 </r>
       <r>    8.1833    0.0000 </r>
       <r>    8.1833    0.0000 </r>
       <r>    8.2643    0.0000 </r>
       <r>    8.3169    0.0000 </r>
       <r>    8.3451    0.0000 </r>
       <r>    8.3451    0.0000 </r>
       <r>    8.3568    0.0000 </r>
       <r>    8.8484    0.0000 </r>
       <r>    8.8484    0.0000 </r>
       <r>    8.8732    0.0000 </r>
       <r>    9.0020    0.0000 </r>
      </set>
      <set comment="kpoint 5">
       <r>   -5.9153    1.0000 </r>
       <r>   -5.6702    1.0000 </r>
       <r>   -5.4341    1.0000 </r>
       <r>   -5.2216    1.0000 </r>
       <r>   -5.1489    1.0000 </r>
       <r>   -4.7457    1.0000 </r>
       <r>   -4.5331    1.0000 </r>
       <r>   -4.5103    1.0000 </r>
       <r>   -4.3094    1.0000 </r>
       <r>   -4.1389    1.0000 </r>
       <r>   -4.0967    1.0000 </r>
       <r>   -4.0231    1.0000 </r>
       <r>   -3.9626    1.0000 </r>
       <r>   -3.8566    1.0000 </r>
       <r>   -3.6448    1.0000 </r>
       <r>   -3.6382    1.0000 </r>
       <r>   -3.5900    1.0000 </r>
       <r>   -3.4846    1.0000 </r>
       <r>   -3.4180    1.0000 </r>
       <r>   -3.3840    1.0000 </r>
       <r>   -3.3262    1.0000 </r>
       <r>   -3.0338    1.0000 </r>
       <r>   -2.6892    1.0000 </r>
       <r>   -2.6167    1.0000 </r>
       <r>   -2.5510    1.0000 </r>
       <r>   -2.4959    1.0000 </r>
       <r>   -2.2379    1.0000 </r>
       <r>   -1.4645    1.0000 </r>
       <r>   -1.4592    1.0000 </r>
       <r>   -1.4165    1.0000 </r>
       <r>   -1.4111    1.0000 </r>
       <r>   -1.2877    1.0000 </r>
       <r>   -1.1049    1.0000 </r>
       <r>   -1.0106    1.0000 </r>
       <r>   -1.0097    1.0000 </r>
       <r>   -0.9533    1.0000 </r>
       <r>   -0.7087    1.0000 </r>
       <r>   -0.6522    1.0000 </r>
       <r>   -0.6171    1.0000 </r>
       <r>   -0.6083    1.0000 </r>
       <r>   -0.5210    1.0000 </r>
       <r>   -0.3031    1.0000 </r>
       <r>   -0.1595    1.0000 </r>
       <r>    0.0749    1.0000 </r>
       <r>    0.0761    1.0000 </r>
       <r>    0.1985    1.0000 </r>
       <r>    0.7642    1.0000 </r>
       <r>    0.8233    1.0000 </r>
       <r>    0.9203    1.0000 </r>
       <r>    1.6307    1.0000 </r>
       <r>    1.6432    1.0000 </r>
       <r>    1.7371    1.0000 </r>
       <r>    1.7514    1.0000 </r>
       <r>    1.8431    1.0000 </r>
       <r>    1.8453    1.0000 </r>
       <r>    1.9791    1.0000 </r>
       <r>    1.9943    1.0000 </r>
       <r>    2.1553    1.0000 </r>
       <r>    2.1867    1.0000 </r>
       <r>    2.2380    1.0000 </r>
       <r>    2.2603    1.0000 </r>
       <r>    2.2725    1.0000 </r>
       <r>    2.3222    1.0000 </r>
       <r>    2.3350    1.0000 </r>
       <r>    2.4333    1.0000 </r>
       <r>    2.4735    1.0000 </r>
       <r>    2.5488    1.0000 </r>
       <r>    2.6403    1.0000 </r>
       <r>    2.7083    1.0000 </r>
       <r>    2.7410    1.0000 </r>
       <r>    2.7574    1.0000 </r>
       <r>    2.8194    1.0000 </r>
       <r>    2.8290    1.0000 </r>
       <r>    2.8463    1.0000 </r>
       <r>    2.9384    1.0000 </r>
       <r>    2.9563    1.0000 </r>
       <r>    3.0753    1.0000 </r>
       <r>    3.1001    1.0000 </r>
       <r>    3.1022    1.0000 </r>
       <r>    3.1635    1.0000 </r>
       <r>    3.1799    1.0000 </r>
       <r>    3.2114    1.0000 </r>
       <r>    3.3913    1.0000 </r>
       <r>    3.5230    1.0000 </r>
       <r>    3.5527    1.0000 </r>
       <r>    3.5798    1.0000 </r>
       <r>    3.5932    1.0000 </r>
       <r>    3.6520    1.0000 </r>
       <r>    3.7934    1.0000 </r>
       <r>    3.8125    1.0000 </r>
       <r>    3.9066    1.0000 </r>
       <r>    3.9260    1.0000 </r>
       <r>    3.9834    1.0000 </r>
       <r>    4.0617    1.0000 </r>
       <r>    4.0980    1.0000 </r>
       <r>    4.1119    1.0000 </r>
       <r>    4.1641    1.0000 </r>
       <r>    4.2236    1.0000 </r>
       <r>    4.2529    1.0000 </r>
       <r>    4.2680    1.0000 </r>
       <r>    4.4399    1.0000 </r>
       <r>    4.5114    1.0000 </r>
       <r>    4.7234    1.0000 </r>
       <r>    4.8060    1.0000 </r>
       <r>    4.8747    1.0000 </r>
       <r>    5.0245    1.0000 </r>
       <r>    5.2322    1.0000 </r>
       <r>    5.4605    0.9667 </r>
       <r>    6.5099    0.0000 </r>
       <r>    7.0736    0.0000 </r>
       <r>    7.2320    0.0000 </r>
       <r>    7.2386    0.0000 </r>
       <r>    7.2487    0.0000 </r>
       <r>    7.4522    0.0000 </r>
       <r>    7.4758    0.0000 </r>
       <r>    7.4763    0.0000 </r>
       <r>    7.7287    0.0000 </r>
       <r>    7.7735    0.0000 </r>
       <r>    7.8550    0.0000 </r>
       <r>    7.8642    0.0000 </r>
       <r>    7.9397    0.0000 </r>
       <r>    8.0480    0.0000 </r>
       <r>    8.0737    0.0000 </r>
       <r>    8.1318    0.0000 </r>
       <r>    8.2957    0.0000 </r>
       <r>    8.3239    0.0000 </r>
       <r>    8.3455    0.0000 </r>
       <r>    8.3459    0.0000 </r>
       <r>    8.3927    0.0000 </r>
       <r>    8.4017    0.0000 </r>
       <r>    8.4492    0.0000 </r>
       <r>    8.5603    0.0000 </r>
       <r>    8.6876    0.0000 </r>
       <r>    8.6883    0.0000 </r>
       <r>    8.7173    0.0000 </r>
       <r>    8.7200    0.0000 </r>
       <r>    8.7855    0.0000 </r>
       <r>    8.8017    0.0000 </r>
       <r>    8.8871    0.0000 </r>
       <r>    8.9231    0.0000 </r>
       <r>    8.9422    0.0000 </r>
       <r>    8.9567    0.0000 </r>
       <r>    8.9814    0.0000 </r>
       <r>    8.9902    0.0000 </r>
      </set>
      <set comment="kpoint 6">
       <r>   -6.0011    1.0000 </r>
       <r>   -5.5543    1.0000 </r>
       <r>   -5.4915    1.0000 </r>
       <r>   -5.0690    1.0000 </r>
       <r>   -5.0130    1.0000 </r>
       <r>   -4.6709    1.0000 </r>
       <r>   -4.6622    1.0000 </r>
       <r>   -4.6235    1.0000 </r>
       <r>   -4.5132    1.0000 </r>
       <r>   -4.2194    1.0000 </r>
       <r>   -4.1464    1.0000 </r>
       <r>   -4.1188    1.0000 </r>
       <r>   -4.0109    1.0000 </r>
       <r>   -3.8870    1.0000 </r>
       <r>   -3.5743    1.0000 </r>
       <r>   -3.5498    1.0000 </r>
       <r>   -3.5241    1.0000 </r>
       <r>   -3.4128    1.0000 </r>
       <r>   -3.2418    1.0000 </r>
       <r>   -3.1873    1.0000 </r>
       <r>   -3.0745    1.0000 </r>
       <r>   -3.0379    1.0000 </r>
       <r>   -3.0302    1.0000 </r>
       <r>   -2.8334    1.0000 </r>
       <r>   -2.7287    1.0000 </r>
       <r>   -2.5030    1.0000 </r>
       <r>   -2.1587    1.0000 </r>
       <r>   -1.7896    1.0000 </r>
       <r>   -1.2124    1.0000 </r>
       <r>   -1.1592    1.0000 </r>
       <r>   -1.0609    1.0000 </r>
       <r>   -1.0479    1.0000 </r>
       <r>   -1.0184    1.0000 </r>
       <r>   -1.0116    1.0000 </r>
       <r>   -0.9438    1.0000 </r>
       <r>   -0.8817    1.0000 </r>
       <r>   -0.8701    1.0000 </r>
       <r>   -0.8439    1.0000 </r>
       <r>   -0.8244    1.0000 </r>
       <r>   -0.7110    1.0000 </r>
       <r>   -0.6940    1.0000 </r>
       <r>   -0.4279    1.0000 </r>
       <r>    0.2206    1.0000 </r>
       <r>    0.2832    1.0000 </r>
       <r>    0.3221    1.0000 </r>
       <r>    0.4361    1.0000 </r>
       <r>    0.4822    1.0000 </r>
       <r>    0.5080    1.0000 </r>
       <r>    0.6543    1.0000 </r>
       <r>    1.5146    1.0000 </r>
       <r>    1.5179    1.0000 </r>
       <r>    1.7360    1.0000 </r>
       <r>    1.7417    1.0000 </r>
       <r>    1.7625    1.0000 </r>
       <r>    1.7709    1.0000 </r>
       <r>    1.8601    1.0000 </r>
       <r>    1.8795    1.0000 </r>
       <r>    1.9085    1.0000 </r>
       <r>    1.9885    1.0000 </r>
       <r>    2.1324    1.0000 </r>
       <r>    2.1331    1.0000 </r>
       <r>    2.1656    1.0000 </r>
       <r>    2.1715    1.0000 </r>
       <r>    2.3283    1.0000 </r>
       <r>    2.3980    1.0000 </r>
       <r>    2.5853    1.0000 </r>
       <r>    2.6125    1.0000 </r>
       <r>    2.6264    1.0000 </r>
       <r>    2.6421    1.0000 </r>
       <r>    2.7254    1.0000 </r>
       <r>    2.7921    1.0000 </r>
       <r>    2.7946    1.0000 </r>
       <r>    2.8676    1.0000 </r>
       <r>    3.0522    1.0000 </r>
       <r>    3.0775    1.0000 </r>
       <r>    3.1173    1.0000 </r>
       <r>    3.1308    1.0000 </r>
       <r>    3.1475    1.0000 </r>
       <r>    3.2509    1.0000 </r>
       <r>    3.2635    1.0000 </r>
       <r>    3.2909    1.0000 </r>
       <r>    3.3984    1.0000 </r>
       <r>    3.4047    1.0000 </r>
       <r>    3.4504    1.0000 </r>
       <r>    3.5335    1.0000 </r>
       <r>    3.5637    1.0000 </r>
       <r>    3.7370    1.0000 </r>
       <r>    3.7589    1.0000 </r>
       <r>    3.7767    1.0000 </r>
       <r>    3.7781    1.0000 </r>
       <r>    3.8885    1.0000 </r>
       <r>    3.9297    1.0000 </r>
       <r>    4.0785    1.0000 </r>
       <r>    4.1376    1.0000 </r>
       <r>    4.2641    1.0000 </r>
       <r>    4.3717    1.0000 </r>
       <r>    4.3846    1.0000 </r>
       <r>    4.4361    1.0000 </r>
       <r>    4.4499    1.0000 </r>
       <r>    4.4587    1.0000 </r>
       <r>    4.5130    1.0000 </r>
       <r>    4.5315    1.0000 </r>
       <r>    4.6120    1.0000 </r>
       <r>    4.7780    1.0000 </r>
       <r>    4.8775    1.0000 </r>
       <r>    4.8944    1.0000 </r>
       <r>    5.0802    1.0000 </r>
       <r>    5.6765    0.0000 </r>
       <r>    6.6631    0.0000 </r>
       <r>    6.9482    0.0000 </r>
       <r>    6.9615    0.0000 </r>
       <r>    7.1334    0.0000 </r>
       <r>    7.2122    0.0000 </r>
       <r>    7.4423    0.0000 </r>
       <r>    7.4454    0.0000 </r>
       <r>    7.4905    0.0000 </r>
       <r>    7.4986    0.0000 </r>
       <r>    7.6131    0.0000 </r>
       <r>    7.6146    0.0000 </r>
       <r>    7.6524    0.0000 </r>
       <r>    7.6912    0.0000 </r>
       <r>    7.8037    0.0000 </r>
       <r>    7.8150    0.0000 </r>
       <r>    8.1233    0.0000 </r>
       <r>    8.1473    0.0000 </r>
       <r>    8.2481    0.0000 </r>
       <r>    8.2888    0.0000 </r>
       <r>    8.3096    0.0000 </r>
       <r>    8.3147    0.0000 </r>
       <r>    8.3268    0.0000 </r>
       <r>    8.3389    0.0000 </r>
       <r>    8.3952    0.0000 </r>
       <r>    8.4054    0.0000 </r>
       <r>    8.4264    0.0000 </r>
       <r>    8.4493    0.0000 </r>
       <r>    8.6230    0.0000 </r>
       <r>    8.6643    0.0000 </r>
       <r>    8.6843    0.0000 </r>
       <r>    8.9176    0.0000 </r>
       <r>    8.9399    0.0000 </r>
       <r>    8.9405    0.0000 </r>
       <r>    8.9612    0.0000 </r>
       <r>    9.0351    0.0000 </r>
       <r>    9.0832    0.0000 </r>
      </set>
      <set comment="kpoint 7">
       <r>   -5.7862    1.0000 </r>
       <r>   -5.7422    1.0000 </r>
       <r>   -5.3335    1.0000 </r>
       <r>   -5.3090    1.0000 </r>
       <r>   -5.3090    1.0000 </r>
       <r>   -5.1423    1.0000 </r>
       <r>   -4.0059    1.0000 </r>
       <r>   -4.0000    1.0000 </r>
       <r>   -4.0000    1.0000 </r>
       <r>   -3.9972    1.0000 </r>
       <r>   -3.9667    1.0000 </r>
       <r>   -3.9270    1.0000 </r>
       <r>   -3.9270    1.0000 </r>
       <r>   -3.9042    1.0000 </r>
       <r>   -3.8098    1.0000 </r>
       <r>   -3.7933    1.0000 </r>
       <r>   -3.7933    1.0000 </r>
       <r>   -3.7865    1.0000 </r>
       <r>   -3.7119    1.0000 </r>
       <r>   -3.7119    1.0000 </r>
       <r>   -3.6790    1.0000 </r>
       <r>   -3.1466    1.0000 </r>
       <r>   -2.1061    1.0000 </r>
       <r>   -2.1036    1.0000 </r>
       <r>   -2.0200    1.0000 </r>
       <r>   -2.0086    1.0000 </r>
       <r>   -2.0086    1.0000 </r>
       <r>   -1.9887    1.0000 </r>
       <r>   -1.9416    1.0000 </r>
       <r>   -1.9280    1.0000 </r>
       <r>   -1.9280    1.0000 </r>
       <r>   -1.5892    1.0000 </r>
       <r>   -0.9315    1.0000 </r>
       <r>   -0.9315    1.0000 </r>
       <r>   -0.9264    1.0000 </r>
       <r>   -0.9033    1.0000 </r>
       <r>   -0.8059    1.0000 </r>
       <r>   -0.8059    1.0000 </r>
       <r>   -0.7980    1.0000 </r>
       <r>   -0.6645    1.0000 </r>
       <r>    0.0305    1.0000 </r>
       <r>    0.0395    1.0000 </r>
       <r>    0.0395    1.0000 </r>
       <r>    0.0634    1.0000 </r>
       <r>    0.0722    1.0000 </r>
       <r>    0.1799    1.0000 </r>
       <r>    0.1799    1.0000 </r>
       <r>    0.4482    1.0000 </r>
       <r>    1.9699    1.0000 </r>
       <r>    1.9906    1.0000 </r>
       <r>    1.9906    1.0000 </r>
       <r>    2.0369    1.0000 </r>
       <r>    2.0457    1.0000 </r>
       <r>    2.0470    1.0000 </r>
       <r>    2.0471    1.0000 </r>
       <r>    2.0471    1.0000 </r>
       <r>    2.0531    1.0000 </r>
       <r>    2.0531    1.0000 </r>
       <r>    2.0569    1.0000 </r>
       <r>    2.0826    1.0000 </r>
       <r>    2.1351    1.0000 </r>
       <r>    2.1383    1.0000 </r>
       <r>    2.1450    1.0000 </r>
       <r>    2.1450    1.0000 </r>
       <r>    2.1713    1.0000 </r>
       <r>    2.3275    1.0000 </r>
       <r>    2.3275    1.0000 </r>
       <r>    2.3610    1.0000 </r>
       <r>    2.8572    1.0000 </r>
       <r>    2.8572    1.0000 </r>
       <r>    2.9175    1.0000 </r>
       <r>    2.9260    1.0000 </r>
       <r>    2.9387    1.0000 </r>
       <r>    2.9387    1.0000 </r>
       <r>    2.9867    1.0000 </r>
       <r>    2.9977    1.0000 </r>
       <r>    2.9977    1.0000 </r>
       <r>    3.0281    1.0000 </r>
       <r>    3.2887    1.0000 </r>
       <r>    3.2940    1.0000 </r>
       <r>    3.2966    1.0000 </r>
       <r>    3.2966    1.0000 </r>
       <r>    3.3715    1.0000 </r>
       <r>    3.3919    1.0000 </r>
       <r>    3.3942    1.0000 </r>
       <r>    3.3942    1.0000 </r>
       <r>    3.4698    1.0000 </r>
       <r>    3.5599    1.0000 </r>
       <r>    3.5599    1.0000 </r>
       <r>    3.5826    1.0000 </r>
       <r>    3.6840    1.0000 </r>
       <r>    3.8973    1.0000 </r>
       <r>    3.8973    1.0000 </r>
       <r>    3.9003    1.0000 </r>
       <r>    3.9050    1.0000 </r>
       <r>    3.9435    1.0000 </r>
       <r>    3.9527    1.0000 </r>
       <r>    4.1345    1.0000 </r>
       <r>    4.1345    1.0000 </r>
       <r>    4.1419    1.0000 </r>
       <r>    4.5252    1.0000 </r>
       <r>    4.5252    1.0000 </r>
       <r>    4.6342    1.0000 </r>
       <r>    4.6342    1.0000 </r>
       <r>    5.1250    1.0000 </r>
       <r>    5.1481    1.0000 </r>
       <r>    5.3254    1.0000 </r>
       <r>    5.3254    1.0000 </r>
       <r>    6.4445    0.0000 </r>
       <r>    6.4532    0.0000 </r>
       <r>    7.4027    0.0000 </r>
       <r>    7.4364    0.0000 </r>
       <r>    7.7223    0.0000 </r>
       <r>    7.7257    0.0000 </r>
       <r>    7.7267    0.0000 </r>
       <r>    7.7267    0.0000 </r>
       <r>    7.7633    0.0000 </r>
       <r>    7.7633    0.0000 </r>
       <r>    7.8941    0.0000 </r>
       <r>    7.9805    0.0000 </r>
       <r>    8.4433    0.0000 </r>
       <r>    8.4433    0.0000 </r>
       <r>    8.4517    0.0000 </r>
       <r>    8.4530    0.0000 </r>
       <r>    8.4536    0.0000 </r>
       <r>    8.4559    0.0000 </r>
       <r>    8.4559    0.0000 </r>
       <r>    8.4655    0.0000 </r>
       <r>    8.5548    0.0000 </r>
       <r>    8.5600    0.0000 </r>
       <r>    8.5640    0.0000 </r>
       <r>    8.5640    0.0000 </r>
       <r>    8.6009    0.0000 </r>
       <r>    8.6438    0.0000 </r>
       <r>    8.6803    0.0000 </r>
       <r>    8.6803    0.0000 </r>
       <r>    8.7461    0.0000 </r>
       <r>    8.7461    0.0000 </r>
       <r>    8.7669    0.0000 </r>
       <r>    8.8944    0.0000 </r>
       <r>    9.2632    0.0000 </r>
       <r>    9.2687    0.0000 </r>
       <r>    9.2859    0.0000 </r>
       <r>    9.2863    0.0000 </r>
      </set>
      <set comment="kpoint 8">
       <r>   -5.6982    1.0000 </r>
       <r>   -5.6767    1.0000 </r>
       <r>   -5.6617    1.0000 </r>
       <r>   -5.5003    1.0000 </r>
       <r>   -4.7600    1.0000 </r>
       <r>   -4.7463    1.0000 </r>
       <r>   -4.7132    1.0000 </r>
       <r>   -4.6274    1.0000 </r>
       <r>   -3.9523    1.0000 </r>
       <r>   -3.9361    1.0000 </r>
       <r>   -3.9337    1.0000 </r>
       <r>   -3.9328    1.0000 </r>
       <r>   -3.8945    1.0000 </r>
       <r>   -3.8786    1.0000 </r>
       <r>   -3.8324    1.0000 </r>
       <r>   -3.8020    1.0000 </r>
       <r>   -3.6882    1.0000 </r>
       <r>   -3.6814    1.0000 </r>
       <r>   -3.6389    1.0000 </r>
       <r>   -3.3864    1.0000 </r>
       <r>   -3.0528    1.0000 </r>
       <r>   -3.0267    1.0000 </r>
       <r>   -2.9658    1.0000 </r>
       <r>   -2.7451    1.0000 </r>
       <r>   -2.0862    1.0000 </r>
       <r>   -2.0816    1.0000 </r>
       <r>   -2.0171    1.0000 </r>
       <r>   -2.0136    1.0000 </r>
       <r>   -1.9047    1.0000 </r>
[...]
        <r>  0.0005  0.0006  0.0000 </r>
       </set>
       <set comment="band 138">
        <r>  0.0000  0.0000  0.0000 </r>
        <r>  0.0014  0.0057  0.0000 </r>
        <r>  0.0014  0.0057  0.0000 </r>
        <r>  0.0006  0.0016  0.0000 </r>
        <r>  0.0006  0.0062  0.0000 </r>
        <r>  0.0014  0.0057  0.0000 </r>
        <r>  0.0006  0.0016  0.0000 </r>
        <r>  0.0014  0.0057  0.0000 </r>
        <r>  0.0006  0.0003  0.0000 </r>
        <r>  0.0014  0.0057  0.0000 </r>
        <r>  0.0006  0.0062  0.0000 </r>
        <r>  0.0006  0.0016  0.0000 </r>
        <r>  0.0006  0.0062  0.0000 </r>
        <r>  0.0006  0.0062  0.0000 </r>
        <r>  0.0005  0.0001  0.0000 </r>
        <r>  0.0014  0.0057  0.0000 </r>
        <r>  0.0051  0.0009  0.0000 </r>
        <r>  0.0005  0.0001  0.0000 </r>
        <r>  0.0014  0.0057  0.0000 </r>
        <r>  0.0006  0.0016  0.0000 </r>
        <r>  0.0006  0.0003  0.0000 </r>
        <r>  0.0014  0.0057  0.0000 </r>
        <r>  0.0005  0.0001  0.0000 </r>
        <r>  0.0051  0.0009  0.0000 </r>
        <r>  0.0006  0.0003  0.0000 </r>
        <r>  0.0005  0.0001  0.0000 </r>
        <r>  0.0006  0.0003  0.0000 </r>
        <r>  0.0000  0.0003  0.0000 </r>
        <r>  0.0005  0.0013  0.0000 </r>
        <r>  0.0005  0.0013  0.0000 </r>
        <r>  0.0018  0.0024  0.0000 </r>
        <r>  0.0008  0.0005  0.0000 </r>
        <r>  0.0005  0.0013  0.0000 </r>
        <r>  0.0018  0.0024  0.0000 </r>
        <r>  0.0005  0.0013  0.0000 </r>
        <r>  0.0003  0.0041  0.0000 </r>
        <r>  0.0005  0.0013  0.0000 </r>
        <r>  0.0008  0.0005  0.0000 </r>
        <r>  0.0018  0.0024  0.0000 </r>
        <r>  0.0008  0.0005  0.0000 </r>
        <r>  0.0008  0.0005  0.0000 </r>
        <r>  0.0007  0.0090  0.0000 </r>
        <r>  0.0005  0.0013  0.0000 </r>
        <r>  0.0000  0.0041  0.0000 </r>
        <r>  0.0007  0.0090  0.0000 </r>
        <r>  0.0005  0.0013  0.0000 </r>
        <r>  0.0018  0.0024  0.0000 </r>
        <r>  0.0003  0.0041  0.0000 </r>
        <r>  0.0005  0.0013  0.0000 </r>
        <r>  0.0007  0.0090  0.0000 </r>
        <r>  0.0000  0.0041  0.0000 </r>
        <r>  0.0003  0.0041  0.0000 </r>
        <r>  0.0007  0.0090  0.0000 </r>
        <r>  0.0003  0.0041  0.0000 </r>
       </set>
       <set comment="band 139">
        <r>  0.0000  0.0016  0.0000 </r>
        <r>  0.0000  0.0038  0.0000 </r>
        <r>  0.0000  0.0038  0.0000 </r>
        <r>  0.0013  0.0021  0.0000 </r>
        <r>  0.0022  0.0021  0.0000 </r>
        <r>  0.0000  0.0038  0.0000 </r>
        <r>  0.0013  0.0021  0.0000 </r>
        <r>  0.0000  0.0038  0.0000 </r>
        <r>  0.0028  0.0017  0.0000 </r>
        <r>  0.0000  0.0038  0.0000 </r>
        <r>  0.0022  0.0020  0.0000 </r>
        <r>  0.0013  0.0022  0.0000 </r>
        <r>  0.0023  0.0020  0.0000 </r>
        <r>  0.0023  0.0020  0.0000 </r>
        <r>  0.0000  0.0030  0.0000 </r>
        <r>  0.0000  0.0038  0.0000 </r>
        <r>  0.0000  0.0016  0.0000 </r>
        <r>  0.0000  0.0030  0.0000 </r>
        <r>  0.0000  0.0038  0.0000 </r>
        <r>  0.0013  0.0021  0.0000 </r>
        <r>  0.0028  0.0017  0.0000 </r>
        <r>  0.0000  0.0038  0.0000 </r>
        <r>  0.0000  0.0030  0.0000 </r>
        <r>  0.0000  0.0016  0.0000 </r>
        <r>  0.0028  0.0017  0.0000 </r>
        <r>  0.0000  0.0030  0.0000 </r>
        <r>  0.0028  0.0017  0.0000 </r>
        <r>  0.0005  0.0000  0.0000 </r>
        <r>  0.0002  0.0070  0.0000 </r>
        <r>  0.0002  0.0070  0.0000 </r>
        <r>  0.0000  0.0019  0.0000 </r>
        <r>  0.0000  0.0022  0.0000 </r>
        <r>  0.0002  0.0070  0.0000 </r>
        <r>  0.0000  0.0019  0.0000 </r>
        <r>  0.0002  0.0071  0.0000 </r>
        <r>  0.0000  0.0024  0.0000 </r>
        <r>  0.0002  0.0070  0.0000 </r>
        <r>  0.0000  0.0022  0.0000 </r>
        <r>  0.0000  0.0019  0.0000 </r>
        <r>  0.0001  0.0022  0.0000 </r>
        <r>  0.0001  0.0022  0.0000 </r>
        <r>  0.0000  0.0092  0.0000 </r>
        <r>  0.0002  0.0071  0.0000 </r>
        <r>  0.0006  0.0000  0.0000 </r>
        <r>  0.0000  0.0092  0.0000 </r>
        <r>  0.0002  0.0071  0.0000 </r>
        <r>  0.0000  0.0019  0.0000 </r>
        <r>  0.0000  0.0024  0.0000 </r>
        <r>  0.0002  0.0071  0.0000 </r>
        <r>  0.0000  0.0091  0.0000 </r>
        <r>  0.0005  0.0000  0.0000 </r>
        <r>  0.0000  0.0024  0.0000 </r>
        <r>  0.0000  0.0091  0.0000 </r>
        <r>  0.0000  0.0024  0.0000 </r>
       </set>
       <set comment="band 140">
        <r>  0.0000  0.0070  0.0000 </r>
        <r>  0.0002  0.0023  0.0000 </r>
        <r>  0.0002  0.0023  0.0000 </r>
        <r>  0.0002  0.0024  0.0000 </r>
        <r>  0.0005  0.0044  0.0000 </r>
        <r>  0.0002  0.0023  0.0000 </r>
        <r>  0.0002  0.0024  0.0000 </r>
        <r>  0.0003  0.0023  0.0000 </r>
        <r>  0.0001  0.0058  0.0000 </r>
        <r>  0.0002  0.0023  0.0000 </r>
        <r>  0.0005  0.0045  0.0000 </r>
        <r>  0.0002  0.0023  0.0000 </r>
        <r>  0.0005  0.0044  0.0000 </r>
        <r>  0.0005  0.0045  0.0000 </r>
        <r>  0.0015  0.0027  0.0000 </r>
        <r>  0.0002  0.0024  0.0000 </r>
        <r>  0.0000  0.0015  0.0000 </r>
        <r>  0.0014  0.0027  0.0000 </r>
        <r>  0.0002  0.0023  0.0000 </r>
        <r>  0.0002  0.0023  0.0000 </r>
        <r>  0.0002  0.0058  0.0000 </r>
        <r>  0.0002  0.0023  0.0000 </r>
        <r>  0.0014  0.0027  0.0000 </r>
        <r>  0.0000  0.0015  0.0000 </r>
        <r>  0.0001  0.0058  0.0000 </r>
        <r>  0.0014  0.0027  0.0000 </r>
        <r>  0.0002  0.0058  0.0000 </r>
        <r>  0.0000  0.0082  0.0000 </r>
        <r>  0.0001  0.0027  0.0000 </r>
        <r>  0.0001  0.0027  0.0000 </r>
        <r>  0.0020  0.0024  0.0000 </r>
        <r>  0.0001  0.0019  0.0000 </r>
        <r>  0.0001  0.0027  0.0000 </r>
        <r>  0.0020  0.0024  0.0000 </r>
        <r>  0.0001  0.0027  0.0000 </r>
        <r>  0.0019  0.0014  0.0000 </r>
        <r>  0.0001  0.0027  0.0000 </r>
        <r>  0.0001  0.0020  0.0000 </r>
        <r>  0.0021  0.0024  0.0000 </r>
        <r>  0.0001  0.0019  0.0000 </r>
        <r>  0.0001  0.0019  0.0000 </r>
        <r>  0.0000  0.0019  0.0000 </r>
        <r>  0.0001  0.0027  0.0000 </r>
        <r>  0.0000  0.0103  0.0000 </r>
        <r>  0.0000  0.0019  0.0000 </r>
        <r>  0.0001  0.0027  0.0000 </r>
        <r>  0.0020  0.0024  0.0000 </r>
        <r>  0.0018  0.0014  0.0000 </r>
        <r>  0.0001  0.0027  0.0000 </r>
        <r>  0.0000  0.0019  0.0000 </r>
        <r>  0.0000  0.0103  0.0000 </r>
        <r>  0.0019  0.0014  0.0000 </r>
        <r>  0.0000  0.0019  0.0000 </r>
        <r>  0.0018  0.0014  0.0000 </r>
       </set>
       <set comment="band 141">
        <r>  0.0000  0.0000  0.0000 </r>
        <r>  0.0005  0.0062  0.0000 </r>
        <r>  0.0005  0.0062  0.0000 </r>
        <r>  0.0003  0.0040  0.0000 </r>
        <r>  0.0001  0.0067  0.0000 </r>
        <r>  0.0005  0.0062  0.0000 </r>
        <r>  0.0003  0.0039  0.0000 </r>
        <r>  0.0005  0.0062  0.0000 </r>
        <r>  0.0001  0.0034  0.0000 </r>
        <r>  0.0005  0.0062  0.0000 </r>
        <r>  0.0001  0.0067  0.0000 </r>
        <r>  0.0003  0.0039  0.0000 </r>
        <r>  0.0001  0.0067  0.0000 </r>
        <r>  0.0001  0.0067  0.0000 </r>
        <r>  0.0007  0.0095  0.0000 </r>
        <r>  0.0005  0.0062  0.0000 </r>
        <r>  0.0000  0.0005  0.0000 </r>
        <r>  0.0007  0.0095  0.0000 </r>
        <r>  0.0005  0.0062  0.0000 </r>
        <r>  0.0003  0.0039  0.0000 </r>
        <r>  0.0001  0.0033  0.0000 </r>
        <r>  0.0005  0.0062  0.0000 </r>
        <r>  0.0007  0.0095  0.0000 </r>
        <r>  0.0000  0.0006  0.0000 </r>
        <r>  0.0001  0.0033  0.0000 </r>
        <r>  0.0007  0.0095  0.0000 </r>
        <r>  0.0001  0.0033  0.0000 </r>
        <r>  0.0061  0.0000  0.0000 </r>
        <r>  0.0006  0.0030  0.0000 </r>
        <r>  0.0006  0.0030  0.0000 </r>
        <r>  0.0023  0.0038  0.0000 </r>
        <r>  0.0007  0.0024  0.0000 </r>
        <r>  0.0006  0.0030  0.0000 </r>
        <r>  0.0022  0.0038  0.0000 </r>
        <r>  0.0006  0.0030  0.0000 </r>
        <r>  0.0014  0.0039  0.0000 </r>
        <r>  0.0006  0.0030  0.0000 </r>
        <r>  0.0007  0.0024  0.0000 </r>
        <r>  0.0022  0.0039  0.0000 </r>
        <r>  0.0007  0.0024  0.0000 </r>
        <r>  0.0007  0.0024  0.0000 </r>
        <r>  0.0004  0.0030  0.0000 </r>
        <r>  0.0006  0.0030  0.0000 </r>
        <r>  0.0031  0.0000  0.0000 </r>
        <r>  0.0004  0.0030  0.0000 </r>
        <r>  0.0006  0.0030  0.0000 </r>
        <r>  0.0023  0.0038  0.0000 </r>
        <r>  0.0013  0.0039  0.0000 </r>
        <r>  0.0006  0.0030  0.0000 </r>
        <r>  0.0004  0.0030  0.0000 </r>
        <r>  0.0031  0.0000  0.0000 </r>
        <r>  0.0013  0.0039  0.0000 </r>
        <r>  0.0004  0.0030  0.0000 </r>
        <r>  0.0014  0.0039  0.0000 </r>
       </set>
       <set comment="band 142">
        <r>  0.0000  0.0212  0.0000 </r>
        <r>  0.0001  0.0020  0.0000 </r>
        <r>  0.0001  0.0021  0.0000 </r>
        <r>  0.0009  0.0090  0.0000 </r>
        <r>  0.0006  0.0043  0.0000 </r>
        <r>  0.0001  0.0021  0.0000 </r>
        <r>  0.0009  0.0089  0.0000 </r>
        <r>  0.0001  0.0021  0.0000 </r>
        <r>  0.0000  0.0067  0.0000 </r>
        <r>  0.0002  0.0020  0.0000 </r>
        <r>  0.0007  0.0043  0.0000 </r>
        <r>  0.0009  0.0087  0.0000 </r>
        <r>  0.0007  0.0045  0.0000 </r>
        <r>  0.0007  0.0044  0.0000 </r>
        <r>  0.0007  0.0038  0.0000 </r>
        <r>  0.0002  0.0022  0.0000 </r>
        <r>  0.0000  0.0087  0.0000 </r>
        <r>  0.0007  0.0038  0.0000 </r>
        <r>  0.0002  0.0019  0.0000 </r>
        <r>  0.0009  0.0092  0.0000 </r>
        <r>  0.0000  0.0065  0.0000 </r>
        <r>  0.0001  0.0020  0.0000 </r>
        <r>  0.0007  0.0041  0.0000 </r>
        <r>  0.0000  0.0087  0.0000 </r>
        <r>  0.0000  0.0064  0.0000 </r>
        <r>  0.0007  0.0040  0.0000 </r>
        <r>  0.0000  0.0066  0.0000 </r>
        <r>  0.0000  0.0040  0.0000 </r>
        <r>  0.0038  0.0021  0.0000 </r>
        <r>  0.0038  0.0019  0.0000 </r>
        <r>  0.0000  0.0020  0.0000 </r>
        <r>  0.0000  0.0058  0.0000 </r>
        <r>  0.0037  0.0019  0.0000 </r>
        <r>  0.0000  0.0021  0.0000 </r>
        <r>  0.0039  0.0019  0.0000 </r>
        <r>  0.0003  0.0040  0.0000 </r>
        <r>  0.0036  0.0020  0.0000 </r>
        <r>  0.0000  0.0058  0.0000 </r>
        <r>  0.0000  0.0021  0.0000 </r>
        <r>  0.0000  0.0058  0.0000 </r>
        <r>  0.0000  0.0058  0.0000 </r>
        <r>  0.0012  0.0007  0.0000 </r>
        <r>  0.0037  0.0019  0.0000 </r>
        <r>  0.0001  0.0060  0.0000 </r>
        <r>  0.0012  0.0008  0.0000 </r>
        <r>  0.0038  0.0021  0.0000 </r>
        <r>  0.0000  0.0020  0.0000 </r>
        <r>  0.0002  0.0040  0.0000 </r>
        <r>  0.0038  0.0021  0.0000 </r>
        <r>  0.0011  0.0007  0.0000 </r>
        <r>  0.0001  0.0060  0.0000 </r>
        <r>  0.0002  0.0040  0.0000 </r>
        <r>  0.0011  0.0007  0.0000 </r>
        <r>  0.0003  0.0040  0.0000 </r>
       </set>
       <set comment="band 143">
        <r>  0.0108  0.0000  0.0000 </r>
        <r>  0.0007  0.0027  0.0000 </r>
        <r>  0.0007  0.0028  0.0000 </r>
        <r>  0.0041  0.0034  0.0000 </r>
        <r>  0.0004  0.0004  0.0000 </r>
        <r>  0.0007  0.0028  0.0000 </r>
        <r>  0.0041  0.0034  0.0000 </r>
        <r>  0.0007  0.0027  0.0000 </r>
        <r>  0.0005  0.0015  0.0000 </r>
        <r>  0.0007  0.0027  0.0000 </r>
        <r>  0.0005  0.0004  0.0000 </r>
        <r>  0.0040  0.0033  0.0000 </r>
        <r>  0.0005  0.0004  0.0000 </r>
        <r>  0.0005  0.0004  0.0000 </r>
        <r>  0.0015  0.0063  0.0000 </r>
        <r>  0.0007  0.0027  0.0000 </r>
        <r>  0.0018  0.0000  0.0000 </r>
        <r>  0.0015  0.0064  0.0000 </r>
        <r>  0.0007  0.0027  0.0000 </r>
        <r>  0.0042  0.0034  0.0000 </r>
        <r>  0.0005  0.0015  0.0000 </r>
        <r>  0.0007  0.0027  0.0000 </r>
        <r>  0.0016  0.0064  0.0000 </r>
        <r>  0.0017  0.0000  0.0000 </r>
        <r>  0.0005  0.0014  0.0000 </r>
        <r>  0.0016  0.0064  0.0000 </r>
        <r>  0.0005  0.0015  0.0000 </r>
        <r>  0.0000  0.0000  0.0000 </r>
        <r>  0.0004  0.0108  0.0000 </r>
        <r>  0.0004  0.0107  0.0000 </r>
        <r>  0.0003  0.0009  0.0000 </r>
        <r>  0.0001  0.0058  0.0000 </r>
        <r>  0.0004  0.0107  0.0000 </r>
        <r>  0.0003  0.0009  0.0000 </r>
        <r>  0.0003  0.0108  0.0000 </r>
        <r>  0.0010  0.0036  0.0000 </r>
        <r>  0.0003  0.0108  0.0000 </r>
        <r>  0.0001  0.0057  0.0000 </r>
        <r>  0.0003  0.0009  0.0000 </r>
        <r>  0.0001  0.0057  0.0000 </r>
        <r>  0.0001  0.0058  0.0000 </r>
        <r>  0.0000  0.0039  0.0000 </r>
        <r>  0.0003  0.0107  0.0000 </r>
        <r>  0.0000  0.0007  0.0000 </r>
        <r>  0.0000  0.0039  0.0000 </r>
        <r>  0.0003  0.0108  0.0000 </r>
        <r>  0.0003  0.0009  0.0000 </r>
        <r>  0.0010  0.0036  0.0000 </r>
        <r>  0.0004  0.0108  0.0000 </r>
        <r>  0.0000  0.0038  0.0000 </r>
        <r>  0.0000  0.0007  0.0000 </r>
        <r>  0.0011  0.0036  0.0000 </r>
        <r>  0.0000  0.0038  0.0000 </r>
        <r>  0.0010  0.0036  0.0000 </r>
       </set>
       <set comment="band 144">
        <r>  0.0015  0.0086  0.0000 </r>
        <r>  0.0010  0.0032  0.0000 </r>
        <r>  0.0004  0.0050  0.0000 </r>
        <r>  0.0001  0.0079  0.0000 </r>
        <r>  0.0006  0.0052  0.0000 </r>
        <r>  0.0000  0.0028  0.0000 </r>
        <r>  0.0017  0.0070  0.0000 </r>
        <r>  0.0001  0.0020  0.0000 </r>
        <r>  0.0008  0.0044  0.0000 </r>
        <r>  0.0002  0.0017  0.0000 </r>
        <r>  0.0004  0.0118  0.0000 </r>
        <r>  0.0016  0.0052  0.0000 </r>
        <r>  0.0015  0.0099  0.0000 </r>
        <r>  0.0008  0.0085  0.0000 </r>
        <r>  0.0008  0.0031  0.0000 </r>
        <r>  0.0004  0.0050  0.0000 </r>
        <r>  0.0018  0.0046  0.0000 </r>
        <r>  0.0009  0.0068  0.0000 </r>
        <r>  0.0004  0.0030  0.0000 </r>
        <r>  0.0006  0.0054  0.0000 </r>
        <r>  0.0019  0.0028  0.0000 </r>
        <r>  0.0008  0.0040  0.0000 </r>
        <r>  0.0003  0.0071  0.0000 </r>
        <r>  0.0027  0.0044  0.0000 </r>
        <r>  0.0010  0.0017  0.0000 </r>
        <r>  0.0002  0.0030  0.0000 </r>
        <r>  0.0000  0.0053  0.0000 </r>
        <r>  0.0000  0.0002  0.0000 </r>
        <r>  0.0062  0.0021  0.0000 </r>
        <r>  0.0017  0.0032  0.0000 </r>
        <r>  0.0009  0.0028  0.0000 </r>
        <r>  0.0055  0.0006  0.0000 </r>
        <r>  0.0005  0.0013  0.0000 </r>
        <r>  0.0008  0.0033  0.0000 </r>
        <r>  0.0011  0.0021  0.0000 </r>
        <r>  0.0046  0.0035  0.0000 </r>
        <r>  0.0010  0.0015  0.0000 </r>
        <r>  0.0029  0.0012  0.0000 </r>
        <r>  0.0014  0.0034  0.0000 </r>
        <r>  0.0044  0.0017  0.0000 </r>
        <r>  0.0034  0.0012  0.0000 </r>
        <r>  0.0002  0.0035  0.0000 </r>
        <r>  0.0018  0.0036  0.0000 </r>
        <r>  0.0000  0.0038  0.0000 </r>
        <r>  0.0010  0.0017  0.0000 </r>
        <r>  0.0014  0.0028  0.0000 </r>
        <r>  0.0014  0.0027  0.0000 </r>
        <r>  0.0029  0.0042  0.0000 </r>
        <r>  0.0073  0.0035  0.0000 </r>
        <r>  0.0001  0.0027  0.0000 </r>
        <r>  0.0002  0.0037  0.0000 </r>
        <r>  0.0039  0.0042  0.0000 </r>
        <r>  0.0013  0.0019  0.0000 </r>
        <r>  0.0020  0.0034  0.0000 </r>
       </set>
      </set>
     </set>
    </set>
   </array>
  </projected>
 </calculation>
 <structure name="finalpos" >
  <crystal>
   <varray name="basis" >
    <v>       9.97646553       0.00000000       5.75991507 </v>
    <v>       3.32548851       9.40590192       5.75991507 </v>
    <v>       0.00000000       0.00000000      11.51983014 </v>
   </varray>
   <i name="volume">   1080.99386112 </i>
   <varray name="rec_basis" >
    <v>       0.10023590      -0.03543874       0.00000000 </v>
    <v>       0.00000000       0.10631623       0.00000000 </v>
    <v>      -0.05011795      -0.03543874       0.08680684 </v>
   </varray>
  </crystal>
  <varray name="positions" >
   <v>       0.29166667       0.29166667       0.29166667 </v>
   <v>       0.29166667       0.29166667       0.62500000 </v>
   <v>       0.29166667       0.29166667       0.95833333 </v>
   <v>       0.29166667       0.62500000       0.29166667 </v>
   <v>       0.29166667       0.62500000       0.62500000 </v>
   <v>       0.29166667       0.62500000       0.95833333 </v>
   <v>       0.29166667       0.95833333       0.29166667 </v>
   <v>       0.29166667       0.95833333       0.62500000 </v>
   <v>       0.29166667       0.95833333       0.95833333 </v>
   <v>       0.62500000       0.29166667       0.29166667 </v>
   <v>       0.62500000       0.29166667       0.62500000 </v>
   <v>       0.62500000       0.29166667       0.95833333 </v>
   <v>       0.62500000       0.62500000       0.29166667 </v>
   <v>       0.62500000       0.62500000       0.62500000 </v>
   <v>       0.62500000       0.62500000       0.95833333 </v>
   <v>       0.62500000       0.95833333       0.29166667 </v>
   <v>       0.62500000       0.95833333       0.62500000 </v>
   <v>       0.62500000       0.95833333       0.95833333 </v>
   <v>       0.95833333       0.29166667       0.29166667 </v>
   <v>       0.95833333       0.29166667       0.62500000 </v>
   <v>       0.95833333       0.29166667       0.95833333 </v>
   <v>       0.95833333       0.62500000       0.29166667 </v>
   <v>       0.95833333       0.62500000       0.62500000 </v>
   <v>       0.95833333       0.62500000       0.95833333 </v>
   <v>       0.95833333       0.95833333       0.29166667 </v>
   <v>       0.95833333       0.95833333       0.62500000 </v>
   <v>       0.95833333       0.95833333       0.95833333 </v>
   <v>       0.04166667       0.04166667       0.04166667 </v>
   <v>       0.04166667       0.04166667       0.37500000 </v>
   <v>       0.04166667       0.04166667       0.70833333 </v>
   <v>       0.04166667       0.37500000       0.04166667 </v>
   <v>       0.04166667       0.37500000       0.37500000 </v>
   <v>       0.04166667       0.37500000       0.70833333 </v>
   <v>       0.04166667       0.70833333       0.04166667 </v>
   <v>       0.04166667       0.70833333       0.37500000 </v>
   <v>       0.04166667       0.70833333       0.70833333 </v>
   <v>       0.37500000       0.04166667       0.04166667 </v>
   <v>       0.37500000       0.04166667       0.37500000 </v>
   <v>       0.37500000       0.04166667       0.70833333 </v>
   <v>       0.37500000       0.37500000       0.04166667 </v>
   <v>       0.37500000       0.37500000       0.37500000 </v>
   <v>       0.37500000       0.37500000       0.70833333 </v>
   <v>       0.37500000       0.70833333       0.04166667 </v>
   <v>       0.37500000       0.70833333       0.37500000 </v>
   <v>       0.37500000       0.70833333       0.70833333 </v>
   <v>       0.70833333       0.04166667       0.04166667 </v>
   <v>       0.70833333       0.04166667       0.37500000 </v>
   <v>       0.70833333       0.04166667       0.70833333 </v>
   <v>       0.70833333       0.37500000       0.04166667 </v>
   <v>       0.70833333       0.37500000       0.37500000 </v>
   <v>       0.70833333       0.37500000       0.70833333 </v>
   <v>       0.70833333       0.70833333       0.04166667 </v>
   <v>       0.70833333       0.70833333       0.37500000 </v>
   <v>       0.70833333       0.70833333       0.70833333 </v>
  </varray>
 </structure>
</modeling>
