<?xml version="1.0" encoding="ISO-8859-1"?>
<modeling>
 <generator>
  <i name="program" type="string">vasp </i>
  <i name="version" type="string">5.4.4.18Apr17-6-g9f103f2a35  </i>
  <i name="subversion" type="string">(build Jun 19 2019 10:34:07) complex            parallel </i>
  <i name="platform" type="string">LB-5.4 </i>
  <i name="date" type="string">2023 05 16 </i>
  <i name="time" type="string">11:52:09 </i>
 </generator>
 <incar>
  <i type="string" name="SYSTEM"> Si</i>
  <i type="string" name="PREC">normal</i>
  <i type="string" name="ALGO"> Normal</i>
  <i type="int" name="ISPIN">     1</i>
  <i name="AMIX">      0.20000000</i>
  <i type="int" name="NELM">   200</i>
  <i type="int" name="IBRION">     2</i>
  <i name="EDIFF">      0.00000100</i>
  <i name="EDIFFG">     -0.05000000</i>
  <i type="int" name="NSW">     0</i>
  <i type="int" name="ISIF">     2</i>
  <i type="int" name="ISYM">     2</i>
  <i name="ENCUT">    550.00000000</i>
  <i type="logical" name="LREAL"> F  </i>
  <i type="int" name="ISMEAR">     0</i>
  <i name="SIGMA">      0.05000000</i>
  <i type="logical" name="LWAVE"> T  </i>
  <i type="logical" name="LCHARG"> T  </i>
  <i type="int" name="LORBIT">    10</i>
  <v type="int" name="KPOINT_BSE">    -1     0     0     0</v>
  <i type="int" name="NELM">   200</i>
 </incar>
 <structure name="primitive_cell" >
  <crystal>
   <varray name="basis" >
    <v>       3.32548851       0.00000000       1.91997169 </v>
    <v>       1.10849617       3.13530064       1.91997169 </v>
    <v>       0.00000000       0.00000000       3.83994338 </v>
   </varray>
   <i name="volume">     40.03680967 </i>
   <varray name="rec_basis" >
    <v>       0.30070770      -0.10631623       0.00000000 </v>
    <v>       0.00000000       0.31894868       0.00000000 </v>
    <v>      -0.15035385      -0.10631623       0.26042051 </v>
   </varray>
  </crystal>
  <varray name="positions" >
   <v>      -0.12500000      -0.12500000      -0.12500000 </v>
   <v>       0.12500000       0.12500000       0.12500000 </v>
  </varray>
 </structure>
 <varray name="primitive_index" >
  <v type="int" >        1 </v>
  <v type="int" >       32 </v>
 </varray>
 <kpoints>
  <generation param="Gamma">
   <v type="int" name="divisions">       4        4        4 </v>
   <v name="usershift">      0.00000000       0.00000000       0.00000000 </v>
   <v name="genvec1">      0.25000000       0.00000000       0.00000000 </v>
   <v name="genvec2">      0.00000000       0.25000000       0.00000000 </v>
   <v name="genvec3">     -0.00000000      -0.00000000       0.25000000 </v>
   <v name="shift">      0.00000000       0.00000000       0.00000000 </v>
  </generation>
  <varray name="kpointlist" >
   <v>       0.00000000       0.00000000       0.00000000 </v>
   <v>       0.25000000       0.00000000       0.00000000 </v>
   <v>       0.50000000       0.00000000       0.00000000 </v>
   <v>       0.25000000       0.25000000       0.00000000 </v>
   <v>       0.50000000       0.25000000       0.00000000 </v>
   <v>      -0.25000000       0.25000000       0.00000000 </v>
   <v>       0.50000000       0.50000000       0.00000000 </v>
   <v>      -0.25000000       0.50000000       0.25000000 </v>
  </varray>
  <varray name="weights" >
   <v>       0.01562500 </v>
   <v>       0.12500000 </v>
   <v>       0.06250000 </v>
   <v>       0.09375000 </v>
   <v>       0.37500000 </v>
   <v>       0.18750000 </v>
   <v>       0.04687500 </v>
   <v>       0.09375000 </v>
  </varray>
 </kpoints>
 <parameters>
  <separator name="general" >
   <i type="string" name="SYSTEM">Si</i>
   <i type="logical" name="LCOMPAT"> F  </i>
  </separator>
  <separator name="electronic" >
   <i type="string" name="PREC">normal</i>
   <i name="ENMAX">    550.00000000</i>
   <i name="ENAUG">    322.06900000</i>
   <i name="EDIFF">      0.00000100</i>
   <i type="int" name="IALGO">    38</i>
   <i type="int" name="IWAVPR">    10</i>
   <i type="int" name="NBANDS">   144</i>
   <i name="NELECT">    216.00000000</i>
   <i type="int" name="TURBO">     0</i>
   <i type="int" name="IRESTART">     0</i>
   <i type="int" name="NREBOOT">     0</i>
   <i type="int" name="NMIN">     0</i>
   <i name="EREF">      0.00000000</i>
   <separator name="electronic smearing" >
    <i type="int" name="ISMEAR">     0</i>
    <i name="SIGMA">      0.05000000</i>
    <i name="KSPACING">      0.50000000</i>
    <i type="logical" name="KGAMMA"> T  </i>
   </separator>
   <separator name="electronic projectors" >
    <i type="logical" name="LREAL"> F  </i>
    <v name="ROPT">      0.00000000</v>
    <i type="int" name="LMAXPAW">  -100</i>
    <i type="int" name="LMAXMIX">     2</i>
    <i type="logical" name="NLSPLINE"> F  </i>
   </separator>
   <separator name="electronic startup" >
    <i type="int" name="ISTART">     0</i>
    <i type="int" name="ICHARG">     2</i>
    <i type="int" name="INIWAV">     1</i>
   </separator>
   <separator name="electronic spin" >
    <i type="int" name="ISPIN">     1</i>
    <i type="logical" name="LNONCOLLINEAR"> F  </i>
    <v name="MAGMOM">      1.00000000      1.00000000      1.00000000      1.00000000      1.00000000      1.00000000      1.00000000      1.00000000      1.00000000      1.00000000      1.00000000      1.00000000      1.00000000      1.00000000      1.00000000      1.00000000      1.00000000      1.00000000      1.00000000      1.00000000
      1.00000000      1.00000000      1.00000000      1.00000000      1.00000000      1.00000000      1.00000000      1.00000000      1.00000000      1.00000000      1.00000000      1.00000000      1.00000000      1.00000000      1.00000000      1.00000000      1.00000000      1.00000000      1.00000000      1.00000000
      1.00000000      1.00000000      1.00000000      1.00000000      1.00000000      1.00000000      1.00000000      1.00000000      1.00000000      1.00000000      1.00000000      1.00000000      1.00000000      1.00000000</v>
    <i name="NUPDOWN">     -1.00000000</i>
    <i type="logical" name="LSORBIT"> F  </i>
    <v name="SAXIS">      0.00000000      0.00000000      1.00000000</v>
    <i type="logical" name="LSPIRAL"> F  </i>
    <v name="QSPIRAL">      0.00000000      0.00000000      0.00000000</v>
    <i type="logical" name="LZEROZ"> F  </i>
   </separator>
   <separator name="electronic exchange-correlation" >
    <i type="logical" name="LASPH"> F  </i>
    <i type="logical" name="LMETAGGA"> F  </i>
   </separator>
   <separator name="electronic convergence" >
    <i type="int" name="NELM">   200</i>
    <i type="int" name="NELMDL">    -5</i>
    <i type="int" name="NELMIN">     2</i>
    <i name="ENINI">    550.00000000</i>
    <separator name="electronic convergence detail" >
     <i type="logical" name="LDIAG"> T  </i>
     <i type="logical" name="LSUBROT"> F  </i>
     <i name="WEIMIN">      0.00000000</i>
     <i name="EBREAK">      0.00000000</i>
     <i name="DEPER">      0.30000000</i>
     <i type="int" name="NRMM">     4</i>
     <i name="TIME">      0.40000000</i>
    </separator>
   </separator>
   <separator name="electronic mixer" >
    <i name="AMIX">      0.20000000</i>
    <i name="BMIX">      1.00000000</i>
    <i name="AMIN">      0.10000000</i>
    <i name="AMIX_MAG">      0.80000000</i>
    <i name="BMIX_MAG">      1.00000000</i>
    <separator name="electronic mixer details" >
     <i type="int" name="IMIX">     4</i>
     <i type="logical" name="MIXFIRST"> F  </i>
     <i type="int" name="MAXMIX">   -45</i>
     <i name="WC">    100.00000000</i>
     <i type="int" name="INIMIX">     1</i>
     <i type="int" name="MIXPRE">     1</i>
     <i type="int" name="MREMOVE">     5</i>
    </separator>
   </separator>
   <separator name="electronic dipolcorrection" >
    <i type="logical" name="LDIPOL"> F  </i>
    <i type="logical" name="LMONO"> F  </i>
    <i type="int" name="IDIPOL">     0</i>
    <i name="EPSILON">      1.00000000</i>
    <v name="DIPOL">   -100.00000000   -100.00000000   -100.00000000</v>
    <i name="EFIELD">      0.00000000</i>
   </separator>
  </separator>
  <separator name="grids" >
   <i type="int" name="NGX">    70</i>
   <i type="int" name="NGY">    70</i>
   <i type="int" name="NGZ">    70</i>
   <i type="int" name="NGXF">   140</i>
   <i type="int" name="NGYF">   140</i>
   <i type="int" name="NGZF">   140</i>
   <i type="logical" name="ADDGRID"> F  </i>
  </separator>
  <separator name="ionic" >
   <i type="int" name="NSW">     0</i>
   <i type="int" name="IBRION">    -1</i>
   <i type="int" name="MDALGO">     0</i>
   <i type="int" name="ISIF">     2</i>
   <i name="PSTRESS">      0.00000000</i>
   <i name="EDIFFG">     -0.05000000</i>
   <i type="int" name="NFREE">     1</i>
   <i name="POTIM">      0.50000000</i>
   <i name="SMASS">     -3.00000000</i>
   <i name="SCALEE">      1.00000000</i>
  </separator>
  <separator name="ionic md" >
   <i name="TEBEG">      0.00010000</i>
   <i name="TEEND">      0.00010000</i>
   <i type="int" name="NBLOCK">     1</i>
   <i type="int" name="KBLOCK">     1</i>
   <i type="int" name="NPACO">   256</i>
   <i name="APACO">     16.00000000</i>
  </separator>
  <separator name="symmetry" >
   <i type="int" name="ISYM">     2</i>
   <i name="SYMPREC">      0.00001000</i>
  </separator>
  <separator name="dos" >
   <i type="int" name="LORBIT">    10</i>
   <v name="RWIGS">     -1.00000000</v>
   <i type="int" name="NEDOS">   301</i>
   <i name="EMIN">     10.00000000</i>
   <i name="EMAX">    -10.00000000</i>
   <i name="EFERMI">      0.00000000</i>
  </separator>
  <separator name="writing" >
   <i type="int" name="NWRITE">     2</i>
   <i type="logical" name="LWAVE"> T  </i>
   <i type="logical" name="LDOWNSAMPLE"> F  </i>
   <i type="logical" name="LCHARG"> T  </i>
   <i type="logical" name="LPARD"> F  </i>
   <i type="logical" name="LVTOT"> F  </i>
   <i type="logical" name="LVHAR"> F  </i>
   <i type="logical" name="LELF"> F  </i>
   <i type="logical" name="LOPTICS"> F  </i>
   <v name="STM">      0.00000000      0.00000000      0.00000000      0.00000000      0.00000000      0.00000000      0.00000000</v>
  </separator>
  <separator name="performance" >
   <i type="int" name="NPAR">    24</i>
   <i type="int" name="NSIM">     4</i>
   <i type="int" name="NBLK">    -1</i>
   <i type="logical" name="LPLANE"> T  </i>
   <i type="logical" name="LSCALAPACK"> T  </i>
   <i type="logical" name="LSCAAWARE"> F  </i>
   <i type="logical" name="LSCALU"> F  </i>
   <i type="logical" name="LASYNC"> F  </i>
   <i type="logical" name="LORBITALREAL"> F  </i>
  </separator>
  <separator name="miscellaneous" >
   <i type="int" name="IDIOT">     3</i>
   <i type="int" name="ISPECIAL">     0</i>
   <i type="logical" name="LMUSIC"> F  </i>
   <v name="POMASS">     28.08500000</v>
   <v name="DARWINR">      0.00000000</v>
   <v name="DARWINV">      1.00000000</v>
   <i type="logical" name="LCORR"> T  </i>
  </separator>
  <i type="logical" name="GGA_COMPAT"> T  </i>
  <i type="logical" name="LBERRY"> F  </i>
  <i type="int" name="ICORELEVEL">     0</i>
  <i type="logical" name="LDAU"> F  </i>
  <i type="int" name="I_CONSTRAINED_M">     0</i>
  <separator name="electronic exchange-correlation" >
   <i type="string" name="GGA">--</i>
   <i type="int" name="VOSKOWN">     0</i>
   <i type="logical" name="LHFCALC"> F  </i>
   <i type="string" name="PRECFOCK"></i>
   <i type="logical" name="LSYMGRAD"> F  </i>
   <i type="logical" name="LHFONE"> F  </i>
   <i type="logical" name="LRHFCALC"> F  </i>
   <i type="logical" name="LTHOMAS"> F  </i>
   <i type="logical" name="LMODELHF"> F  </i>
   <i name="ENCUT4O">     -1.00000000</i>
   <i type="int" name="EXXOEP">     0</i>
   <i type="int" name="FOURORBIT">     0</i>
   <i name="AEXX">      0.00000000</i>
   <i name="HFALPHA">      0.00000000</i>
   <i name="MCALPHA">      0.00000000</i>
   <i name="ALDAX">      1.00000000</i>
   <i name="AGGAX">      1.00000000</i>
   <i name="ALDAC">      1.00000000</i>
   <i name="AGGAC">      1.00000000</i>
   <i type="int" name="NKREDX">     1</i>
   <i type="int" name="NKREDY">     1</i>
   <i type="int" name="NKREDZ">     1</i>
   <i type="logical" name="SHIFTRED"> F  </i>
   <i type="logical" name="ODDONLY"> F  </i>
   <i type="logical" name="EVENONLY"> F  </i>
   <i type="int" name="LMAXFOCK">     0</i>
   <i type="int" name="NMAXFOCKAE">     0</i>
   <i type="logical" name="LFOCKAEDFT"> F  </i>
   <i name="HFSCREEN">      0.00000000</i>
   <i name="HFSCREENC">      0.00000000</i>
   <i type="int" name="NBANDSGWLOW">     0</i>
  </separator>
  <separator name="vdW DFT" >
   <i type="logical" name="LUSE_VDW"> F  </i>
   <i name="Zab_VDW">     -0.84910000</i>
   <i name="PARAM1">      0.12340000</i>
   <i name="PARAM2">      1.00000000</i>
   <i name="PARAM3">      0.00000000</i>
  </separator>
  <separator name="model GW" >
   <i type="int" name="MODEL_GW">     0</i>
   <i name="MODEL_EPS0">     12.01104290</i>
   <i name="MODEL_ALPHA">      1.00000000</i>
  </separator>
  <separator name="linear response parameters" >
   <i type="logical" name="LEPSILON"> F  </i>
   <i type="logical" name="LRPA"> F  </i>
   <i type="logical" name="LNABLA"> F  </i>
   <i type="logical" name="LVEL"> F  </i>
   <i type="int" name="KINTER">     0</i>
   <i name="CSHIFT">      0.10000000</i>
   <i name="OMEGAMAX">     -1.00000000</i>
   <i name="DEG_THRESHOLD">      0.00200000</i>
   <i name="RTIME">     -0.10000000</i>
   <i name="WPLASMAI">      0.00000000</i>
   <v name="DFIELD">      0.00000000      0.00000000      0.00000000</v>
   <v name="WPLASMA">      0.00000000      0.00000000      0.00000000      0.00000000      0.00000000      0.00000000      0.00000000      0.00000000      0.00000000</v>
  </separator>
  <separator name="orbital magnetization" >
   <i type="logical" name="NUCIND"> F  </i>
   <v name="MAGPOS">      0.00000000      0.00000000      0.00000000</v>
   <i type="logical" name="LNICSALL"> T  </i>
   <i type="logical" name="ORBITALMAG"> F  </i>
   <i type="logical" name="LMAGBLOCH"> F  </i>
   <i type="logical" name="LCHIMAG"> F  </i>
   <i type="logical" name="LGAUGE"> T  </i>
   <i type="int" name="MAGATOM">     0</i>
   <v name="MAGDIPOL">      0.00000000      0.00000000      0.00000000</v>
   <v name="AVECCONST">      0.00000000      0.00000000      0.00000000</v>
  </separator>
  <separator name="response functions" >
   <i type="logical" name="LADDER"> F  </i>
   <i type="logical" name="LRPAFORCE"> F  </i>
   <i type="logical" name="LFXC"> F  </i>
   <i type="logical" name="LHARTREE"> T  </i>
   <i type="int" name="IBSE">     0</i>
   <v type="int" name="KPOINT">    -1     0     0     0</v>
   <i type="logical" name="LTCTE"> F  </i>
   <i type="logical" name="LTETE"> F  </i>
   <i type="logical" name="LTRIPLET"> F  </i>
   <i type="logical" name="LFXCEPS"> F  </i>
   <i type="logical" name="LFXHEG"> F  </i>
   <i type="int" name="NATURALO">     2</i>
   <i type="logical" name="L2ORDER"> F  </i>
   <i type="logical" name="LMP2LT"> F  </i>
   <i type="logical" name="LUSEW"> F  </i>
   <i name="ENCUTGW">     -2.00000000</i>
   <i name="ENCUTGWSOFT">     -2.00000000</i>
   <i name="ENCUTLF">     -1.00000000</i>
   <i type="int" name="LMAXMP2">    -1</i>
   <i name="SCISSOR">      0.00000000</i>
   <i type="int" name="NOMEGA">     0</i>
   <i type="int" name="NOMEGAR">     0</i>
   <i type="int" name="NBANDSGW">    -1</i>
   <i type="int" name="NBANDSO">    -1</i>
   <i type="int" name="NBANDSV">    -1</i>
   <i type="int" name="NELM">   200</i>
   <i type="int" name="NELMHF">     1</i>
   <i type="int" name="DIM">     3</i>
   <i type="int" name="ANTIRES">     0</i>
   <i name="OMEGAMAX">    -30.00000000</i>
   <i name="OMEGAMIN">    -30.00000000</i>
   <i name="OMEGATL">   -200.00000000</i>
   <i type="int" name="OMEGAGRID">   140</i>
   <i name="CSHIFT">     -0.10000000</i>
   <i type="logical" name="SELFENERGY"> F  </i>
   <i type="logical" name="LSPECTRAL"> F  </i>
   <i type="logical" name="LSPECTRALGW"> F  </i>
   <i type="logical" name="LSINGLES"> F  </i>
   <i type="logical" name="LFERMIGW"> F  </i>
   <i type="logical" name="ODDONLYGW"> F  </i>
   <i type="logical" name="EVENONLYGW"> F  </i>
   <i type="int" name="NKREDLFX">     1</i>
   <i type="int" name="NKREDLFY">     1</i>
   <i type="int" name="NKREDLFZ">     1</i>
   <i type="int" name="MAXMEM">  2800</i>
   <i type="int" name="TELESCOPE">     0</i>
   <i type="int" name="TAUPAR">     1</i>
   <i type="int" name="OMEGAPAR">    -1</i>
   <i name="LAMBDA">      1.00000000</i>
  </separator>
  <separator name="External order field" >
   <i name="OFIELD_KAPPA">      0.00000000</i>
   <v name="OFIELD_K">      0.00000000      0.00000000      0.00000000</v>
   <i name="OFIELD_Q6_NEAR">      0.00000000</i>
   <i name="OFIELD_Q6_FAR">      0.00000000</i>
   <i name="OFIELD_A">      0.00000000</i>
  </separator>
 </parameters>
 <atominfo>
  <atoms>      54 </atoms>
  <types>       1 </types>
  <array name="atoms" >
   <dimension dim="1">ion</dimension>
   <field type="string">element</field>
   <field type="int">atomtype</field>
   <set>
    <rc><c>Si</c><c>   1</c></rc>
    <rc><c>Si</c><c>   1</c></rc>
    <rc><c>Si</c><c>   1</c></rc>
    <rc><c>Si</c><c>   1</c></rc>
    <rc><c>Si</c><c>   1</c></rc>
    <rc><c>Si</c><c>   1</c></rc>
    <rc><c>Si</c><c>   1</c></rc>
    <rc><c>Si</c><c>   1</c></rc>
    <rc><c>Si</c><c>   1</c></rc>
    <rc><c>Si</c><c>   1</c></rc>
    <rc><c>Si</c><c>   1</c></rc>
    <rc><c>Si</c><c>   1</c></rc>
    <rc><c>Si</c><c>   1</c></rc>
    <rc><c>Si</c><c>   1</c></rc>
    <rc><c>Si</c><c>   1</c></rc>
    <rc><c>Si</c><c>   1</c></rc>
    <rc><c>Si</c><c>   1</c></rc>
    <rc><c>Si</c><c>   1</c></rc>
    <rc><c>Si</c><c>   1</c></rc>
    <rc><c>Si</c><c>   1</c></rc>
    <rc><c>Si</c><c>   1</c></rc>
    <rc><c>Si</c><c>   1</c></rc>
    <rc><c>Si</c><c>   1</c></rc>
    <rc><c>Si</c><c>   1</c></rc>
    <rc><c>Si</c><c>   1</c></rc>
    <rc><c>Si</c><c>   1</c></rc>
    <rc><c>Si</c><c>   1</c></rc>
    <rc><c>Si</c><c>   1</c></rc>
    <rc><c>Si</c><c>   1</c></rc>
    <rc><c>Si</c><c>   1</c></rc>
    <rc><c>Si</c><c>   1</c></rc>
    <rc><c>Si</c><c>   1</c></rc>
    <rc><c>Si</c><c>   1</c></rc>
    <rc><c>Si</c><c>   1</c></rc>
    <rc><c>Si</c><c>   1</c></rc>
    <rc><c>Si</c><c>   1</c></rc>
    <rc><c>Si</c><c>   1</c></rc>
    <rc><c>Si</c><c>   1</c></rc>
    <rc><c>Si</c><c>   1</c></rc>
    <rc><c>Si</c><c>   1</c></rc>
    <rc><c>Si</c><c>   1</c></rc>
    <rc><c>Si</c><c>   1</c></rc>
    <rc><c>Si</c><c>   1</c></rc>
    <rc><c>Si</c><c>   1</c></rc>
    <rc><c>Si</c><c>   1</c></rc>
    <rc><c>Si</c><c>   1</c></rc>
    <rc><c>Si</c><c>   1</c></rc>
    <rc><c>Si</c><c>   1</c></rc>
    <rc><c>Si</c><c>   1</c></rc>
    <rc><c>Si</c><c>   1</c></rc>
    <rc><c>Si</c><c>   1</c></rc>
    <rc><c>Si</c><c>   1</c></rc>
    <rc><c>Si</c><c>   1</c></rc>
    <rc><c>Si</c><c>   1</c></rc>
   </set>
  </array>
  <array name="atomtypes" >
   <dimension dim="1">type</dimension>
   <field type="int">atomspertype</field>
   <field type="string">element</field>
   <field>mass</field>
   <field>valence</field>
   <field type="string">pseudopotential</field>
   <set>
    <rc><c>  54</c><c>Si</c><c>     28.08500000</c><c>      4.00000000</c><c>  PAW_PBE Si 05Jan2001                  </c></rc>
   </set>
  </array>
 </atominfo>
 <structure name="initialpos" >
  <crystal>
   <varray name="basis" >
    <v>       9.97646553       0.00000000       5.75991507 </v>
    <v>       3.32548851       9.40590192       5.75991507 </v>
    <v>       0.00000000       0.00000000      11.51983014 </v>
   </varray>
   <i name="volume">   1080.99386112 </i>
   <varray name="rec_basis" >
    <v>       0.10023590      -0.03543874       0.00000000 </v>
    <v>       0.00000000       0.10631623       0.00000000 </v>
    <v>      -0.05011795      -0.03543874       0.08680684 </v>
   </varray>
  </crystal>
  <varray name="positions" >
   <v>       0.29166667       0.29166667       0.29166667 </v>
   <v>       0.29166667       0.29166667       0.62500000 </v>
   <v>       0.29166667       0.29166667       0.95833333 </v>
   <v>       0.29166667       0.62500000       0.29166667 </v>
   <v>       0.29166667       0.62500000       0.62500000 </v>
   <v>       0.29166667       0.62500000       0.95833333 </v>
   <v>       0.29166667       0.95833333       0.29166667 </v>
   <v>       0.29166667       0.95833333       0.62500000 </v>
   <v>       0.29166667       0.95833333       0.95833333 </v>
   <v>       0.62500000       0.29166667       0.29166667 </v>
   <v>       0.62500000       0.29166667       0.62500000 </v>
   <v>       0.62500000       0.29166667       0.95833333 </v>
   <v>       0.62500000       0.62500000       0.29166667 </v>
   <v>       0.62500000       0.62500000       0.62500000 </v>
   <v>       0.62500000       0.62500000       0.95833333 </v>
   <v>       0.62500000       0.95833333       0.29166667 </v>
   <v>       0.62500000       0.95833333       0.62500000 </v>
   <v>       0.62500000       0.95833333       0.95833333 </v>
   <v>       0.95833333       0.29166667       0.29166667 </v>
   <v>       0.95833333       0.29166667       0.62500000 </v>
   <v>       0.95833333       0.29166667       0.95833333 </v>
   <v>       0.95833333       0.62500000       0.29166667 </v>
   <v>       0.95833333       0.62500000       0.62500000 </v>
   <v>       0.95833333       0.62500000       0.95833333 </v>
   <v>       0.95833333       0.95833333       0.29166667 </v>
   <v>       0.95833333       0.95833333       0.62500000 </v>
   <v>       0.95833333       0.95833333       0.95833333 </v>
   <v>       0.04166667       0.04166667       0.04166667 </v>
   <v>       0.04166667       0.04166667       0.37500000 </v>
   <v>       0.04166667       0.04166667       0.70833333 </v>
   <v>       0.04166667       0.37500000       0.04166667 </v>
   <v>       0.04166667       0.37500000       0.37500000 </v>
   <v>       0.04166667       0.37500000       0.70833333 </v>
   <v>       0.04166667       0.70833333       0.04166667 </v>
   <v>       0.04166667       0.70833333       0.37500000 </v>
   <v>       0.04166667       0.70833333       0.70833333 </v>
   <v>       0.37500000       0.04166667       0.04166667 </v>
   <v>       0.37500000       0.04166667       0.37500000 </v>
   <v>       0.37500000       0.04166667       0.70833333 </v>
   <v>       0.37500000       0.37500000       0.04166667 </v>
   <v>       0.37500000       0.37500000       0.37500000 </v>
   <v>       0.37500000       0.37500000       0.70833333 </v>
   <v>       0.37500000       0.70833333       0.04166667 </v>
   <v>       0.37500000       0.70833333       0.37500000 </v>
   <v>       0.37500000       0.70833333       0.70833333 </v>
   <v>       0.70833333       0.04166667       0.04166667 </v>
   <v>       0.70833333       0.04166667       0.37500000 </v>
   <v>       0.70833333       0.04166667       0.70833333 </v>
   <v>       0.70833333       0.37500000       0.04166667 </v>
   <v>       0.70833333       0.37500000       0.37500000 </v>
   <v>       0.70833333       0.37500000       0.70833333 </v>
   <v>       0.70833333       0.70833333       0.04166667 </v>
   <v>       0.70833333       0.70833333       0.37500000 </v>
   <v>       0.70833333       0.70833333       0.70833333 </v>
  </varray>
 </structure>
 <calculation>
  <scstep>
   <time name="dav">    3.87    3.91</time>
   <time name="total">    4.11    4.16</time>
   <energy>
    <i name="alphaZ">     90.80688887 </i>
    <i name="ewald">  -6170.64793459 </i>
    <i name="hartreedc">   -297.14116512 </i>
    <i name="XCdc">   -502.27972397 </i>
    <i name="pawpsdc">   4758.68517920 </i>
    <i name="pawaedc">  -3808.64796066 </i>
    <i name="eentropy">     -0.02363964 </i>
    <i name="bandstr">    928.32269940 </i>
    <i name="atom">   5565.58933440 </i>
    <i name="e_fr_energy">    564.66367790 </i>
    <i name="e_wo_entrp">    564.68731753 </i>
    <i name="e_0_energy">    564.67549772 </i>
   </energy>
  </scstep>
  <scstep>
   <time name="dav">    4.25    4.67</time>
   <time name="total">    4.26    4.68</time>
   <energy>
    <i name="e_fr_energy">   -247.95614007 </i>
    <i name="e_wo_entrp">   -247.95614007 </i>
    <i name="e_0_energy">   -247.95614007 </i>
   </energy>
  </scstep>
  <scstep>
   <time name="dav">    4.12    4.16</time>
   <time name="total">    4.13    4.16</time>
   <energy>
    <i name="e_fr_energy">   -296.70312423 </i>
    <i name="e_wo_entrp">   -296.70312423 </i>
    <i name="e_0_energy">   -296.70312423 </i>
   </energy>
  </scstep>
  <scstep>
   <time name="dav">    4.33    4.37</time>
   <time name="total">    4.33    4.37</time>
   <energy>
    <i name="e_fr_energy">   -297.65031548 </i>
    <i name="e_wo_entrp">   -297.65031548 </i>
    <i name="e_0_energy">   -297.65031548 </i>
   </energy>
  </scstep>
  <scstep>
   <time name="dav">    4.05    4.08</time>
   <time name="total">    4.36    4.40</time>
   <energy>
    <i name="e_fr_energy">   -297.67032383 </i>
    <i name="e_wo_entrp">   -297.67032383 </i>
    <i name="e_0_energy">   -297.67032383 </i>
   </energy>
  </scstep>
  <scstep>
   <time name="dav">    5.62    5.68</time>
   <time name="total">    6.38    6.45</time>
   <energy>
    <i name="e_fr_energy">   -295.78377263 </i>
    <i name="e_wo_entrp">   -295.78377263 </i>
    <i name="e_0_energy">   -295.78377263 </i>
   </energy>
  </scstep>
  <scstep>
   <time name="dav">    4.45    4.50</time>
   <time name="total">    5.55    5.61</time>
   <energy>
    <i name="e_fr_energy">   -292.77403090 </i>
    <i name="e_wo_entrp">   -292.77403090 </i>
    <i name="e_0_energy">   -292.77403090 </i>
   </energy>
  </scstep>
  <scstep>
   <time name="dav">    4.42    4.47</time>
   <time name="total">    5.01    5.06</time>
   <energy>
    <i name="e_fr_energy">   -292.78887523 </i>
    <i name="e_wo_entrp">   -292.78887523 </i>
    <i name="e_0_energy">   -292.78887523 </i>
   </energy>
  </scstep>
  <scstep>
   <time name="dav">    3.89    3.92</time>
   <time name="total">    4.35    4.38</time>
   <energy>
    <i name="e_fr_energy">   -292.80202737 </i>
    <i name="e_wo_entrp">   -292.80202737 </i>
    <i name="e_0_energy">   -292.80202737 </i>
   </energy>
  </scstep>
  <scstep>
   <time name="dav">    4.17    4.21</time>
   <time name="total">    4.58    4.62</time>
   <energy>
    <i name="e_fr_energy">   -292.80366505 </i>
    <i name="e_wo_entrp">   -292.80366505 </i>
    <i name="e_0_energy">   -292.80366505 </i>
   </energy>
  </scstep>
  <scstep>
   <time name="dav">    4.68    4.72</time>
   <time name="total">    5.72    5.77</time>
   <energy>
    <i name="e_fr_energy">   -292.80759343 </i>
    <i name="e_wo_entrp">   -292.80759343 </i>
    <i name="e_0_energy">   -292.80759343 </i>
   </energy>
  </scstep>
  <scstep>
   <time name="dav">    4.97    5.02</time>
   <time name="total">    6.48    6.55</time>
   <energy>
    <i name="e_fr_energy">   -292.80758978 </i>
    <i name="e_wo_entrp">   -292.80758978 </i>
    <i name="e_0_energy">   -292.80758978 </i>
   </energy>
  </scstep>
  <scstep>
   <time name="dav">    4.67    4.72</time>
   <time name="total">    5.20    5.25</time>
   <energy>
    <i name="e_fr_energy">   -292.80761796 </i>
    <i name="e_wo_entrp">   -292.80761796 </i>
    <i name="e_0_energy">   -292.80761796 </i>
   </energy>
  </scstep>
  <scstep>
   <time name="dav">    3.78    3.81</time>
   <time name="total">    4.18    4.21</time>
   <energy>
    <i name="e_fr_energy">   -292.80760822 </i>
    <i name="e_wo_entrp">   -292.80760822 </i>
    <i name="e_0_energy">   -292.80760822 </i>
   </energy>
  </scstep>
  <scstep>
   <time name="dav">    2.90    2.93</time>
   <time name="total">    3.00    3.03</time>
   <energy>
    <i name="alphaZ">     90.80688887 </i>
    <i name="ewald">  -6170.64793459 </i>
    <i name="hartreedc">   -402.85911414 </i>
    <i name="XCdc">   -485.04587260 </i>
    <i name="pawpsdc">  23470.49769420 </i>
    <i name="pawaedc"> -22526.50178663 </i>
    <i name="eentropy">     -0.00000000 </i>
    <i name="bandstr">    165.35318241 </i>
    <i name="atom">   5565.58933440 </i>
    <i name="e_fr_energy">   -292.80760809 </i>
    <i name="e_wo_entrp">   -292.80760809 </i>
    <i name="e_0_energy">   -292.80760809 </i>
   </energy>
  </scstep>
  <structure>
   <crystal>
    <varray name="basis" >
     <v>       9.97646553       0.00000000       5.75991507 </v>
     <v>       3.32548851       9.40590192       5.75991507 </v>
     <v>       0.00000000       0.00000000      11.51983014 </v>
    </varray>
    <i name="volume">   1080.99386112 </i>
    <varray name="rec_basis" >
     <v>       0.10023590      -0.03543874       0.00000000 </v>
     <v>       0.00000000       0.10631623       0.00000000 </v>
     <v>      -0.05011795      -0.03543874       0.08680684 </v>
    </varray>
   </crystal>
   <varray name="positions" >
    <v>       0.29166667       0.29166667       0.29166667 </v>
    <v>       0.29166667       0.29166667       0.62500000 </v>
    <v>       0.29166667       0.29166667       0.95833333 </v>
    <v>       0.29166667       0.62500000       0.29166667 </v>
    <v>       0.29166667       0.62500000       0.62500000 </v>
    <v>       0.29166667       0.62500000       0.95833333 </v>
    <v>       0.29166667       0.95833333       0.29166667 </v>
    <v>       0.29166667       0.95833333       0.62500000 </v>
    <v>       0.29166667       0.95833333       0.95833333 </v>
    <v>       0.62500000       0.29166667       0.29166667 </v>
    <v>       0.62500000       0.29166667       0.62500000 </v>
    <v>       0.62500000       0.29166667       0.95833333 </v>
    <v>       0.62500000       0.62500000       0.29166667 </v>
    <v>       0.62500000       0.62500000       0.62500000 </v>
    <v>       0.62500000       0.62500000       0.95833333 </v>
    <v>       0.62500000       0.95833333       0.29166667 </v>
    <v>       0.62500000       0.95833333       0.62500000 </v>
    <v>       0.62500000       0.95833333       0.95833333 </v>
    <v>       0.95833333       0.29166667       0.29166667 </v>
    <v>       0.95833333       0.29166667       0.62500000 </v>
    <v>       0.95833333       0.29166667       0.95833333 </v>
    <v>       0.95833333       0.62500000       0.29166667 </v>
    <v>       0.95833333       0.62500000       0.62500000 </v>
    <v>       0.95833333       0.62500000       0.95833333 </v>
    <v>       0.95833333       0.95833333       0.29166667 </v>
    <v>       0.95833333       0.95833333       0.62500000 </v>
    <v>       0.95833333       0.95833333       0.95833333 </v>
    <v>       0.04166667       0.04166667       0.04166667 </v>
    <v>       0.04166667       0.04166667       0.37500000 </v>
    <v>       0.04166667       0.04166667       0.70833333 </v>
    <v>       0.04166667       0.37500000       0.04166667 </v>
    <v>       0.04166667       0.37500000       0.37500000 </v>
    <v>       0.04166667       0.37500000       0.70833333 </v>
    <v>       0.04166667       0.70833333       0.04166667 </v>
    <v>       0.04166667       0.70833333       0.37500000 </v>
    <v>       0.04166667       0.70833333       0.70833333 </v>
    <v>       0.37500000       0.04166667       0.04166667 </v>
    <v>       0.37500000       0.04166667       0.37500000 </v>
    <v>       0.37500000       0.04166667       0.70833333 </v>
    <v>       0.37500000       0.37500000       0.04166667 </v>
    <v>       0.37500000       0.37500000       0.37500000 </v>
    <v>       0.37500000       0.37500000       0.70833333 </v>
    <v>       0.37500000       0.70833333       0.04166667 </v>
    <v>       0.37500000       0.70833333       0.37500000 </v>
    <v>       0.37500000       0.70833333       0.70833333 </v>
    <v>       0.70833333       0.04166667       0.04166667 </v>
    <v>       0.70833333       0.04166667       0.37500000 </v>
    <v>       0.70833333       0.04166667       0.70833333 </v>
    <v>       0.70833333       0.37500000       0.04166667 </v>
    <v>       0.70833333       0.37500000       0.37500000 </v>
    <v>       0.70833333       0.37500000       0.70833333 </v>
    <v>       0.70833333       0.70833333       0.04166667 </v>
    <v>       0.70833333       0.70833333       0.37500000 </v>
    <v>       0.70833333       0.70833333       0.70833333 </v>
   </varray>
  </structure>
  <varray name="forces" >
   <v>       0.00000000       0.00000000      -0.00000000 </v>
   <v>       0.00000000       0.00000000      -0.00000000 </v>
   <v>       0.00000000       0.00000000      -0.00000000 </v>
   <v>      -0.00000000       0.00000000      -0.00000000 </v>
   <v>       0.00000000       0.00000000      -0.00000000 </v>
   <v>       0.00000000       0.00000000      -0.00000000 </v>
   <v>      -0.00000000       0.00000000      -0.00000000 </v>
   <v>       0.00000000       0.00000000      -0.00000000 </v>
   <v>       0.00000000       0.00000000      -0.00000000 </v>
   <v>      -0.00000000       0.00000000      -0.00000000 </v>
   <v>      -0.00000000       0.00000000      -0.00000000 </v>
   <v>       0.00000000       0.00000000      -0.00000000 </v>
   <v>      -0.00000000       0.00000000      -0.00000000 </v>
   <v>       0.00000000       0.00000000      -0.00000000 </v>
   <v>       0.00000000       0.00000000      -0.00000000 </v>
   <v>      -0.00000000       0.00000000      -0.00000000 </v>
   <v>       0.00000000       0.00000000      -0.00000000 </v>
   <v>       0.00000000       0.00000000      -0.00000000 </v>
   <v>      -0.00000000       0.00000000      -0.00000000 </v>
   <v>       0.00000000       0.00000000      -0.00000000 </v>
   <v>       0.00000000       0.00000000      -0.00000000 </v>
   <v>      -0.00000000       0.00000000      -0.00000000 </v>
   <v>       0.00000000       0.00000000      -0.00000000 </v>
   <v>       0.00000000       0.00000000      -0.00000000 </v>
   <v>      -0.00000000       0.00000000      -0.00000000 </v>
   <v>       0.00000000       0.00000000      -0.00000000 </v>
   <v>       0.00000000       0.00000000      -0.00000000 </v>
   <v>       0.00000000      -0.00000000       0.00000000 </v>
   <v>      -0.00000000      -0.00000000       0.00000000 </v>
   <v>      -0.00000000      -0.00000000       0.00000000 </v>
   <v>       0.00000000      -0.00000000       0.00000000 </v>
   <v>      -0.00000000      -0.00000000       0.00000000 </v>
   <v>       0.00000000      -0.00000000       0.00000000 </v>
   <v>      -0.00000000      -0.00000000       0.00000000 </v>
   <v>      -0.00000000      -0.00000000       0.00000000 </v>
   <v>       0.00000000      -0.00000000       0.00000000 </v>
   <v>       0.00000000      -0.00000000       0.00000000 </v>
   <v>       0.00000000      -0.00000000       0.00000000 </v>
   <v>      -0.00000000      -0.00000000       0.00000000 </v>
   <v>       0.00000000      -0.00000000       0.00000000 </v>
   <v>      -0.00000000      -0.00000000       0.00000000 </v>
   <v>      -0.00000000      -0.00000000       0.00000000 </v>
   <v>       0.00000000      -0.00000000       0.00000000 </v>
   <v>       0.00000000      -0.00000000       0.00000000 </v>
   <v>      -0.00000000      -0.00000000       0.00000000 </v>
   <v>       0.00000000      -0.00000000       0.00000000 </v>
   <v>       0.00000000      -0.00000000       0.00000000 </v>
   <v>      -0.00000000      -0.00000000       0.00000000 </v>
   <v>       0.00000000      -0.00000000       0.00000000 </v>
   <v>      -0.00000000      -0.00000000       0.00000000 </v>
   <v>      -0.00000000      -0.00000000       0.00000000 </v>
   <v>       0.00000000      -0.00000000       0.00000000 </v>
   <v>      -0.00000000      -0.00000000       0.00000000 </v>
   <v>      -0.00000000      -0.00000000       0.00000000 </v>
  </varray>
  <varray name="stress" >
   <v>      19.51060520      -0.00000000      -0.00000000 </v>
   <v>       0.00000000      19.51060527       0.00000000 </v>
   <v>       0.00000000       0.00000000      19.51060528 </v>
  </varray>
  <energy>
   <i name="e_fr_energy">   -292.80760809 </i>
   <i name="e_wo_entrp">   -292.80760809 </i>
   <i name="e_0_energy">     -0.00000000 </i>
  </energy>
  <time name="totalsc">   85.94   87.31</time>
  <eigenvalues>
   <array>
    <dimension dim="1">band</dimension>
    <dimension dim="2">kpoint</dimension>
    <dimension dim="3">spin</dimension>
    <field>eigene</field>
    <field>occ</field>
    <set>
     <set comment="spin 1">
      <set comment="kpoint 1">
       <r>   -6.1313    1.0000 </r>
       <r>   -4.7543    1.0000 </r>
       <r>   -4.7543    1.0000 </r>
       <r>   -4.7543    1.0000 </r>
       <r>   -4.7543    1.0000 </r>
       <r>   -4.7543    1.0000 </r>
       <r>   -4.7543    1.0000 </r>
       <r>   -4.7543    1.0000 </r>
       <r>   -4.7543    1.0000 </r>
       <r>   -4.2267    1.0000 </r>
       <r>   -4.2267    1.0000 </r>
       <r>   -4.2267    1.0000 </r>
       <r>   -4.2267    1.0000 </r>
       <r>   -4.2267    1.0000 </r>
       <r>   -4.2267    1.0000 </r>
       <r>   -2.8668    1.0000 </r>
       <r>   -2.8668    1.0000 </r>
       <r>   -2.8668    1.0000 </r>
       <r>   -2.8668    1.0000 </r>
       <r>   -2.8668    1.0000 </r>
       <r>   -2.8668    1.0000 </r>
       <r>   -2.8668    1.0000 </r>
       <r>   -2.8668    1.0000 </r>
       <r>   -2.8668    1.0000 </r>
       <r>   -2.8668    1.0000 </r>
       <r>   -2.8668    1.0000 </r>
       <r>   -2.8668    1.0000 </r>
       <r>   -0.9401    1.0000 </r>
       <r>   -0.9401    1.0000 </r>
       <r>   -0.9401    1.0000 </r>
       <r>   -0.9401    1.0000 </r>
       <r>   -0.9401    1.0000 </r>
       <r>   -0.9401    1.0000 </r>
       <r>   -0.9401    1.0000 </r>
       <r>   -0.9401    1.0000 </r>
       <r>   -0.9401    1.0000 </r>
       <r>   -0.9401    1.0000 </r>
       <r>   -0.9401    1.0000 </r>
       <r>   -0.9401    1.0000 </r>
       <r>    0.4959    1.0000 </r>
       <r>    0.4959    1.0000 </r>
       <r>    0.4959    1.0000 </r>
       <r>    0.4959    1.0000 </r>
       <r>    0.4959    1.0000 </r>
       <r>    0.4959    1.0000 </r>
       <r>    0.4959    1.0000 </r>
       <r>    0.4959    1.0000 </r>
       <r>    0.8193    1.0000 </r>
       <r>    0.8193    1.0000 </r>
       <r>    0.8193    1.0000 </r>
       <r>    0.8193    1.0000 </r>
       <r>    0.8193    1.0000 </r>
       <r>    0.8193    1.0000 </r>
       <r>    1.4175    1.0000 </r>
       <r>    1.4175    1.0000 </r>
       <r>    1.4175    1.0000 </r>
       <r>    1.4175    1.0000 </r>
       <r>    1.4175    1.0000 </r>
       <r>    1.4175    1.0000 </r>
       <r>    1.4175    1.0000 </r>
       <r>    1.4175    1.0000 </r>
       <r>    1.4175    1.0000 </r>
       <r>    1.4175    1.0000 </r>
       <r>    1.4175    1.0000 </r>
       <r>    1.4175    1.0000 </r>
       <r>    3.4120    1.0000 </r>
       <r>    3.4120    1.0000 </r>
       <r>    3.4120    1.0000 </r>
       <r>    3.4120    1.0000 </r>
       <r>    3.4120    1.0000 </r>
       <r>    3.4120    1.0000 </r>
       <r>    3.4120    1.0000 </r>
       <r>    3.4120    1.0000 </r>
       <r>    3.4120    1.0000 </r>
       <r>    3.4120    1.0000 </r>
       <r>    3.4120    1.0000 </r>
       <r>    3.4120    1.0000 </r>
       <r>    3.7177    1.0000 </r>
       <r>    3.7177    1.0000 </r>
       <r>    3.7177    1.0000 </r>
       <r>    3.7177    1.0000 </r>
       <r>    3.7177    1.0000 </r>
       <r>    3.7177    1.0000 </r>
       <r>    3.7177    1.0000 </r>
       <r>    3.7177    1.0000 </r>
       <r>    3.7177    1.0000 </r>
       <r>    3.7177    1.0000 </r>
       <r>    3.7177    1.0000 </r>
       <r>    3.7177    1.0000 </r>
       <r>    4.8280    1.0000 </r>
       <r>    4.8280    1.0000 </r>
       <r>    4.8280    1.0000 </r>
       <r>    4.8280    1.0000 </r>
       <r>    4.8280    1.0000 </r>
       <r>    4.8280    1.0000 </r>
       <r>    4.8280    1.0000 </r>
       <r>    4.8280    1.0000 </r>
       <r>    4.8280    1.0000 </r>
       <r>    4.8280    1.0000 </r>
       <r>    4.8280    1.0000 </r>
       <r>    4.8280    1.0000 </r>
       <r>    4.8280    1.0000 </r>
       <r>    4.8280    1.0000 </r>
       <r>    4.8280    1.0000 </r>
       <r>    4.8280    1.0000 </r>
       <r>    5.8268    1.0000 </r>
       <r>    5.8268    1.0000 </r>
       <r>    5.8268    1.0000 </r>
       <r>    6.5554    0.0000 </r>
       <r>    6.5554    0.0000 </r>
       <r>    6.5554    0.0000 </r>
       <r>    6.5554    0.0000 </r>
       <r>    6.5554    0.0000 </r>
       <r>    6.5554    0.0000 </r>
       <r>    7.3953    0.0000 </r>
       <r>    7.3953    0.0000 </r>
       <r>    7.3953    0.0000 </r>
       <r>    7.3953    0.0000 </r>
       <r>    7.3953    0.0000 </r>
       <r>    7.3953    0.0000 </r>
       <r>    7.3953    0.0000 </r>
       <r>    7.3953    0.0000 </r>
       <r>    7.3953    0.0000 </r>
       <r>    7.3953    0.0000 </r>
       <r>    7.3953    0.0000 </r>
       <r>    7.3953    0.0000 </r>
       <r>    7.5934    0.0000 </r>
       <r>    7.5934    0.0000 </r>
       <r>    7.5934    0.0000 </r>
       <r>    7.5934    0.0000 </r>
       <r>    7.5934    0.0000 </r>
       <r>    7.5934    0.0000 </r>
       <r>    7.5934    0.0000 </r>
       <r>    7.5934    0.0000 </r>
       <r>    7.8195    0.0000 </r>
       <r>    7.8195    0.0000 </r>
       <r>    7.8195    0.0000 </r>
       <r>    7.8195    0.0000 </r>
       <r>    7.8195    0.0000 </r>
       <r>    7.8195    0.0000 </r>
       <r>    8.3926    0.0000 </r>
       <r>    8.3926    0.0000 </r>
       <r>    8.3926    0.0000 </r>
       <r>    9.2022    0.0000 </r>
      </set>
      <set comment="kpoint 2">
       <r>   -6.0402    1.0000 </r>
       <r>   -5.3314    1.0000 </r>
       <r>   -4.8787    1.0000 </r>
       <r>   -4.8787    1.0000 </r>
       <r>   -4.8787    1.0000 </r>
       <r>   -4.6125    1.0000 </r>
       <r>   -4.6125    1.0000 </r>
       <r>   -4.6125    1.0000 </r>
       <r>   -4.4650    1.0000 </r>
       <r>   -4.4650    1.0000 </r>
       <r>   -4.4650    1.0000 </r>
       <r>   -4.1338    1.0000 </r>
       <r>   -3.6920    1.0000 </r>
       <r>   -3.6920    1.0000 </r>
       <r>   -3.6920    1.0000 </r>
       <r>   -3.4651    1.0000 </r>
       <r>   -3.4651    1.0000 </r>
       <r>   -3.4651    1.0000 </r>
       <r>   -2.8618    1.0000 </r>
       <r>   -2.8618    1.0000 </r>
       <r>   -2.8618    1.0000 </r>
       <r>   -2.8618    1.0000 </r>
       <r>   -2.8618    1.0000 </r>
       <r>   -2.8618    1.0000 </r>
       <r>   -2.5938    1.0000 </r>
       <r>   -2.5938    1.0000 </r>
       <r>   -2.5938    1.0000 </r>
       <r>   -1.2264    1.0000 </r>
       <r>   -1.2264    1.0000 </r>
       <r>   -1.2264    1.0000 </r>
       <r>   -0.9775    1.0000 </r>
       <r>   -0.9775    1.0000 </r>
       <r>   -0.9775    1.0000 </r>
       <r>   -0.9775    1.0000 </r>
       <r>   -0.9775    1.0000 </r>
       <r>   -0.9775    1.0000 </r>
       <r>   -0.6338    1.0000 </r>
       <r>   -0.4729    1.0000 </r>
       <r>   -0.4729    1.0000 </r>
       <r>   -0.4729    1.0000 </r>
       <r>    0.0334    1.0000 </r>
       <r>    0.0334    1.0000 </r>
       <r>    0.0334    1.0000 </r>
       <r>    0.1140    1.0000 </r>
       <r>    0.1140    1.0000 </r>
       <r>    0.1140    1.0000 </r>
       <r>    0.9640    1.0000 </r>
       <r>    0.9640    1.0000 </r>
       <r>    0.9640    1.0000 </r>
       <r>    1.4029    1.0000 </r>
       <r>    1.4029    1.0000 </r>
       <r>    1.4029    1.0000 </r>
       <r>    1.5927    1.0000 </r>
       <r>    1.5927    1.0000 </r>
       <r>    1.5927    1.0000 </r>
       <r>    1.5927    1.0000 </r>
       <r>    1.5927    1.0000 </r>
       <r>    1.5927    1.0000 </r>
       <r>    1.6194    1.0000 </r>
       <r>    1.6194    1.0000 </r>
       <r>    1.6194    1.0000 </r>
       <r>    1.8134    1.0000 </r>
       <r>    1.8134    1.0000 </r>
       <r>    1.8134    1.0000 </r>
       <r>    1.9028    1.0000 </r>
       <r>    2.9262    1.0000 </r>
       <r>    2.9262    1.0000 </r>
       <r>    2.9262    1.0000 </r>
       <r>    3.2695    1.0000 </r>
       <r>    3.2695    1.0000 </r>
       <r>    3.2695    1.0000 </r>
       <r>    3.4074    1.0000 </r>
       <r>    3.4074    1.0000 </r>
       <r>    3.4074    1.0000 </r>
       <r>    3.4074    1.0000 </r>
       <r>    3.4074    1.0000 </r>
       <r>    3.4074    1.0000 </r>
       <r>    3.4293    1.0000 </r>
       <r>    3.4293    1.0000 </r>
       <r>    3.4293    1.0000 </r>
       <r>    3.4741    1.0000 </r>
       <r>    3.4741    1.0000 </r>
       <r>    3.4741    1.0000 </r>
       <r>    3.6929    1.0000 </r>
       <r>    3.6929    1.0000 </r>
       <r>    3.6929    1.0000 </r>
       <r>    3.9795    1.0000 </r>
       <r>    3.9795    1.0000 </r>
       <r>    3.9795    1.0000 </r>
       <r>    4.1090    1.0000 </r>
       <r>    4.1090    1.0000 </r>
       <r>    4.1090    1.0000 </r>
       <r>    4.5116    1.0000 </r>
       <r>    4.5116    1.0000 </r>
       <r>    4.5116    1.0000 </r>
       <r>    4.5489    1.0000 </r>
       <r>    4.5489    1.0000 </r>
       <r>    4.5489    1.0000 </r>
       <r>    4.6798    1.0000 </r>
       <r>    4.6798    1.0000 </r>
       <r>    4.8353    1.0000 </r>
       <r>    4.8353    1.0000 </r>
       <r>    4.8353    1.0000 </r>
       <r>    4.9695    1.0000 </r>
       <r>    5.0683    1.0000 </r>
       <r>    5.0683    1.0000 </r>
       <r>    5.6834    1.0000 </r>
       <r>    5.6834    1.0000 </r>
       <r>    6.7174    0.0000 </r>
       <r>    6.7174    0.0000 </r>
       <r>    6.7174    0.0000 </r>
       <r>    7.0424    0.0000 </r>
       <r>    7.0424    0.0000 </r>
       <r>    7.0424    0.0000 </r>
       <r>    7.0680    0.0000 </r>
       <r>    7.0680    0.0000 </r>
       <r>    7.0680    0.0000 </r>
       <r>    7.4250    0.0000 </r>
       <r>    7.6894    0.0000 </r>
       <r>    7.6894    0.0000 </r>
       <r>    7.6894    0.0000 </r>
       <r>    7.8523    0.0000 </r>
       <r>    7.8523    0.0000 </r>
       <r>    7.8523    0.0000 </r>
       <r>    7.8594    0.0000 </r>
       <r>    7.9654    0.0000 </r>
       <r>    7.9654    0.0000 </r>
       <r>    7.9654    0.0000 </r>
       <r>    7.9654    0.0000 </r>
       <r>    7.9654    0.0000 </r>
       <r>    7.9654    0.0000 </r>
       <r>    8.0393    0.0000 </r>
       <r>    8.0393    0.0000 </r>
       <r>    8.0393    0.0000 </r>
       <r>    8.1240    0.0000 </r>
       <r>    8.1240    0.0000 </r>
       <r>    8.1240    0.0000 </r>
       <r>    8.4379    0.0000 </r>
       <r>    8.6039    0.0000 </r>
       <r>    8.6039    0.0000 </r>
       <r>    8.6069    0.0000 </r>
       <r>    8.6069    0.0000 </r>
       <r>    8.6069    0.0000 </r>
       <r>    9.1267    0.0000 </r>
      </set>
      <set comment="kpoint 3">
       <r>   -5.7700    1.0000 </r>
       <r>   -5.7700    1.0000 </r>
       <r>   -4.8317    1.0000 </r>
       <r>   -4.8317    1.0000 </r>
       <r>   -4.8317    1.0000 </r>
       <r>   -4.8317    1.0000 </r>
       <r>   -4.8317    1.0000 </r>
       <r>   -4.8317    1.0000 </r>
       <r>   -4.0252    1.0000 </r>
       <r>   -4.0252    1.0000 </r>
       <r>   -4.0252    1.0000 </r>
       <r>   -4.0252    1.0000 </r>
       <r>   -4.0252    1.0000 </r>
       <r>   -4.0252    1.0000 </r>
       <r>   -3.7997    1.0000 </r>
       <r>   -3.0628    1.0000 </r>
       <r>   -3.0628    1.0000 </r>
       <r>   -3.0628    1.0000 </r>
       <r>   -3.0628    1.0000 </r>
       <r>   -3.0628    1.0000 </r>
       <r>   -3.0628    1.0000 </r>
       <r>   -2.8568    1.0000 </r>
       <r>   -2.8568    1.0000 </r>
       <r>   -2.8568    1.0000 </r>
       <r>   -2.8568    1.0000 </r>
       <r>   -2.8568    1.0000 </r>
       <r>   -2.8568    1.0000 </r>
       <r>   -1.1392    1.0000 </r>
       <r>   -1.0130    1.0000 </r>
       <r>   -1.0130    1.0000 </r>
       <r>   -1.0130    1.0000 </r>
       <r>   -1.0130    1.0000 </r>
       <r>   -1.0130    1.0000 </r>
       <r>   -1.0130    1.0000 </r>
       <r>   -0.7351    1.0000 </r>
       <r>   -0.7351    1.0000 </r>
       <r>   -0.7351    1.0000 </r>
       <r>   -0.7351    1.0000 </r>
       <r>   -0.7351    1.0000 </r>
       <r>   -0.7351    1.0000 </r>
       <r>   -0.1760    1.0000 </r>
       <r>   -0.1760    1.0000 </r>
       <r>   -0.1760    1.0000 </r>
       <r>   -0.1760    1.0000 </r>
       <r>   -0.1760    1.0000 </r>
       <r>   -0.1760    1.0000 </r>
       <r>    1.3938    1.0000 </r>
       <r>    1.3938    1.0000 </r>
       <r>    1.3938    1.0000 </r>
       <r>    1.3938    1.0000 </r>
       <r>    1.3938    1.0000 </r>
       <r>    1.3938    1.0000 </r>
       <r>    1.8206    1.0000 </r>
       <r>    1.8206    1.0000 </r>
       <r>    1.8206    1.0000 </r>
       <r>    1.8206    1.0000 </r>
       <r>    1.8206    1.0000 </r>
       <r>    1.8206    1.0000 </r>
       <r>    2.1981    1.0000 </r>
       <r>    2.1981    1.0000 </r>
       <r>    2.1981    1.0000 </r>
       <r>    2.1981    1.0000 </r>
       <r>    2.1981    1.0000 </r>
       <r>    2.1981    1.0000 </r>
       <r>    2.7823    1.0000 </r>
       <r>    2.7823    1.0000 </r>
       <r>    2.7823    1.0000 </r>
       <r>    2.7823    1.0000 </r>
       <r>    2.7823    1.0000 </r>
       <r>    2.7823    1.0000 </r>
       <r>    3.0681    1.0000 </r>
       <r>    3.0681    1.0000 </r>
       <r>    3.0681    1.0000 </r>
       <r>    3.0681    1.0000 </r>
       <r>    3.0681    1.0000 </r>
       <r>    3.0681    1.0000 </r>
       <r>    3.2757    1.0000 </r>
       <r>    3.2757    1.0000 </r>
       <r>    3.2757    1.0000 </r>
       <r>    3.2757    1.0000 </r>
       <r>    3.2757    1.0000 </r>
       <r>    3.2757    1.0000 </r>
       <r>    3.4484    1.0000 </r>
       <r>    3.4484    1.0000 </r>
       <r>    3.8364    1.0000 </r>
       <r>    3.8364    1.0000 </r>
       <r>    3.8364    1.0000 </r>
       <r>    3.8364    1.0000 </r>
       <r>    3.8364    1.0000 </r>
       <r>    3.8364    1.0000 </r>
       <r>    4.0829    1.0000 </r>
       <r>    4.0829    1.0000 </r>
       <r>    4.0829    1.0000 </r>
       <r>    4.0829    1.0000 </r>
       <r>    4.0829    1.0000 </r>
       <r>    4.0829    1.0000 </r>
       <r>    4.5315    1.0000 </r>
       <r>    4.5315    1.0000 </r>
       <r>    4.5315    1.0000 </r>
       <r>    4.5315    1.0000 </r>
       <r>    4.5315    1.0000 </r>
       <r>    4.5315    1.0000 </r>
       <r>    4.6300    1.0000 </r>
       <r>    4.6300    1.0000 </r>
       <r>    5.3772    1.0000 </r>
       <r>    5.3772    1.0000 </r>
       <r>    5.3772    1.0000 </r>
       <r>    5.3772    1.0000 </r>
       <r>    6.8911    0.0000 </r>
       <r>    6.8911    0.0000 </r>
       <r>    6.8911    0.0000 </r>
       <r>    6.8911    0.0000 </r>
       <r>    6.8911    0.0000 </r>
       <r>    6.8911    0.0000 </r>
       <r>    7.3678    0.0000 </r>
       <r>    7.7933    0.0000 </r>
       <r>    7.7933    0.0000 </r>
       <r>    7.7933    0.0000 </r>
       <r>    7.7933    0.0000 </r>
       <r>    7.7933    0.0000 </r>
       <r>    7.7933    0.0000 </r>
       <r>    8.1817    0.0000 </r>
       <r>    8.1817    0.0000 </r>
       <r>    8.2812    0.0000 </r>
       <r>    8.2812    0.0000 </r>
       <r>    8.2812    0.0000 </r>
       <r>    8.2812    0.0000 </r>
       <r>    8.2812    0.0000 </r>
       <r>    8.2812    0.0000 </r>
       <r>    8.5448    0.0000 </r>
       <r>    8.5448    0.0000 </r>
       <r>    8.5448    0.0000 </r>
       <r>    8.5448    0.0000 </r>
       <r>    8.5448    0.0000 </r>
       <r>    8.5448    0.0000 </r>
       <r>    9.0396    0.0000 </r>
       <r>    9.0396    0.0000 </r>
       <r>    9.0397    0.0000 </r>
       <r>    9.0400    0.0000 </r>
       <r>    9.1692    0.0000 </r>
       <r>    9.1754    0.0000 </r>
       <r>    9.1822    0.0000 </r>
       <r>    9.1823    0.0000 </r>
       <r>    9.1824    0.0000 </r>
      </set>
      <set comment="kpoint 4">
       <r>   -6.0097    1.0000 </r>
       <r>   -5.0730    1.0000 </r>
       <r>   -5.0730    1.0000 </r>
       <r>   -5.0730    1.0000 </r>
       <r>   -5.0730    1.0000 </r>
       <r>   -5.0491    1.0000 </r>
       <r>   -4.2531    1.0000 </r>
       <r>   -4.2531    1.0000 </r>
       <r>   -4.2531    1.0000 </r>
       <r>   -4.2531    1.0000 </r>
       <r>   -4.1281    1.0000 </r>
       <r>   -4.1281    1.0000 </r>
       <r>   -4.1281    1.0000 </r>
       <r>   -4.1281    1.0000 </r>
       <r>   -3.3996    1.0000 </r>
       <r>   -3.3996    1.0000 </r>
       <r>   -3.3996    1.0000 </r>
       <r>   -3.3996    1.0000 </r>
       <r>   -3.1972    1.0000 </r>
       <r>   -3.0891    1.0000 </r>
       <r>   -3.0891    1.0000 </r>
       <r>   -3.0891    1.0000 </r>
       <r>   -3.0891    1.0000 </r>
       <r>   -2.3359    1.0000 </r>
       <r>   -2.3359    1.0000 </r>
       <r>   -2.3359    1.0000 </r>
       <r>   -2.3359    1.0000 </r>
       <r>   -1.4248    1.0000 </r>
       <r>   -1.4248    1.0000 </r>
       <r>   -1.4248    1.0000 </r>
       <r>   -1.4248    1.0000 </r>
       <r>   -0.9670    1.0000 </r>
       <r>   -0.9670    1.0000 </r>
       <r>   -0.9670    1.0000 </r>
       <r>   -0.9670    1.0000 </r>
       <r>   -0.6317    1.0000 </r>
       <r>   -0.3869    1.0000 </r>
       <r>   -0.3869    1.0000 </r>
       <r>   -0.3869    1.0000 </r>
       <r>   -0.3869    1.0000 </r>
       <r>   -0.2662    1.0000 </r>
       <r>   -0.2662    1.0000 </r>
       <r>   -0.2662    1.0000 </r>
       <r>   -0.2662    1.0000 </r>
       <r>    0.6440    1.0000 </r>
       <r>    0.6440    1.0000 </r>
       <r>    0.6440    1.0000 </r>
       <r>    0.6440    1.0000 </r>
       <r>    1.4284    1.0000 </r>
       <r>    1.4284    1.0000 </r>
       <r>    1.4284    1.0000 </r>
       <r>    1.4284    1.0000 </r>
       <r>    1.5798    1.0000 </r>
       <r>    1.5798    1.0000 </r>
       <r>    1.5798    1.0000 </r>
       <r>    1.5798    1.0000 </r>
       <r>    1.6794    1.0000 </r>
       <r>    1.6794    1.0000 </r>
       <r>    1.6794    1.0000 </r>
       <r>    1.6794    1.0000 </r>
       <r>    1.9328    1.0000 </r>
       <r>    1.9328    1.0000 </r>
       <r>    1.9328    1.0000 </r>
       <r>    1.9328    1.0000 </r>
       <r>    2.3129    1.0000 </r>
       <r>    2.9903    1.0000 </r>
       <r>    2.9903    1.0000 </r>
       <r>    2.9903    1.0000 </r>
       <r>    2.9903    1.0000 </r>
       <r>    3.0563    1.0000 </r>
       <r>    3.0563    1.0000 </r>
       <r>    3.0563    1.0000 </r>
       <r>    3.0563    1.0000 </r>
       <r>    3.0872    1.0000 </r>
       <r>    3.0872    1.0000 </r>
       <r>    3.4180    1.0000 </r>
       <r>    3.4180    1.0000 </r>
       <r>    3.4180    1.0000 </r>
       <r>    3.4180    1.0000 </r>
       <r>    3.7525    1.0000 </r>
       <r>    3.7525    1.0000 </r>
       <r>    3.7525    1.0000 </r>
       <r>    3.7525    1.0000 </r>
       <r>    3.8044    1.0000 </r>
       <r>    3.8044    1.0000 </r>
       <r>    3.8044    1.0000 </r>
       <r>    3.8044    1.0000 </r>
       <r>    3.9392    1.0000 </r>
       <r>    3.9392    1.0000 </r>
       <r>    4.1390    1.0000 </r>
       <r>    4.1390    1.0000 </r>
       <r>    4.1390    1.0000 </r>
       <r>    4.1390    1.0000 </r>
       <r>    4.2528    1.0000 </r>
       <r>    4.2528    1.0000 </r>
       <r>    4.2528    1.0000 </r>
       <r>    4.2528    1.0000 </r>
       <r>    4.4219    1.0000 </r>
       <r>    4.4219    1.0000 </r>
       <r>    4.4219    1.0000 </r>
       <r>    4.4219    1.0000 </r>
       <r>    5.1345    1.0000 </r>
       <r>    5.1451    1.0000 </r>
       <r>    5.1451    1.0000 </r>
       <r>    5.1451    1.0000 </r>
       <r>    5.1451    1.0000 </r>
       <r>    5.3975    1.0000 </r>
       <r>    5.3975    1.0000 </r>
       <r>    6.3997    0.0000 </r>
       <r>    6.9588    0.0000 </r>
       <r>    7.0035    0.0000 </r>
       <r>    7.2209    0.0000 </r>
       <r>    7.2209    0.0000 </r>
       <r>    7.2209    0.0000 </r>
       <r>    7.2209    0.0000 </r>
       <r>    7.5276    0.0000 </r>
       <r>    7.5276    0.0000 </r>
       <r>    7.5276    0.0000 </r>
       <r>    7.5276    0.0000 </r>
       <r>    7.5792    0.0000 </r>
       <r>    7.5792    0.0000 </r>
       <r>    7.5792    0.0000 </r>
       <r>    7.5792    0.0000 </r>
       <r>    7.9588    0.0000 </r>
       <r>    7.9588    0.0000 </r>
       <r>    7.9588    0.0000 </r>
       <r>    7.9588    0.0000 </r>
       <r>    8.1183    0.0000 </r>
       <r>    8.2653    0.0000 </r>
       <r>    8.2653    0.0000 </r>
       <r>    8.2653    0.0000 </r>
       <r>    8.2653    0.0000 </r>
       <r>    8.3065    0.0000 </r>
       <r>    8.3065    0.0000 </r>
       <r>    8.3065    0.0000 </r>
       <r>    8.3065    0.0000 </r>
       <r>    8.3576    0.0000 </r>
       <r>    8.3576    0.0000 </r>
       <r>    8.3576    0.0000 </r>
       <r>    8.3576    0.0000 </r>
       <r>    8.9612    0.0000 </r>
       <r>    8.9712    0.0000 </r>
       <r>    8.9712    0.0000 </r>
       <r>    9.0927    0.0000 </r>
      </set>
      <set comment="kpoint 5">
       <r>   -5.7987    1.0000 </r>
       <r>   -5.5618    1.0000 </r>
       <r>   -5.3198    1.0000 </r>
       <r>   -5.0935    1.0000 </r>
       <r>   -5.0935    1.0000 </r>
       <r>   -4.6496    1.0000 </r>
       <r>   -4.4060    1.0000 </r>
       <r>   -4.4060    1.0000 </r>
       <r>   -4.2238    1.0000 </r>
       <r>   -4.0095    1.0000 </r>
       <r>   -4.0095    1.0000 </r>
       <r>   -3.8964    1.0000 </r>
       <r>   -3.8964    1.0000 </r>
       <r>   -3.7623    1.0000 </r>
       <r>   -3.5258    1.0000 </r>
       <r>   -3.5223    1.0000 </r>
       <r>   -3.5223    1.0000 </r>
       <r>   -3.4130    1.0000 </r>
       <r>   -3.2834    1.0000 </r>
       <r>   -3.2834    1.0000 </r>
       <r>   -3.2173    1.0000 </r>
       <r>   -3.2173    1.0000 </r>
       <r>   -2.5836    1.0000 </r>
       <r>   -2.4907    1.0000 </r>
       <r>   -2.4907    1.0000 </r>
       <r>   -2.3825    1.0000 </r>
       <r>   -2.3825    1.0000 </r>
       <r>   -1.3197    1.0000 </r>
       <r>   -1.3191    1.0000 </r>
       <r>   -1.3191    1.0000 </r>
       <r>   -1.3113    1.0000 </r>
       <r>   -1.3113    1.0000 </r>
       <r>   -1.0360    1.0000 </r>
       <r>   -0.9350    1.0000 </r>
       <r>   -0.9019    1.0000 </r>
       <r>   -0.9019    1.0000 </r>
       <r>   -0.5836    1.0000 </r>
       <r>   -0.5836    1.0000 </r>
       <r>   -0.5524    1.0000 </r>
       <r>   -0.5302    1.0000 </r>
       <r>   -0.5302    1.0000 </r>
       <r>   -0.1915    1.0000 </r>
       <r>   -0.1915    1.0000 </r>
       <r>    0.1591    1.0000 </r>
       <r>    0.1626    1.0000 </r>
       <r>    0.1626    1.0000 </r>
       <r>    0.8595    1.0000 </r>
       <r>    0.8595    1.0000 </r>
       <r>    0.9709    1.0000 </r>
       <r>    1.7462    1.0000 </r>
       <r>    1.7462    1.0000 </r>
       <r>    1.8615    1.0000 </r>
       <r>    1.8615    1.0000 </r>
       <r>    1.9135    1.0000 </r>
       <r>    1.9135    1.0000 </r>
       <r>    2.0779    1.0000 </r>
       <r>    2.0779    1.0000 </r>
       <r>    2.2957    1.0000 </r>
       <r>    2.3163    1.0000 </r>
       <r>    2.3163    1.0000 </r>
       <r>    2.3608    1.0000 </r>
       <r>    2.3608    1.0000 </r>
       <r>    2.4025    1.0000 </r>
       <r>    2.4025    1.0000 </r>
       <r>    2.5260    1.0000 </r>
       <r>    2.5260    1.0000 </r>
       <r>    2.6554    1.0000 </r>
       <r>    2.7043    1.0000 </r>
       <r>    2.8389    1.0000 </r>
       <r>    2.8592    1.0000 </r>
       <r>    2.8592    1.0000 </r>
       <r>    2.8868    1.0000 </r>
       <r>    2.9266    1.0000 </r>
       <r>    2.9628    1.0000 </r>
       <r>    2.9628    1.0000 </r>
       <r>    3.0536    1.0000 </r>
       <r>    3.1976    1.0000 </r>
       <r>    3.1976    1.0000 </r>
       <r>    3.2009    1.0000 </r>
       <r>    3.2009    1.0000 </r>
       <r>    3.2668    1.0000 </r>
       <r>    3.2668    1.0000 </r>
       <r>    3.3973    1.0000 </r>
       <r>    3.6245    1.0000 </r>
       <r>    3.6630    1.0000 </r>
       <r>    3.6630    1.0000 </r>
       <r>    3.6848    1.0000 </r>
       <r>    3.6848    1.0000 </r>
       <r>    3.9016    1.0000 </r>
       <r>    3.9137    1.0000 </r>
       <r>    3.9137    1.0000 </r>
       <r>    3.9991    1.0000 </r>
       <r>    4.0478    1.0000 </r>
       <r>    4.1744    1.0000 </r>
       <r>    4.1744    1.0000 </r>
       <r>    4.2367    1.0000 </r>
       <r>    4.2733    1.0000 </r>
       <r>    4.2733    1.0000 </r>
       <r>    4.2886    1.0000 </r>
       <r>    4.3014    1.0000 </r>
       <r>    4.4428    1.0000 </r>
       <r>    4.4529    1.0000 </r>
       <r>    4.8471    1.0000 </r>
       <r>    4.8471    1.0000 </r>
       <r>    4.8993    1.0000 </r>
       <r>    5.0340    1.0000 </r>
       <r>    5.2247    1.0000 </r>
       <r>    5.4741    1.0000 </r>
       <r>    6.6007    0.0000 </r>
       <r>    7.1698    0.0000 </r>
       <r>    7.3417    0.0000 </r>
       <r>    7.3417    0.0000 </r>
       <r>    7.3481    0.0000 </r>
       <r>    7.5531    0.0000 </r>
       <r>    7.5548    0.0000 </r>
       <r>    7.5548    0.0000 </r>
       <r>    7.8387    0.0000 </r>
       <r>    7.8787    0.0000 </r>
       <r>    7.9515    0.0000 </r>
       <r>    7.9515    0.0000 </r>
       <r>    8.0155    0.0000 </r>
       <r>    8.1402    0.0000 </r>
       <r>    8.2006    0.0000 </r>
       <r>    8.2006    0.0000 </r>
       <r>    8.4346    0.0000 </r>
       <r>    8.4346    0.0000 </r>
       <r>    8.4477    0.0000 </r>
       <r>    8.4477    0.0000 </r>
       <r>    8.4683    0.0000 </r>
       <r>    8.4683    0.0000 </r>
       <r>    8.5478    0.0000 </r>
       <r>    8.6138    0.0000 </r>
       <r>    8.8101    0.0000 </r>
       <r>    8.8101    0.0000 </r>
       <r>    8.8364    0.0000 </r>
       <r>    8.8364    0.0000 </r>
       <r>    8.8512    0.0000 </r>
       <r>    8.8512    0.0000 </r>
       <r>    8.9998    0.0000 </r>
       <r>    9.0291    0.0000 </r>
       <r>    9.0293    0.0000 </r>
       <r>    9.0550    0.0000 </r>
       <r>    9.0556    0.0000 </r>
       <r>    9.0571    0.0000 </r>
      </set>
      <set comment="kpoint 6">
       <r>   -5.8893    1.0000 </r>
       <r>   -5.4147    1.0000 </r>
       <r>   -5.4147    1.0000 </r>
       <r>   -4.9386    1.0000 </r>
       <r>   -4.9386    1.0000 </r>
       <r>   -4.5182    1.0000 </r>
       <r>   -4.5182    1.0000 </r>
       <r>   -4.5182    1.0000 </r>
       <r>   -4.5182    1.0000 </r>
       <r>   -4.0873    1.0000 </r>
       <r>   -4.0371    1.0000 </r>
       <r>   -4.0371    1.0000 </r>
       <r>   -3.8831    1.0000 </r>
       <r>   -3.8831    1.0000 </r>
       <r>   -3.4192    1.0000 </r>
       <r>   -3.4192    1.0000 </r>
       <r>   -3.4192    1.0000 </r>
       <r>   -3.4192    1.0000 </r>
       <r>   -3.1198    1.0000 </r>
       <r>   -3.1198    1.0000 </r>
       <r>   -2.9329    1.0000 </r>
       <r>   -2.9329    1.0000 </r>
       <r>   -2.9329    1.0000 </r>
       <r>   -2.9329    1.0000 </r>
       <r>   -2.6142    1.0000 </r>
       <r>   -2.6142    1.0000 </r>
       <r>   -2.1276    1.0000 </r>
       <r>   -1.7238    1.0000 </r>
       <r>   -1.0892    1.0000 </r>
       <r>   -1.0892    1.0000 </r>
       <r>   -0.9065    1.0000 </r>
       <r>   -0.9065    1.0000 </r>
       <r>   -0.9065    1.0000 </r>
       <r>   -0.9065    1.0000 </r>
       <r>   -0.8583    1.0000 </r>
       <r>   -0.8583    1.0000 </r>
       <r>   -0.7147    1.0000 </r>
       <r>   -0.7147    1.0000 </r>
       <r>   -0.7147    1.0000 </r>
       <r>   -0.7147    1.0000 </r>
       <r>   -0.6682    1.0000 </r>
       <r>   -0.6682    1.0000 </r>
       <r>    0.3500    1.0000 </r>
       <r>    0.3739    1.0000 </r>
       <r>    0.3739    1.0000 </r>
       <r>    0.5598    1.0000 </r>
       <r>    0.5598    1.0000 </r>
       <r>    0.5598    1.0000 </r>
       <r>    0.5598    1.0000 </r>
       <r>    1.6214    1.0000 </r>
       <r>    1.6214    1.0000 </r>
       <r>    1.8815    1.0000 </r>
       <r>    1.8815    1.0000 </r>
       <r>    1.8815    1.0000 </r>
       <r>    1.8815    1.0000 </r>
       <r>    1.9099    1.0000 </r>
       <r>    1.9099    1.0000 </r>
       <r>    1.9845    1.0000 </r>
       <r>    2.0773    1.0000 </r>
       <r>    2.2424    1.0000 </r>
       <r>    2.2424    1.0000 </r>
       <r>    2.2424    1.0000 </r>
       <r>    2.2424    1.0000 </r>
       <r>    2.4002    1.0000 </r>
       <r>    2.4002    1.0000 </r>
       <r>    2.7067    1.0000 </r>
       <r>    2.7067    1.0000 </r>
       <r>    2.7510    1.0000 </r>
       <r>    2.7510    1.0000 </r>
       <r>    2.8422    1.0000 </r>
       <r>    2.8422    1.0000 </r>
       <r>    2.9031    1.0000 </r>
       <r>    2.9031    1.0000 </r>
       <r>    3.1706    1.0000 </r>
       <r>    3.2089    1.0000 </r>
       <r>    3.2089    1.0000 </r>
       <r>    3.2089    1.0000 </r>
       <r>    3.2089    1.0000 </r>
       <r>    3.3939    1.0000 </r>
       <r>    3.3939    1.0000 </r>
       <r>    3.3939    1.0000 </r>
       <r>    3.3939    1.0000 </r>
       <r>    3.4997    1.0000 </r>
       <r>    3.4997    1.0000 </r>
       <r>    3.5859    1.0000 </r>
       <r>    3.5859    1.0000 </r>
       <r>    3.8575    1.0000 </r>
       <r>    3.8575    1.0000 </r>
       <r>    3.8575    1.0000 </r>
       <r>    3.8575    1.0000 </r>
       <r>    3.9524    1.0000 </r>
       <r>    3.9524    1.0000 </r>
       <r>    4.2022    1.0000 </r>
       <r>    4.2022    1.0000 </r>
       <r>    4.2395    1.0000 </r>
       <r>    4.5010    1.0000 </r>
       <r>    4.5198    1.0000 </r>
       <r>    4.5198    1.0000 </r>
       <r>    4.5198    1.0000 </r>
       <r>    4.5198    1.0000 </r>
       <r>    4.5959    1.0000 </r>
       <r>    4.5959    1.0000 </r>
       <r>    4.7212    1.0000 </r>
       <r>    4.7212    1.0000 </r>
       <r>    4.9017    1.0000 </r>
       <r>    4.9017    1.0000 </r>
       <r>    4.9645    1.0000 </r>
       <r>    5.7091    1.0000 </r>
       <r>    6.7606    0.0000 </r>
       <r>    7.0498    0.0000 </r>
       <r>    7.0498    0.0000 </r>
       <r>    7.2601    0.0000 </r>
       <r>    7.2601    0.0000 </r>
       <r>    7.5616    0.0000 </r>
       <r>    7.5616    0.0000 </r>
       <r>    7.6189    0.0000 </r>
       <r>    7.6189    0.0000 </r>
       <r>    7.7086    0.0000 </r>
       <r>    7.7086    0.0000 </r>
       <r>    7.7086    0.0000 </r>
       <r>    7.7086    0.0000 </r>
       <r>    7.9060    0.0000 </r>
       <r>    7.9060    0.0000 </r>
       <r>    8.2670    0.0000 </r>
       <r>    8.2670    0.0000 </r>
       <r>    8.2787    0.0000 </r>
       <r>    8.3707    0.0000 </r>
       <r>    8.4505    0.0000 </r>
       <r>    8.4505    0.0000 </r>
       <r>    8.4505    0.0000 </r>
       <r>    8.4505    0.0000 </r>
       <r>    8.4897    0.0000 </r>
       <r>    8.4897    0.0000 </r>
       <r>    8.4897    0.0000 </r>
       <r>    8.4897    0.0000 </r>
       <r>    8.6422    0.0000 </r>
       <r>    8.7638    0.0000 </r>
       <r>    8.7963    0.0000 </r>
       <r>    9.0457    0.0000 </r>
       <r>    9.0458    0.0000 </r>
       <r>    9.0786    0.0000 </r>
       <r>    9.0818    0.0000 </r>
       <r>    9.1616    0.0000 </r>
       <r>    9.2098    0.0000 </r>
      </set>
      <set comment="kpoint 7">
       <r>   -5.6471    1.0000 </r>
       <r>   -5.6471    1.0000 </r>
       <r>   -5.1817    1.0000 </r>
       <r>   -5.1817    1.0000 </r>
       <r>   -5.1817    1.0000 </r>
       <r>   -5.1817    1.0000 </r>
       <r>   -3.8416    1.0000 </r>
       <r>   -3.8416    1.0000 </r>
       <r>   -3.8416    1.0000 </r>
       <r>   -3.8416    1.0000 </r>
       <r>   -3.8416    1.0000 </r>
       <r>   -3.8416    1.0000 </r>
       <r>   -3.8416    1.0000 </r>
       <r>   -3.8416    1.0000 </r>
       <r>   -3.6403    1.0000 </r>
       <r>   -3.6403    1.0000 </r>
       <r>   -3.6403    1.0000 </r>
       <r>   -3.6403    1.0000 </r>
       <r>   -3.6403    1.0000 </r>
       <r>   -3.6403    1.0000 </r>
       <r>   -3.6403    1.0000 </r>
       <r>   -3.6403    1.0000 </r>
       <r>   -1.9865    1.0000 </r>
       <r>   -1.9865    1.0000 </r>
       <r>   -1.8667    1.0000 </r>
       <r>   -1.8667    1.0000 </r>
       <r>   -1.8667    1.0000 </r>
       <r>   -1.8667    1.0000 </r>
       <r>   -1.8667    1.0000 </r>
       <r>   -1.8667    1.0000 </r>
       <r>   -1.8667    1.0000 </r>
       <r>   -1.8667    1.0000 </r>
       <r>   -0.7752    1.0000 </r>
       <r>   -0.7752    1.0000 </r>
       <r>   -0.7752    1.0000 </r>
       <r>   -0.7752    1.0000 </r>
       <r>   -0.7752    1.0000 </r>
       <r>   -0.7752    1.0000 </r>
       <r>   -0.7752    1.0000 </r>
       <r>   -0.7752    1.0000 </r>
       <r>    0.1864    1.0000 </r>
       <r>    0.1864    1.0000 </r>
       <r>    0.1864    1.0000 </r>
       <r>    0.1864    1.0000 </r>
       <r>    0.1864    1.0000 </r>
       <r>    0.1864    1.0000 </r>
       <r>    0.1864    1.0000 </r>
       <r>    0.1864    1.0000 </r>
       <r>    2.1127    1.0000 </r>
       <r>    2.1127    1.0000 </r>
       <r>    2.1127    1.0000 </r>
       <r>    2.1127    1.0000 </r>
       <r>    2.1853    1.0000 </r>
       <r>    2.1853    1.0000 </r>
       <r>    2.1853    1.0000 </r>
       <r>    2.1853    1.0000 </r>
       <r>    2.1853    1.0000 </r>
       <r>    2.1853    1.0000 </r>
       <r>    2.1853    1.0000 </r>
       <r>    2.1853    1.0000 </r>
       <r>    2.2605    1.0000 </r>
       <r>    2.2605    1.0000 </r>
       <r>    2.2605    1.0000 </r>
       <r>    2.2605    1.0000 </r>
       <r>    2.2605    1.0000 </r>
       <r>    2.2605    1.0000 </r>
       <r>    2.2605    1.0000 </r>
       <r>    2.2605    1.0000 </r>
       <r>    2.9778    1.0000 </r>
       <r>    2.9778    1.0000 </r>
       <r>    3.0528    1.0000 </r>
       <r>    3.0528    1.0000 </r>
       <r>    3.0528    1.0000 </r>
       <r>    3.0528    1.0000 </r>
       <r>    3.0528    1.0000 </r>
       <r>    3.0528    1.0000 </r>
       <r>    3.0528    1.0000 </r>
       <r>    3.0528    1.0000 </r>
       <r>    3.4169    1.0000 </r>
       <r>    3.4169    1.0000 </r>
       <r>    3.4169    1.0000 </r>
       <r>    3.4169    1.0000 </r>
       <r>    3.5346    1.0000 </r>
       <r>    3.5346    1.0000 </r>
       <r>    3.5346    1.0000 </r>
       <r>    3.5346    1.0000 </r>
       <r>    3.5346    1.0000 </r>
       <r>    3.5346    1.0000 </r>
       <r>    3.5346    1.0000 </r>
       <r>    3.5346    1.0000 </r>
       <r>    3.7913    1.0000 </r>
       <r>    3.7913    1.0000 </r>
       <r>    4.0529    1.0000 </r>
       <r>    4.0529    1.0000 </r>
       <r>    4.0529    1.0000 </r>
       <r>    4.0529    1.0000 </r>
       <r>    4.0529    1.0000 </r>
       <r>    4.0529    1.0000 </r>
       <r>    4.0529    1.0000 </r>
       <r>    4.0529    1.0000 </r>
       <r>    4.6355    1.0000 </r>
       <r>    4.6355    1.0000 </r>
       <r>    4.6355    1.0000 </r>
       <r>    4.6355    1.0000 </r>
       <r>    5.2630    1.0000 </r>
       <r>    5.2630    1.0000 </r>
       <r>    5.2630    1.0000 </r>
       <r>    5.2630    1.0000 </r>
       <r>    6.5376    0.0000 </r>
       <r>    6.5376    0.0000 </r>
       <r>    7.5337    0.0000 </r>
       <r>    7.5337    0.0000 </r>
       <r>    7.8704    0.0000 </r>
       <r>    7.8704    0.0000 </r>
       <r>    7.8704    0.0000 </r>
       <r>    7.8704    0.0000 </r>
       <r>    7.8704    0.0000 </r>
       <r>    7.8704    0.0000 </r>
       <r>    7.8704    0.0000 </r>
       <r>    7.8704    0.0000 </r>
       <r>    8.5765    0.0000 </r>
       <r>    8.5765    0.0000 </r>
       <r>    8.5765    0.0000 </r>
       <r>    8.5765    0.0000 </r>
       <r>    8.5765    0.0000 </r>
       <r>    8.5765    0.0000 </r>
       <r>    8.5765    0.0000 </r>
       <r>    8.5765    0.0000 </r>
       <r>    8.6814    0.0000 </r>
       <r>    8.6814    0.0000 </r>
       <r>    8.6814    0.0000 </r>
       <r>    8.6814    0.0000 </r>
       <r>    8.6814    0.0000 </r>
       <r>    8.6814    0.0000 </r>
       <r>    8.6814    0.0000 </r>
       <r>    8.6814    0.0000 </r>
       <r>    8.8712    0.0000 </r>
       <r>    8.8712    0.0000 </r>
       <r>    8.8712    0.0000 </r>
       <r>    8.8712    0.0000 </r>
       <r>    9.3879    0.0000 </r>
       <r>    9.3880    0.0000 </r>
       <r>    9.3884    0.0000 </r>
       <r>    9.3894    0.0000 </r>
      </set>
      <set comment="kpoint 8">
       <r>   -5.5300    1.0000 </r>
       <r>   -5.5300    1.0000 </r>
       <r>   -5.5300    1.0000 </r>
       <r>   -5.5300    1.0000 </r>
       <r>   -4.6122    1.0000 </r>
       <r>   -4.6122    1.0000 </r>
       <r>   -4.6122    1.0000 </r>
       <r>   -4.6122    1.0000 </r>
       <r>   -3.7804    1.0000 </r>
       <r>   -3.7804    1.0000 </r>
       <r>   -3.7804    1.0000 </r>
       <r>   -3.7804    1.0000 </r>
       <r>   -3.7804    1.0000 </r>
       <r>   -3.7804    1.0000 </r>
       <r>   -3.7804    1.0000 </r>
       <r>   -3.7804    1.0000 </r>
       <r>   -3.5580    1.0000 </r>
       <r>   -3.5580    1.0000 </r>
       <r>   -3.5580    1.0000 </r>
       <r>   -3.5580    1.0000 </r>
       <r>   -2.9059    1.0000 </r>
       <r>   -2.9059    1.0000 </r>
       <r>   -2.9059    1.0000 </r>
       <r>   -2.9059    1.0000 </r>
       <r>   -1.9484    1.0000 </r>
       <r>   -1.9484    1.0000 </r>
       <r>   -1.9484    1.0000 </r>
       <r>   -1.9484    1.0000 </r>
       <r>   -1.8227    1.0000 </r>
       <r>   -1.8227    1.0000 </r>
       <r>   -1.0285    1.0000 </r>
       <r>   -1.0285    1.0000 </r>
       <r>   -1.0285    1.0000 </r>
       <r>   -1.0285    1.0000 </r>
       <r>   -0.8124    1.0000 </r>
       <r>   -0.8124    1.0000 </r>
       <r>   -0.8124    1.0000 </r>
       <r>   -0.8124    1.0000 </r>
       <r>   -0.1953    1.0000 </r>
       <r>   -0.1953    1.0000 </r>
       <r>   -0.1953    1.0000 </r>
       <r>   -0.1953    1.0000 </r>
       <r>   -0.1953    1.0000 </r>
       <r>   -0.1953    1.0000 </r>
       <r>   -0.1953    1.0000 </r>
       <r>   -0.1953    1.0000 </r>
       <r>    1.1421    1.0000 </r>
       <r>    1.1421    1.0000 </r>
       <r>    1.1421    1.0000 </r>
       <r>    1.1421    1.0000 </r>
       <r>    1.9774    1.0000 </r>
       <r>    1.9774    1.0000 </r>
       <r>    2.0618    1.0000 </r>
       <r>    2.0618    1.0000 </r>
       <r>    2.0618    1.0000 </r>
       <r>    2.0618    1.0000 </r>
       <r>    2.6065    1.0000 </r>
       <r>    2.6065    1.0000 </r>
       <r>    2.6065    1.0000 </r>
       <r>    2.6065    1.0000 </r>
       <r>    2.6065    1.0000 </r>
       <r>    2.6065    1.0000 </r>
       <r>    2.6065    1.0000 </r>
       <r>    2.6065    1.0000 </r>
       <r>    2.6713    1.0000 </r>
       <r>    2.6713    1.0000 </r>
       <r>    2.6713    1.0000 </r>
       <r>    2.6713    1.0000 </r>
       <r>    2.6802    1.0000 </r>
       <r>    2.6802    1.0000 </r>
       <r>    2.6802    1.0000 </r>
       <r>    2.6802    1.0000 </r>
       <r>    2.7310    1.0000 </r>
       <r>    2.7310    1.0000 </r>
       <r>    2.7310    1.0000 </r>
       <r>    2.7310    1.0000 </r>
       <r>    3.1026    1.0000 </r>
       <r>    3.1026    1.0000 </r>
       <r>    3.1026    1.0000 </r>
       <r>    3.1026    1.0000 </r>
       <r>    3.2314    1.0000 </r>
       <r>    3.2314    1.0000 </r>
       <r>    3.2314    1.0000 </r>
       <r>    3.2314    1.0000 </r>
       <r>    3.7030    1.0000 </r>
       <r>    3.7030    1.0000 </r>
       <r>    3.7030    1.0000 </r>
       <r>    3.7030    1.0000 </r>
       <r>    3.7030    1.0000 </r>
       <r>    3.7030    1.0000 </r>
       <r>    3.7030    1.0000 </r>
       <r>    3.7030    1.0000 </r>
       <r>    4.1816    1.0000 </r>
       <r>    4.1816    1.0000 </r>
       <r>    4.1816    1.0000 </r>
       <r>    4.1816    1.0000 </r>
       <r>    4.1948    1.0000 </r>
       <r>    4.1948    1.0000 </r>
       <r>    4.1948    1.0000 </r>
       <r>    4.1948    1.0000 </r>
       <r>    4.5562    1.0000 </r>
       <r>    4.5562    1.0000 </r>
       <r>    4.5562    1.0000 </r>
       <r>    4.5562    1.0000 </r>
       <r>    5.1219    1.0000 </r>
       <r>    5.1219    1.0000 </r>
       <r>    5.1219    1.0000 </r>
       <r>    5.1219    1.0000 </r>
       <r>    7.1516    0.0000 </r>
       <r>    7.1516    0.0000 </r>
       <r>    7.1516    0.0000 </r>
       <r>    7.1516    0.0000 </r>
       <r>    8.0726    0.0000 </r>
       <r>    8.0726    0.0000 </r>
       <r>    8.0726    0.0000 </r>
       <r>    8.0726    0.0000 </r>
       <r>    8.0726    0.0000 </r>
       <r>    8.0726    0.0000 </r>
       <r>    8.0726    0.0000 </r>
       <r>    8.0726    0.0000 </r>
       <r>    8.1667    0.0000 </r>
       <r>    8.1667    0.0000 </r>
       <r>    8.1667    0.0000 </r>
       <r>    8.1667    0.0000 </r>
       <r>    8.4135    0.0000 </r>
       <r>    8.4135    0.0000 </r>
       <r>    8.4135    0.0000 </r>
       <r>    8.4135    0.0000 </r>
       <r>    8.5104    0.0000 </r>
       <r>    8.5104    0.0000 </r>
       <r>    8.5104    0.0000 </r>
       <r>    8.5104    0.0000 </r>
       <r>    8.9131    0.0000 </r>
       <r>    8.9131    0.0000 </r>
       <r>    8.9131    0.0000 </r>
       <r>    8.9131    0.0000 </r>
       <r>    8.9433    0.0000 </r>
       <r>    8.9433    0.0000 </r>
       <r>    8.9433    0.0000 </r>
       <r>    8.9433    0.0000 </r>
       <r>    9.0410    0.0000 </r>
       <r>    9.0411    0.0000 </r>
       <r>    9.0411    0.0000 </r>
       <r>    9.0418    0.0000 </r>
      </set>
     </set>
    </set>
   </array>
  </eigenvalues>
  <separator name="orbital magnetization" >
   <v name="MAGDIPOLOUT">      0.00000000      0.00000000      0.00000000</v>
  </separator>
  <dos>
   <i name="efermi">      6.06974560 </i>
   <total>
    <array>
     <dimension dim="1">gridpoints</dimension>
     <dimension dim="2">spin</dimension>
     <field>energy</field>
     <field>total</field>
     <field>integrated</field>
     <set>
      <set comment="spin 1">
       <r>    -6.9073     0.0000     0.0000 </r>
       <r>    -6.8504     0.0000     0.0000 </r>
       <r>    -6.7935     0.0000     0.0000 </r>
       <r>    -6.7366     0.0000     0.0000 </r>
       <r>    -6.6797     0.0000     0.0000 </r>
       <r>    -6.6227     0.0000     0.0000 </r>
       <r>    -6.5658     0.0000     0.0000 </r>
       <r>    -6.5089     0.0000     0.0000 </r>
       <r>    -6.4520     0.0000     0.0000 </r>
       <r>    -6.3951     0.0000     0.0000 </r>
       <r>    -6.3382     0.0000     0.0000 </r>
       <r>    -6.2813     0.0000     0.0000 </r>
       <r>    -6.2244     0.0023     0.0001 </r>
       <r>    -6.1675     0.0823     0.0048 </r>
       <r>    -6.1106     0.4209     0.0288 </r>
       <r>    -6.0537     1.9356     0.1389 </r>
       <r>    -5.9967     4.1483     0.3750 </r>
       <r>    -5.9398     2.0618     0.4923 </r>
       <r>    -5.8829     3.4656     0.6895 </r>
       <r>    -5.8260     5.6170     1.0092 </r>
       <r>    -5.7691     9.8618     1.5704 </r>
       <r>    -5.7122     4.5916     1.8317 </r>
       <r>    -5.6553     1.6088     1.9233 </r>
[...]
        <r>  0.0000  0.0043  0.0000 </r>
       </set>
       <set comment="band 138">
        <r>  0.0001  0.0035  0.0000 </r>
        <r>  0.0003  0.0028  0.0000 </r>
        <r>  0.0004  0.0019  0.0000 </r>
        <r>  0.0001  0.0041  0.0000 </r>
        <r>  0.0002  0.0036  0.0000 </r>
        <r>  0.0002  0.0030  0.0000 </r>
        <r>  0.0004  0.0019  0.0000 </r>
        <r>  0.0001  0.0030  0.0000 </r>
        <r>  0.0001  0.0041  0.0000 </r>
        <r>  0.0002  0.0030  0.0000 </r>
        <r>  0.0001  0.0041  0.0000 </r>
        <r>  0.0002  0.0036  0.0000 </r>
        <r>  0.0001  0.0041  0.0000 </r>
        <r>  0.0004  0.0019  0.0000 </r>
        <r>  0.0001  0.0030  0.0000 </r>
        <r>  0.0004  0.0019  0.0000 </r>
        <r>  0.0001  0.0035  0.0000 </r>
        <r>  0.0003  0.0028  0.0000 </r>
        <r>  0.0001  0.0030  0.0000 </r>
        <r>  0.0001  0.0041  0.0000 </r>
        <r>  0.0004  0.0019  0.0000 </r>
        <r>  0.0003  0.0028  0.0000 </r>
        <r>  0.0004  0.0019  0.0000 </r>
        <r>  0.0001  0.0035  0.0000 </r>
        <r>  0.0002  0.0036  0.0000 </r>
        <r>  0.0002  0.0030  0.0000 </r>
        <r>  0.0001  0.0041  0.0000 </r>
        <r>  0.0005  0.0018  0.0000 </r>
        <r>  0.0001  0.0039  0.0000 </r>
        <r>  0.0002  0.0025  0.0000 </r>
        <r>  0.0000  0.0042  0.0000 </r>
        <r>  0.0003  0.0024  0.0000 </r>
        <r>  0.0002  0.0040  0.0000 </r>
        <r>  0.0001  0.0031  0.0000 </r>
        <r>  0.0003  0.0029  0.0000 </r>
        <r>  0.0002  0.0031  0.0000 </r>
        <r>  0.0002  0.0040  0.0000 </r>
        <r>  0.0000  0.0042  0.0000 </r>
        <r>  0.0003  0.0024  0.0000 </r>
        <r>  0.0002  0.0031  0.0000 </r>
        <r>  0.0001  0.0031  0.0000 </r>
        <r>  0.0003  0.0029  0.0000 </r>
        <r>  0.0002  0.0025  0.0000 </r>
        <r>  0.0005  0.0018  0.0000 </r>
        <r>  0.0001  0.0039  0.0000 </r>
        <r>  0.0003  0.0029  0.0000 </r>
        <r>  0.0002  0.0031  0.0000 </r>
        <r>  0.0001  0.0031  0.0000 </r>
        <r>  0.0001  0.0039  0.0000 </r>
        <r>  0.0002  0.0025  0.0000 </r>
        <r>  0.0005  0.0018  0.0000 </r>
        <r>  0.0003  0.0024  0.0000 </r>
        <r>  0.0002  0.0040  0.0000 </r>
        <r>  0.0000  0.0042  0.0000 </r>
       </set>
       <set comment="band 139">
        <r>  0.0004  0.0028  0.0000 </r>
        <r>  0.0003  0.0026  0.0000 </r>
        <r>  0.0001  0.0039  0.0000 </r>
        <r>  0.0003  0.0020  0.0000 </r>
        <r>  0.0001  0.0036  0.0000 </r>
        <r>  0.0004  0.0024  0.0000 </r>
        <r>  0.0000  0.0037  0.0000 </r>
        <r>  0.0002  0.0037  0.0000 </r>
        <r>  0.0001  0.0030  0.0000 </r>
        <r>  0.0004  0.0024  0.0000 </r>
        <r>  0.0003  0.0020  0.0000 </r>
        <r>  0.0001  0.0036  0.0000 </r>
        <r>  0.0001  0.0030  0.0000 </r>
        <r>  0.0001  0.0037  0.0000 </r>
        <r>  0.0002  0.0037  0.0000 </r>
        <r>  0.0001  0.0039  0.0000 </r>
        <r>  0.0004  0.0028  0.0000 </r>
        <r>  0.0003  0.0026  0.0000 </r>
        <r>  0.0002  0.0037  0.0000 </r>
        <r>  0.0001  0.0030  0.0000 </r>
        <r>  0.0001  0.0037  0.0000 </r>
        <r>  0.0003  0.0026  0.0000 </r>
        <r>  0.0001  0.0039  0.0000 </r>
        <r>  0.0004  0.0028  0.0000 </r>
        <r>  0.0001  0.0036  0.0000 </r>
        <r>  0.0004  0.0024  0.0000 </r>
        <r>  0.0003  0.0020  0.0000 </r>
        <r>  0.0000  0.0035  0.0000 </r>
        <r>  0.0003  0.0026  0.0000 </r>
        <r>  0.0001  0.0037  0.0000 </r>
        <r>  0.0004  0.0022  0.0000 </r>
        <r>  0.0003  0.0029  0.0000 </r>
        <r>  0.0001  0.0029  0.0000 </r>
        <r>  0.0001  0.0043  0.0000 </r>
        <r>  0.0002  0.0031  0.0000 </r>
        <r>  0.0003  0.0027  0.0000 </r>
        <r>  0.0001  0.0029  0.0000 </r>
        <r>  0.0004  0.0022  0.0000 </r>
        <r>  0.0003  0.0029  0.0000 </r>
        <r>  0.0003  0.0027  0.0000 </r>
        <r>  0.0001  0.0043  0.0000 </r>
        <r>  0.0002  0.0031  0.0000 </r>
        <r>  0.0001  0.0037  0.0000 </r>
        <r>  0.0000  0.0035  0.0000 </r>
        <r>  0.0003  0.0025  0.0000 </r>
        <r>  0.0002  0.0031  0.0000 </r>
        <r>  0.0003  0.0027  0.0000 </r>
        <r>  0.0001  0.0043  0.0000 </r>
        <r>  0.0003  0.0025  0.0000 </r>
        <r>  0.0001  0.0037  0.0000 </r>
        <r>  0.0000  0.0035  0.0000 </r>
        <r>  0.0003  0.0029  0.0000 </r>
        <r>  0.0001  0.0029  0.0000 </r>
        <r>  0.0004  0.0022  0.0000 </r>
       </set>
       <set comment="band 140">
        <r>  0.0000  0.0036  0.0000 </r>
        <r>  0.0001  0.0030  0.0000 </r>
        <r>  0.0002  0.0036  0.0000 </r>
        <r>  0.0004  0.0017  0.0000 </r>
        <r>  0.0005  0.0021  0.0000 </r>
        <r>  0.0000  0.0040  0.0000 </r>
        <r>  0.0003  0.0037  0.0000 </r>
        <r>  0.0000  0.0042  0.0000 </r>
        <r>  0.0004  0.0018  0.0000 </r>
        <r>  0.0000  0.0040  0.0000 </r>
        <r>  0.0004  0.0017  0.0000 </r>
        <r>  0.0005  0.0021  0.0000 </r>
        <r>  0.0004  0.0018  0.0000 </r>
        <r>  0.0003  0.0037  0.0000 </r>
        <r>  0.0000  0.0042  0.0000 </r>
        <r>  0.0002  0.0036  0.0000 </r>
        <r>  0.0000  0.0036  0.0000 </r>
        <r>  0.0001  0.0030  0.0000 </r>
        <r>  0.0000  0.0042  0.0000 </r>
        <r>  0.0004  0.0018  0.0000 </r>
        <r>  0.0003  0.0037  0.0000 </r>
        <r>  0.0001  0.0030  0.0000 </r>
        <r>  0.0002  0.0036  0.0000 </r>
        <r>  0.0000  0.0036  0.0000 </r>
        <r>  0.0005  0.0021  0.0000 </r>
        <r>  0.0000  0.0040  0.0000 </r>
        <r>  0.0004  0.0017  0.0000 </r>
        <r>  0.0001  0.0044  0.0000 </r>
        <r>  0.0005  0.0018  0.0000 </r>
        <r>  0.0001  0.0035  0.0000 </r>
        <r>  0.0004  0.0016  0.0000 </r>
        <r>  0.0000  0.0036  0.0000 </r>
        <r>  0.0003  0.0028  0.0000 </r>
        <r>  0.0000  0.0033  0.0000 </r>
        <r>  0.0001  0.0039  0.0000 </r>
        <r>  0.0002  0.0029  0.0000 </r>
        <r>  0.0003  0.0028  0.0000 </r>
        <r>  0.0004  0.0016  0.0000 </r>
        <r>  0.0000  0.0036  0.0000 </r>
        <r>  0.0002  0.0029  0.0000 </r>
        <r>  0.0000  0.0033  0.0000 </r>
        <r>  0.0001  0.0039  0.0000 </r>
        <r>  0.0001  0.0035  0.0000 </r>
        <r>  0.0001  0.0044  0.0000 </r>
        <r>  0.0005  0.0018  0.0000 </r>
        <r>  0.0001  0.0039  0.0000 </r>
        <r>  0.0002  0.0029  0.0000 </r>
        <r>  0.0000  0.0034  0.0000 </r>
        <r>  0.0005  0.0018  0.0000 </r>
        <r>  0.0001  0.0035  0.0000 </r>
        <r>  0.0001  0.0044  0.0000 </r>
        <r>  0.0000  0.0036  0.0000 </r>
        <r>  0.0003  0.0028  0.0000 </r>
        <r>  0.0004  0.0016  0.0000 </r>
       </set>
       <set comment="band 141">
        <r>  0.0001  0.0028  0.0000 </r>
        <r>  0.0003  0.0068  0.0000 </r>
        <r>  0.0008  0.0038  0.0000 </r>
        <r>  0.0014  0.0040  0.0000 </r>
        <r>  0.0009  0.0059  0.0000 </r>
        <r>  0.0020  0.0028  0.0000 </r>
        <r>  0.0011  0.0033  0.0000 </r>
        <r>  0.0002  0.0076  0.0000 </r>
        <r>  0.0004  0.0024  0.0000 </r>
        <r>  0.0020  0.0028  0.0000 </r>
        <r>  0.0014  0.0040  0.0000 </r>
        <r>  0.0009  0.0059  0.0000 </r>
        <r>  0.0004  0.0024  0.0000 </r>
        <r>  0.0011  0.0033  0.0000 </r>
        <r>  0.0002  0.0076  0.0000 </r>
        <r>  0.0008  0.0038  0.0000 </r>
        <r>  0.0001  0.0028  0.0000 </r>
        <r>  0.0003  0.0068  0.0000 </r>
        <r>  0.0002  0.0076  0.0000 </r>
        <r>  0.0004  0.0024  0.0000 </r>
        <r>  0.0011  0.0033  0.0000 </r>
        <r>  0.0003  0.0068  0.0000 </r>
        <r>  0.0008  0.0038  0.0000 </r>
        <r>  0.0001  0.0028  0.0000 </r>
        <r>  0.0009  0.0059  0.0000 </r>
        <r>  0.0020  0.0028  0.0000 </r>
        <r>  0.0014  0.0040  0.0000 </r>
        <r>  0.0020  0.0029  0.0000 </r>
        <r>  0.0005  0.0064  0.0000 </r>
        <r>  0.0010  0.0036  0.0000 </r>
        <r>  0.0003  0.0042  0.0000 </r>
        <r>  0.0000  0.0065  0.0000 </r>
        <r>  0.0002  0.0030  0.0000 </r>
        <r>  0.0009  0.0032  0.0000 </r>
        <r>  0.0003  0.0073  0.0000 </r>
        <r>  0.0019  0.0025  0.0000 </r>
        <r>  0.0002  0.0030  0.0000 </r>
        <r>  0.0003  0.0042  0.0000 </r>
        <r>  0.0000  0.0065  0.0000 </r>
        <r>  0.0019  0.0025  0.0000 </r>
        <r>  0.0009  0.0032  0.0000 </r>
        <r>  0.0003  0.0073  0.0000 </r>
        <r>  0.0010  0.0036  0.0000 </r>
        <r>  0.0020  0.0029  0.0000 </r>
        <r>  0.0005  0.0064  0.0000 </r>
        <r>  0.0003  0.0073  0.0000 </r>
        <r>  0.0019  0.0025  0.0000 </r>
        <r>  0.0009  0.0032  0.0000 </r>
        <r>  0.0005  0.0064  0.0000 </r>
        <r>  0.0010  0.0036  0.0000 </r>
        <r>  0.0020  0.0029  0.0000 </r>
        <r>  0.0000  0.0065  0.0000 </r>
        <r>  0.0002  0.0030  0.0000 </r>
        <r>  0.0003  0.0042  0.0000 </r>
       </set>
       <set comment="band 142">
        <r>  0.0015  0.0039  0.0000 </r>
        <r>  0.0011  0.0017  0.0000 </r>
        <r>  0.0002  0.0074  0.0000 </r>
        <r>  0.0007  0.0067  0.0000 </r>
        <r>  0.0006  0.0004  0.0000 </r>
        <r>  0.0003  0.0062  0.0000 </r>
        <r>  0.0011  0.0055  0.0000 </r>
        <r>  0.0016  0.0028  0.0000 </r>
        <r>  0.0003  0.0047  0.0000 </r>
        <r>  0.0003  0.0062  0.0000 </r>
        <r>  0.0007  0.0067  0.0000 </r>
        <r>  0.0006  0.0004  0.0000 </r>
        <r>  0.0003  0.0047  0.0000 </r>
        <r>  0.0011  0.0055  0.0000 </r>
        <r>  0.0015  0.0028  0.0000 </r>
        <r>  0.0002  0.0074  0.0000 </r>
        <r>  0.0015  0.0039  0.0000 </r>
        <r>  0.0011  0.0018  0.0000 </r>
        <r>  0.0015  0.0028  0.0000 </r>
        <r>  0.0003  0.0047  0.0000 </r>
        <r>  0.0011  0.0055  0.0000 </r>
        <r>  0.0010  0.0018  0.0000 </r>
        <r>  0.0002  0.0074  0.0000 </r>
        <r>  0.0015  0.0039  0.0000 </r>
        <r>  0.0006  0.0004  0.0000 </r>
        <r>  0.0003  0.0062  0.0000 </r>
        <r>  0.0008  0.0067  0.0000 </r>
        <r>  0.0002  0.0041  0.0000 </r>
        <r>  0.0015  0.0018  0.0000 </r>
        <r>  0.0003  0.0074  0.0000 </r>
        <r>  0.0000  0.0063  0.0000 </r>
        <r>  0.0024  0.0004  0.0000 </r>
        <r>  0.0006  0.0063  0.0000 </r>
        <r>  0.0002  0.0052  0.0000 </r>
        <r>  0.0006  0.0031  0.0000 </r>
        <r>  0.0011  0.0050  0.0000 </r>
        <r>  0.0006  0.0063  0.0000 </r>
        <r>  0.0000  0.0063  0.0000 </r>
        <r>  0.0024  0.0004  0.0000 </r>
        <r>  0.0011  0.0050  0.0000 </r>
        <r>  0.0002  0.0053  0.0000 </r>
        <r>  0.0006  0.0031  0.0000 </r>
        <r>  0.0003  0.0074  0.0000 </r>
        <r>  0.0002  0.0041  0.0000 </r>
        <r>  0.0015  0.0018  0.0000 </r>
        <r>  0.0006  0.0032  0.0000 </r>
        <r>  0.0011  0.0050  0.0000 </r>
        <r>  0.0002  0.0053  0.0000 </r>
        <r>  0.0015  0.0018  0.0000 </r>
        <r>  0.0003  0.0075  0.0000 </r>
        <r>  0.0002  0.0041  0.0000 </r>
        <r>  0.0024  0.0004  0.0000 </r>
        <r>  0.0006  0.0063  0.0000 </r>
        <r>  0.0000  0.0063  0.0000 </r>
       </set>
       <set comment="band 143">
        <r>  0.0011  0.0056  0.0000 </r>
        <r>  0.0010  0.0051  0.0000 </r>
        <r>  0.0006  0.0023  0.0000 </r>
        <r>  0.0010  0.0048  0.0000 </r>
        <r>  0.0003  0.0072  0.0000 </r>
        <r>  0.0005  0.0010  0.0000 </r>
        <r>  0.0006  0.0036  0.0000 </r>
        <r>  0.0003  0.0066  0.0000 </r>
        <r>  0.0022  0.0026  0.0000 </r>
        <r>  0.0005  0.0010  0.0000 </r>
        <r>  0.0010  0.0048  0.0000 </r>
        <r>  0.0003  0.0072  0.0000 </r>
        <r>  0.0022  0.0026  0.0000 </r>
        <r>  0.0005  0.0036  0.0000 </r>
        <r>  0.0003  0.0066  0.0000 </r>
        <r>  0.0006  0.0022  0.0000 </r>
        <r>  0.0010  0.0056  0.0000 </r>
        <r>  0.0010  0.0051  0.0000 </r>
        <r>  0.0003  0.0066  0.0000 </r>
        <r>  0.0022  0.0026  0.0000 </r>
        <r>  0.0005  0.0036  0.0000 </r>
        <r>  0.0010  0.0051  0.0000 </r>
        <r>  0.0006  0.0023  0.0000 </r>
        <r>  0.0010  0.0056  0.0000 </r>
        <r>  0.0003  0.0071  0.0000 </r>
        <r>  0.0005  0.0010  0.0000 </r>
        <r>  0.0010  0.0048  0.0000 </r>
        <r>  0.0003  0.0053  0.0000 </r>
        <r>  0.0003  0.0058  0.0000 </r>
        <r>  0.0017  0.0023  0.0000 </r>
        <r>  0.0004  0.0051  0.0000 </r>
        <r>  0.0002  0.0070  0.0000 </r>
        <r>  0.0022  0.0011  0.0000 </r>
        <r>  0.0012  0.0037  0.0000 </r>
        <r>  0.0005  0.0069  0.0000 </r>
        <r>  0.0001  0.0030  0.0000 </r>
        <r>  0.0022  0.0011  0.0000 </r>
        <r>  0.0004  0.0051  0.0000 </r>
        <r>  0.0002  0.0070  0.0000 </r>
        <r>  0.0001  0.0030  0.0000 </r>
        <r>  0.0012  0.0037  0.0000 </r>
        <r>  0.0005  0.0069  0.0000 </r>
        <r>  0.0017  0.0023  0.0000 </r>
        <r>  0.0003  0.0053  0.0000 </r>
        <r>  0.0003  0.0059  0.0000 </r>
        <r>  0.0005  0.0069  0.0000 </r>
        <r>  0.0001  0.0030  0.0000 </r>
        <r>  0.0012  0.0037  0.0000 </r>
        <r>  0.0003  0.0058  0.0000 </r>
        <r>  0.0017  0.0023  0.0000 </r>
        <r>  0.0003  0.0054  0.0000 </r>
        <r>  0.0002  0.0070  0.0000 </r>
        <r>  0.0022  0.0011  0.0000 </r>
        <r>  0.0004  0.0051  0.0000 </r>
       </set>
       <set comment="band 144">
        <r>  0.0007  0.0051  0.0000 </r>
        <r>  0.0010  0.0040  0.0000 </r>
        <r>  0.0015  0.0039  0.0000 </r>
        <r>  0.0001  0.0020  0.0000 </r>
        <r>  0.0014  0.0039  0.0000 </r>
        <r>  0.0006  0.0077  0.0000 </r>
        <r>  0.0006  0.0051  0.0000 </r>
        <r>  0.0010  0.0004  0.0000 </r>
        <r>  0.0003  0.0075  0.0000 </r>
        <r>  0.0006  0.0076  0.0000 </r>
        <r>  0.0001  0.0020  0.0000 </r>
        <r>  0.0014  0.0038  0.0000 </r>
        <r>  0.0003  0.0074  0.0000 </r>
        <r>  0.0006  0.0051  0.0000 </r>
        <r>  0.0010  0.0004  0.0000 </r>
        <r>  0.0015  0.0039  0.0000 </r>
        <r>  0.0007  0.0052  0.0000 </r>
        <r>  0.0010  0.0040  0.0000 </r>
        <r>  0.0010  0.0004  0.0000 </r>
        <r>  0.0003  0.0074  0.0000 </r>
        <r>  0.0006  0.0052  0.0000 </r>
        <r>  0.0011  0.0040  0.0000 </r>
        <r>  0.0015  0.0040  0.0000 </r>
        <r>  0.0007  0.0051  0.0000 </r>
        <r>  0.0015  0.0039  0.0000 </r>
        <r>  0.0006  0.0076  0.0000 </r>
        <r>  0.0001  0.0020  0.0000 </r>
        <r>  0.0007  0.0053  0.0000 </r>
        <r>  0.0009  0.0035  0.0000 </r>
        <r>  0.0001  0.0046  0.0000 </r>
        <r>  0.0025  0.0022  0.0000 </r>
        <r>  0.0005  0.0038  0.0000 </r>
        <r>  0.0001  0.0072  0.0000 </r>
        <r>  0.0007  0.0050  0.0000 </r>
        <r>  0.0017  0.0005  0.0000 </r>
        <r>  0.0001  0.0072  0.0000 </r>
        <r>  0.0001  0.0072  0.0000 </r>
        <r>  0.0025  0.0022  0.0000 </r>
        <r>  0.0005  0.0039  0.0000 </r>
        <r>  0.0001  0.0073  0.0000 </r>
        <r>  0.0007  0.0050  0.0000 </r>
        <r>  0.0017  0.0005  0.0000 </r>
        <r>  0.0001  0.0046  0.0000 </r>
        <r>  0.0007  0.0053  0.0000 </r>
        <r>  0.0009  0.0035  0.0000 </r>
        <r>  0.0017  0.0005  0.0000 </r>
        <r>  0.0001  0.0072  0.0000 </r>
        <r>  0.0007  0.0050  0.0000 </r>
        <r>  0.0009  0.0035  0.0000 </r>
        <r>  0.0001  0.0046  0.0000 </r>
        <r>  0.0007  0.0053  0.0000 </r>
        <r>  0.0005  0.0039  0.0000 </r>
        <r>  0.0001  0.0072  0.0000 </r>
        <r>  0.0025  0.0022  0.0000 </r>
       </set>
      </set>
     </set>
    </set>
   </array>
  </projected>
 </calculation>
 <structure name="finalpos" >
  <crystal>
   <varray name="basis" >
    <v>       9.97646553       0.00000000       5.75991507 </v>
    <v>       3.32548851       9.40590192       5.75991507 </v>
    <v>       0.00000000       0.00000000      11.51983014 </v>
   </varray>
   <i name="volume">   1080.99386112 </i>
   <varray name="rec_basis" >
    <v>       0.10023590      -0.03543874       0.00000000 </v>
    <v>       0.00000000       0.10631623       0.00000000 </v>
    <v>      -0.05011795      -0.03543874       0.08680684 </v>
   </varray>
  </crystal>
  <varray name="positions" >
   <v>       0.29166667       0.29166667       0.29166667 </v>
   <v>       0.29166667       0.29166667       0.62500000 </v>
   <v>       0.29166667       0.29166667       0.95833333 </v>
   <v>       0.29166667       0.62500000       0.29166667 </v>
   <v>       0.29166667       0.62500000       0.62500000 </v>
   <v>       0.29166667       0.62500000       0.95833333 </v>
   <v>       0.29166667       0.95833333       0.29166667 </v>
   <v>       0.29166667       0.95833333       0.62500000 </v>
   <v>       0.29166667       0.95833333       0.95833333 </v>
   <v>       0.62500000       0.29166667       0.29166667 </v>
   <v>       0.62500000       0.29166667       0.62500000 </v>
   <v>       0.62500000       0.29166667       0.95833333 </v>
   <v>       0.62500000       0.62500000       0.29166667 </v>
   <v>       0.62500000       0.62500000       0.62500000 </v>
   <v>       0.62500000       0.62500000       0.95833333 </v>
   <v>       0.62500000       0.95833333       0.29166667 </v>
   <v>       0.62500000       0.95833333       0.62500000 </v>
   <v>       0.62500000       0.95833333       0.95833333 </v>
   <v>       0.95833333       0.29166667       0.29166667 </v>
   <v>       0.95833333       0.29166667       0.62500000 </v>
   <v>       0.95833333       0.29166667       0.95833333 </v>
   <v>       0.95833333       0.62500000       0.29166667 </v>
   <v>       0.95833333       0.62500000       0.62500000 </v>
   <v>       0.95833333       0.62500000       0.95833333 </v>
   <v>       0.95833333       0.95833333       0.29166667 </v>
   <v>       0.95833333       0.95833333       0.62500000 </v>
   <v>       0.95833333       0.95833333       0.95833333 </v>
   <v>       0.04166667       0.04166667       0.04166667 </v>
   <v>       0.04166667       0.04166667       0.37500000 </v>
   <v>       0.04166667       0.04166667       0.70833333 </v>
   <v>       0.04166667       0.37500000       0.04166667 </v>
   <v>       0.04166667       0.37500000       0.37500000 </v>
   <v>       0.04166667       0.37500000       0.70833333 </v>
   <v>       0.04166667       0.70833333       0.04166667 </v>
   <v>       0.04166667       0.70833333       0.37500000 </v>
   <v>       0.04166667       0.70833333       0.70833333 </v>
   <v>       0.37500000       0.04166667       0.04166667 </v>
   <v>       0.37500000       0.04166667       0.37500000 </v>
   <v>       0.37500000       0.04166667       0.70833333 </v>
   <v>       0.37500000       0.37500000       0.04166667 </v>
   <v>       0.37500000       0.37500000       0.37500000 </v>
   <v>       0.37500000       0.37500000       0.70833333 </v>
   <v>       0.37500000       0.70833333       0.04166667 </v>
   <v>       0.37500000       0.70833333       0.37500000 </v>
   <v>       0.37500000       0.70833333       0.70833333 </v>
   <v>       0.70833333       0.04166667       0.04166667 </v>
   <v>       0.70833333       0.04166667       0.37500000 </v>
   <v>       0.70833333       0.04166667       0.70833333 </v>
   <v>       0.70833333       0.37500000       0.04166667 </v>
   <v>       0.70833333       0.37500000       0.37500000 </v>
   <v>       0.70833333       0.37500000       0.70833333 </v>
   <v>       0.70833333       0.70833333       0.04166667 </v>
   <v>       0.70833333       0.70833333       0.37500000 </v>
   <v>       0.70833333       0.70833333       0.70833333 </v>
  </varray>
 </structure>
</modeling>
