 vasp.6.3.0 20Jan22 (build Mar 07 2022 09:35:52) complex                        
  
 executed on             LinuxIFC date 2025.06.26  16:12:44
 running on   96 total cores
 distrk:  each k-point on   96 cores,    1 groups
 distr:  one band on NCORE=   1 cores,   96 groups


--------------------------------------------------------------------------------------------------------


 INCAR:
   ALGO = Normal
   AMIX = 0.2
   EDIFF = 1e-06
   EDIFFG = -0.05
   ENCUT = 550.0
   IBRION = 2
   ISIF = 2
   ISMEAR = 0
   ISPIN = 1
   ISYM = 2
   LCHARG = True
   LORBIT = 11
   LREAL = False
   LVTOT = True
   LWAVE = True
   NELECT = 384.0
   NELM = 200
   NSW = 0
   SIGMA = 0.05
   SYSTEM = SiO2

 POTCAR:    PAW_PBE Si 05Jan2001                  
 POTCAR:    PAW_PBE O 08Apr2002                   
 WARNING: For LVTOT=.TRUE., VASP.5.x writes the TOTAL local potential to the
     file LOCPOT. If you want only the Hartree contributions, use LVHAR=.TRUE.
     instead. 

 -----------------------------------------------------------------------------
|                                                                             |
|           W    W    AA    RRRRR   N    N  II  N    N   GGGG   !!!           |
|           W    W   A  A   R    R  NN   N  II  NN   N  G    G  !!!           |
|           W    W  A    A  R    R  N N  N  II  N N  N  G       !!!           |
|           W WW W  AAAAAA  RRRRR   N  N N  II  N  N N  G  GGG   !            |
|           WW  WW  A    A  R   R   N   NN  II  N   NN  G    G                |
|           W    W  A    A  R    R  N    N  II  N    N   GGGG   !!!           |
|                                                                             |
|     For optimal performance we recommend to set                             |
|       NCORE = 2 up to number-of-cores-per-socket                            |
|     NCORE specifies how many cores store one orbital (NPAR=cpu/NCORE).      |
|     This setting can greatly improve the performance of VASP for DFT.       |
|     The default, NCORE=1 might be grossly inefficient on modern             |
|     multi-core architectures or massively parallel machines. Do your        |
|     own testing! More info at https://www.vasp.at/wiki/index.php/NCORE      |
|     Unfortunately you need to use the default for GW and RPA                |
|     calculations (for HF NCORE is supported but not extensively tested      |
|     yet).                                                                   |
|                                                                             |
 -----------------------------------------------------------------------------

 POTCAR:    PAW_PBE Si 05Jan2001                  
   VRHFIN =Si: s2p2                                                                                 
   LEXCH  = PE                                                                                      
   EATOM  =   103.0669 eV,    7.5752 Ry                                                             
                                                                                                    
   TITEL  = PAW_PBE Si 05Jan2001                                                                    
   LULTRA =        F    use ultrasoft PP ?                                                          
   IUNSCR =        1    unscreen: 0-lin 1-nonlin 2-no                                               
   RPACOR =    1.500    partial core radius                                                         
   POMASS =   28.085; ZVAL   =    4.000    mass and valenz                                          
   RCORE  =    1.900    outmost cutoff radius                                                       
   RWIGS  =    2.480; RWIGS  =    1.312    wigner-seitz radius (au A)                               
   ENMAX  =  245.345; ENMIN  =  184.009 eV                                                          
   ICORE  =        2    local potential                                                             
   LCOR   =        T    correct aug charges                                                         
   LPAW   =        T    paw PP                                                                      
   EAUG   =  322.069                                                                                
   DEXC   =    0.000                                                                                
   RMAX   =    1.950    core radius for proj-oper                                                   
   RAUG   =    1.300    factor for augmentation sphere                                              
   RDEP   =    1.993    radius for radial grids                                                     
   RDEPT  =    1.837    core radius for aug-charge                                                  
                                                                                                    
   Atomic configuration                                                                             
    6 entries                                                                                       
     n  l   j            E        occ.                                                              
     1  0  0.50     -1785.8828   2.0000                                                             
     2  0  0.50      -139.4969   2.0000                                                             
     2  1  1.50       -95.5546   6.0000                                                             
     3  0  0.50       -10.8127   2.0000                                                             
     3  1  0.50        -4.0811   2.0000                                                             
     3  2  1.50        -4.0817   0.0000                                                             
   Description                                                                                      
     l       E           TYP  RCUT    TYP  RCUT                                                     
     0    -10.8127223     23  1.900                                                                 
     0     -7.6451159     23  1.900                                                                 
     1     -4.0811372     23  1.900                                                                 
     1      2.4879257     23  1.900                                                                 
     2     -4.0817478      7  1.900                                                                 
  local pseudopotential read in
  partial core-charges read in
  partial kinetic energy density read in
  atomic valenz-charges read in
  non local Contribution for L=           0  read in
    real space projection operators read in
  non local Contribution for L=           0  read in
    real space projection operators read in
  non local Contribution for L=           1  read in
    real space projection operators read in
  non local Contribution for L=           1  read in
    real space projection operators read in
    PAW grid and wavefunctions read in
 
   number of l-projection  operators is LMAX  =           4
   number of lm-projection operators is LMMAX =           8
 
 POTCAR:    PAW_PBE O 08Apr2002                   
   VRHFIN =O: s2p4                                                                                  
   LEXCH  = PE                                                                                      
   EATOM  =   432.3788 eV,   31.7789 Ry                                                             
                                                                                                    
   TITEL  = PAW_PBE O 08Apr2002                                                                     
   LULTRA =        F    use ultrasoft PP ?                                                          
   IUNSCR =        1    unscreen: 0-lin 1-nonlin 2-no                                               
   RPACOR =    1.200    partial core radius                                                         
   POMASS =   16.000; ZVAL   =    6.000    mass and valenz                                          
   RCORE  =    1.520    outmost cutoff radius                                                       
   RWIGS  =    1.550; RWIGS  =    0.820    wigner-seitz radius (au A)                               
   ENMAX  =  400.000; ENMIN  =  300.000 eV                                                          
   ICORE  =        2    local potential                                                             
   LCOR   =        T    correct aug charges                                                         
   LPAW   =        T    paw PP                                                                      
   EAUG   =  605.392                                                                                
   DEXC   =    0.000                                                                                
   RMAX   =    1.553    core radius for proj-oper                                                   
   RAUG   =    1.300    factor for augmentation sphere                                              
   RDEP   =    1.550    radius for radial grids                                                     
   RDEPT  =    1.329    core radius for aug-charge                                                  
                                                                                                    
   Atomic configuration                                                                             
    4 entries                                                                                       
     n  l   j            E        occ.                                                              
     1  0  0.50      -514.6923   2.0000                                                             
     2  0  0.50       -23.9615   2.0000                                                             
     2  1  0.50        -9.0305   4.0000                                                             
     3  2  1.50        -9.5241   0.0000                                                             
   Description                                                                                      
     l       E           TYP  RCUT    TYP  RCUT                                                     
     0    -23.9615318     23  1.200                                                                 
     0     -9.5240782     23  1.200                                                                 
     1     -9.0304911     23  1.520                                                                 
     1      8.1634956     23  1.520                                                                 
     2     -9.5240782      7  1.500                                                                 
  local pseudopotential read in
  partial core-charges read in
  partial kinetic energy density read in
  kinetic energy density of atom read in
  atomic valenz-charges read in
  non local Contribution for L=           0  read in
    real space projection operators read in
  non local Contribution for L=           0  read in
    real space projection operators read in
  non local Contribution for L=           1  read in
    real space projection operators read in
  non local Contribution for L=           1  read in
    real space projection operators read in
    PAW grid and wavefunctions read in
 
   number of l-projection  operators is LMAX  =           4
   number of lm-projection operators is LMMAX =           8
 
 -----------------------------------------------------------------------------
|                                                                             |
|               ----> ADVICE to this user running VASP <----                  |
|                                                                             |
|     You have a (more or less) 'large supercell' and for larger cells it     |
|     might be more efficient to use real-space projection operators.         |
|     Therefore, try LREAL= Auto in the INCAR file.                           |
|     Mind: For very accurate calculation, you might also keep the            |
|     reciprocal projection scheme (i.e. LREAL=.FALSE.).                      |
|                                                                             |
 -----------------------------------------------------------------------------

  PAW_PBE Si 05Jan2001                  :
 energy of atom  1       EATOM= -103.0669
 kinetic energy error for atom=    0.0004 (will be added to EATOM!!)
  PAW_PBE O 08Apr2002                   :
 energy of atom  2       EATOM= -432.3788
 kinetic energy error for atom=    0.0194 (will be added to EATOM!!)
 
 
 POSCAR: Si23 O48
  positions in direct lattice
  No initial velocities read in
 exchange correlation table for  LEXCH =        8
   RHO(1)=    0.500       N(1)  =     2000
   RHO(2)=  100.500       N(2)  =     4000

 VTST: version 4.2, (08/11/21)

 CHAIN: initializing optimizer
 
 OPT: Using VASP Conjugate-Gradient optimizer
 CHAIN: Read ICHAIN            0
 
 POSCAR: Si23 O48
  positions in direct lattice
  No initial velocities read in
 


--------------------------------------------------------------------------------------------------------


 ion  position               nearest neighbor table
   1  0.266  0.266  0.500-  64 1.61  33 1.61  49 1.62  24 1.62  12 3.06  19 3.06  17 3.06   8 3.06

   2  0.266  0.766  0.000-  67 1.61  34 1.61  50 1.62  27 1.62  15 3.06  16 3.06  11 3.06  18 3.06

   3  0.266  0.766  0.500-  66 1.61  35 1.61  51 1.62  26 1.62  14 3.06  17 3.06  10 3.06  19 3.06

   4  0.766  0.266  0.000-  69 1.61  36 1.61  52 1.62  29 1.62   9 3.06  22 3.06  20 3.06  13 3.06

   5  0.766  0.266  0.500-  68 1.61  37 1.61  53 1.62  28 1.62   8 3.06  23 3.06  21 3.06  12 3.06

   6  0.766  0.766  0.000-  71 1.61  38 1.61  54 1.62  31 1.62  11 3.06  20 3.06  15 3.06  22 3.06

   7  0.766  0.766  0.500-  70 1.61  39 1.61  55 1.62  30 1.62  10 3.06  21 3.06  14 3.06  23 3.06

   8  0.000  0.234  0.333-  24 1.61  60 1.61  40 1.62  68 1.62   5 3.06   1 3.06  18 3.06  20 3.06

   9  0.000  0.234  0.833-  25 1.61  61 1.61  41 1.62  69 1.62   4 3.06  19 3.06  21 3.06
  10  0.000  0.734  0.333-  26 1.61  62 1.61  42 1.62  70 1.62   7 3.06   3 3.06  16 3.06  22 3.06

  11  0.000  0.734  0.833-  27 1.61  63 1.61  43 1.62  71 1.62   6 3.06   2 3.06  17 3.06  23 3.06

  12  0.500  0.234  0.333-  28 1.61  56 1.61  44 1.62  64 1.62   1 3.06   5 3.06  16 3.06  22 3.06

  13  0.500  0.234  0.833-  29 1.61  57 1.61  45 1.62  65 1.62   4 3.06  17 3.06  23 3.06
  14  0.500  0.734  0.333-  30 1.61  58 1.61  46 1.62  66 1.62   3 3.06   7 3.06  18 3.06  20 3.06

  15  0.500  0.734  0.833-  31 1.61  59 1.61  47 1.62  67 1.62   2 3.06   6 3.06  19 3.06  21 3.06

  16  0.234  0.000  0.167-  48 1.61  42 1.61  34 1.62  56 1.62   2 3.06  10 3.06  12 3.06
  17  0.234  0.000  0.667-  49 1.61  43 1.61  35 1.62  57 1.62   3 3.06   1 3.06  11 3.06  13 3.06

  18  0.234  0.500  0.167-  50 1.61  40 1.61  32 1.62  58 1.62   2 3.06   8 3.06  14 3.06
  19  0.234  0.500  0.667-  51 1.61  41 1.61  33 1.62  59 1.62   1 3.06   3 3.06   9 3.06  15 3.06

  20  0.734  0.000  0.167-  52 1.61  46 1.61  38 1.62  60 1.62   6 3.06   4 3.06   8 3.06  14 3.06

  21  0.734  0.000  0.667-  53 1.61  47 1.61  39 1.62  61 1.62   7 3.06   5 3.06   9 3.06  15 3.06

  22  0.734  0.500  0.167-  54 1.61  44 1.61  36 1.62  62 1.62   4 3.06   6 3.06  10 3.06  12 3.06

  23  0.734  0.500  0.667-  55 1.61  45 1.61  37 1.62  63 1.62   5 3.06   7 3.06  11 3.06  13 3.06

  24  0.135  0.207  0.392-   8 1.61   1 1.62
  25  0.135  0.207  0.892-   9 1.61
  26  0.135  0.707  0.392-  10 1.61   3 1.62
  27  0.135  0.707  0.892-  11 1.61   2 1.62
  28  0.635  0.207  0.392-  12 1.61   5 1.62
  29  0.635  0.207  0.892-  13 1.61   4 1.62
  30  0.635  0.707  0.392-  14 1.61   7 1.62
  31  0.635  0.707  0.892-  15 1.61   6 1.62
  32  0.293  0.428  0.059-  18 1.62
  33  0.293  0.428  0.559-   1 1.61  19 1.62
  34  0.293  0.928  0.059-   2 1.61  16 1.62
  35  0.293  0.928  0.559-   3 1.61  17 1.62
  36  0.793  0.428  0.059-   4 1.61  22 1.62
  37  0.793  0.428  0.559-   5 1.61  23 1.62
  38  0.793  0.928  0.059-   6 1.61  20 1.62
  39  0.793  0.928  0.559-   7 1.61  21 1.62
  40  0.072  0.365  0.226-  18 1.61   8 1.62
  41  0.072  0.365  0.726-  19 1.61   9 1.62
  42  0.072  0.865  0.226-  16 1.61  10 1.62
  43  0.072  0.865  0.726-  17 1.61  11 1.62
  44  0.572  0.365  0.226-  22 1.61  12 1.62
  45  0.572  0.365  0.726-  23 1.61  13 1.62
  46  0.572  0.865  0.226-  20 1.61  14 1.62
  47  0.572  0.865  0.726-  21 1.61  15 1.62
  48  0.207  0.135  0.108-  16 1.61
  49  0.207  0.135  0.608-  17 1.61   1 1.62
  50  0.207  0.635  0.108-  18 1.61   2 1.62
  51  0.207  0.635  0.608-  19 1.61   3 1.62
  52  0.707  0.135  0.108-  20 1.61   4 1.62
  53  0.707  0.135  0.608-  21 1.61   5 1.62
  54  0.707  0.635  0.108-  22 1.61   6 1.62
  55  0.707  0.635  0.608-  23 1.61   7 1.62
  56  0.365  0.072  0.274-  12 1.61  16 1.62
  57  0.365  0.072  0.774-  13 1.61  17 1.62
  58  0.365  0.572  0.274-  14 1.61  18 1.62
  59  0.365  0.572  0.774-  15 1.61  19 1.62
  60  0.865  0.072  0.274-   8 1.61  20 1.62
  61  0.865  0.072  0.774-   9 1.61  21 1.62
  62  0.865  0.572  0.274-  10 1.61  22 1.62
  63  0.865  0.572  0.774-  11 1.61  23 1.62
  64  0.428  0.293  0.441-   1 1.61  12 1.62
  65  0.428  0.293  0.941-  13 1.62
  66  0.428  0.793  0.441-   3 1.61  14 1.62
  67  0.428  0.793  0.941-   2 1.61  15 1.62
  68  0.928  0.293  0.441-   5 1.61   8 1.62
  69  0.928  0.293  0.941-   4 1.61   9 1.62
  70  0.928  0.793  0.441-   7 1.61  10 1.62
  71  0.928  0.793  0.941-   6 1.61  11 1.62
 
  LATTYP: Found a hexagonal cell.
 ALAT       =     9.8299323535
 C/A-ratio  =     1.1050536148
  
  Lattice vectors:
  
 A1 = (   4.9149661767,  -8.5129711356,   0.0000000000)
 A2 = (   4.9149661767,   8.5129711356,   0.0000000000)
 A3 = (   0.0000000000,   0.0000000000,  10.8626022800)


Analysis of symmetry for initial positions (statically):
=====================================================================
 Subroutine PRICEL returns:
 Original cell was already a primitive cell.
 

 Routine SETGRP: Setting up the symmetry group for a 
 hexagonal supercell.


 Subroutine GETGRP returns: Found  2 space group operations
 (whereof  2 operations were pure point group operations)
 out of a pool of 24 trial point group operations.


The static configuration has the point symmetry C_2 .


Analysis of symmetry for dynamics (positions and initial velocities):
=====================================================================
 Subroutine PRICEL returns:
 Original cell was already a primitive cell.
 

 Routine SETGRP: Setting up the symmetry group for a 
 hexagonal supercell.


 Subroutine GETGRP returns: Found  2 space group operations
 (whereof  2 operations were pure point group operations)
 out of a pool of 24 trial point group operations.


The dynamic configuration has the point symmetry C_2 .


 Subroutine INISYM returns: Found  2 space group operations
 (whereof  2 operations are pure point group operations),
 and found     1 'primitive' translations


----------------------------------------------------------------------------------------

                                     Primitive cell                                     

  volume of cell :     909.0035

  direct lattice vectors                    reciprocal lattice vectors
     4.914966177 -8.512971136  0.000000000     0.101730100 -0.058733901  0.000000000
     4.914966177  8.512971136  0.000000000     0.101730100  0.058733901  0.000000000
     0.000000000  0.000000000 10.862602280     0.000000000  0.000000000  0.092058972

  length of vectors
     9.829932353  9.829932353 10.862602280     0.117467801  0.117467801  0.092058972

  position of ions in fractional coordinates (direct lattice)
     0.265544295  0.265544295  0.500000000
     0.265544295  0.765544295  0.000000000
     0.265544295  0.765544295  0.500000000
     0.765544295  0.265544295  0.000000000
     0.765544295  0.265544295  0.500000000
     0.765544295  0.765544295  0.000000000
     0.765544295  0.765544295  0.500000000
     1.000000000  0.234455705  0.333333333
     1.000000000  0.234455705  0.833333333
     1.000000000  0.734455705  0.333333333
     1.000000000  0.734455705  0.833333333
     0.500000000  0.234455705  0.333333333
     0.500000000  0.234455705  0.833333333
     0.500000000  0.734455705  0.333333333
     0.500000000  0.734455705  0.833333333
     0.234455705  1.000000000  0.166666667
     0.234455705  1.000000000  0.666666667
     0.234455705  0.500000000  0.166666667
     0.234455705  0.500000000  0.666666667
     0.734455705  1.000000000  0.166666667
     0.734455705  1.000000000  0.666666667
     0.734455705  0.500000000  0.166666667
     0.734455705  0.500000000  0.666666667
     0.134611555  0.206697145  0.392445490
     0.134611555  0.206697145  0.892445490
     0.134611555  0.706697145  0.392445490
     0.134611555  0.706697145  0.892445490
     0.634611555  0.206697145  0.392445490
     0.634611555  0.206697145  0.892445490
     0.634611555  0.706697145  0.392445490
     0.634611555  0.706697145  0.892445490
     0.293302855  0.427914410  0.059112157
     0.293302855  0.427914410  0.559112157
     0.293302855  0.927914410  0.059112157
     0.293302855  0.927914410  0.559112157
     0.793302855  0.427914410  0.059112157
     0.793302855  0.427914410  0.559112157
     0.793302855  0.927914410  0.059112157
     0.793302855  0.927914410  0.559112157
     0.072085590  0.365388445  0.225778823
     0.072085590  0.365388445  0.725778823
     0.072085590  0.865388445  0.225778823
     0.072085590  0.865388445  0.725778823
     0.572085590  0.365388445  0.225778823
     0.572085590  0.365388445  0.725778823
     0.572085590  0.865388445  0.225778823
     0.572085590  0.865388445  0.725778823
     0.206697145  0.134611555  0.107554510
     0.206697145  0.134611555  0.607554510
     0.206697145  0.634611555  0.107554510
     0.206697145  0.634611555  0.607554510
     0.706697145  0.134611555  0.107554510
     0.706697145  0.134611555  0.607554510
     0.706697145  0.634611555  0.107554510
     0.706697145  0.634611555  0.607554510
     0.365388445  0.072085590  0.274221177
     0.365388445  0.072085590  0.774221177
     0.365388445  0.572085590  0.274221177
     0.365388445  0.572085590  0.774221177
     0.865388445  0.072085590  0.274221177
     0.865388445  0.072085590  0.774221177
     0.865388445  0.572085590  0.274221177
     0.865388445  0.572085590  0.774221177
     0.427914410  0.293302855  0.440887843
     0.427914410  0.293302855  0.940887843
     0.427914410  0.793302855  0.440887843
     0.427914410  0.793302855  0.940887843
     0.927914410  0.293302855  0.440887843
     0.927914410  0.293302855  0.940887843
     0.927914410  0.793302855  0.440887843
     0.927914410  0.793302855  0.940887843

  ion indices of the primitive-cell ions
   primitive index   ion index
                 1           1
                 2           2
                 3           3
                 4           4
                 5           5
                 6           6
                 7           7
                 8           8
                 9           9
                10          10
                11          11
                12          12
                13          13
                14          14
                15          15
                16          16
                17          17
                18          18
                19          19
                20          20
                21          21
                22          22
                23          23
                24          24
                25          25
                26          26
                27          27
                28          28
                29          29
                30          30
                31          31
                32          32
                33          33
                34          34
                35          35
                36          36
                37          37
                38          38
                39          39
                40          40
                41          41
                42          42
                43          43
                44          44
                45          45
                46          46
                47          47
                48          48
                49          49
                50          50
                51          51
                52          52
                53          53
                54          54
                55          55
                56          56
                57          57
                58          58
                59          59
                60          60
                61          61
                62          62
                63          63
                64          64
                65          65
                66          66
                67          67
                68          68
                69          69
                70          70
                71          71

----------------------------------------------------------------------------------------

 
 
 KPOINTS: pymatgen with grid density = 1000 / numb

Automatic generation of k-mesh.
 Grid dimensions read from file:
 generate k-points for:    2    2    2

 Generating k-lattice:

  Cartesian coordinates                     Fractional coordinates (reciprocal lattice)
     0.050865050 -0.029366950  0.000000000     0.500000000 -0.000000000  0.000000000
     0.050865050  0.029366950  0.000000000    -0.000000000  0.500000000  0.000000000
     0.000000000  0.000000000  0.046029486     0.000000000  0.000000000  0.500000000

  Length of vectors
     0.058733901  0.058733901  0.046029486

  Shift w.r.t. Gamma in fractional coordinates (k-lattice)
     0.000000000  0.000000000  0.000000000

 
 Subroutine IBZKPT returns following result:
 ===========================================
 
 Found      6 irreducible k-points:
 
 Following reciprocal coordinates:
            Coordinates               Weight
  0.000000  0.000000  0.000000      1.000000
  0.500000  0.000000  0.000000      2.000000
  0.500000  0.500000  0.000000      1.000000
  0.000000  0.000000  0.500000      1.000000
  0.500000  0.000000  0.500000      2.000000
  0.500000  0.500000  0.500000      1.000000
 
 Following cartesian coordinates:
            Coordinates               Weight
  0.000000  0.000000  0.000000      1.000000
  0.050865 -0.029367  0.000000      2.000000
  0.101730  0.000000  0.000000      1.000000
  0.000000  0.000000  0.046029      1.000000
  0.050865 -0.029367  0.046029      2.000000
  0.101730  0.000000  0.046029      1.000000
 


--------------------------------------------------------------------------------------------------------




 Dimension of arrays:
   k-points           NKPTS =      6   k-points in BZ     NKDIM =      6   number of bands    NBANDS=    288
   number of dos      NEDOS =    301   number of ions     NIONS =     71
   non local maximal  LDIM  =      4   non local SUM 2l+1 LMDIM =      8
   total plane-waves  NPLWV = 200704
   max r-space proj   IRMAX =      1   max aug-charges    IRDMAX=   7581
   dimension x,y,z NGX =    56 NGY =   56 NGZ =   64
   dimension x,y,z NGXF=   112 NGYF=  112 NGZF=  128
   support grid    NGXF=   112 NGYF=  112 NGZF=  128
   ions per type =              23  48
   NGX,Y,Z   is equivalent  to a cutoff of   9.47,  9.47,  9.79 a.u.
   NGXF,Y,Z  is equivalent  to a cutoff of  18.94, 18.94, 19.59 a.u.

 SYSTEM =  SiO2                                    
 POSCAR =  Si23 O48                                

 Startparameter for this run:
   NWRITE =      2    write-flag & timer
   PREC   = normal    normal or accurate (medium, high low for compatibility)
   ISTART =      0    job   : 0-new  1-cont  2-samecut
   ICHARG =      2    charge: 1-file 2-atom 10-const
   ISPIN  =      1    spin polarized calculation?
   LNONCOLLINEAR =      F non collinear calculations
   LSORBIT =      F    spin-orbit coupling
   INIWAV =      1    electr: 0-lowe 1-rand  2-diag
   LASPH  =      F    aspherical Exc in radial PAW
 Electronic Relaxation 1
   ENCUT  =  550.0 eV  40.42 Ry    6.36 a.u.  18.80 18.80 20.77*2*pi/ulx,y,z
   ENINI  =  550.0     initial cutoff
   ENAUG  =  605.4 eV  augmentation charge cutoff
   NELM   =    200;   NELMIN=  2; NELMDL= -5     # of ELM steps 
   EDIFF  = 0.1E-05   stopping-criterion for ELM
   LREAL  =      F    real-space projection
   NLSPLINE    = F    spline interpolate recip. space projectors
   LCOMPAT=      F    compatible to vasp.4.4
   GGA_COMPAT  = T    GGA compatible to vasp.4.4-vasp.4.6
   LMAXPAW     = -100 max onsite density
   LMAXMIX     =    2 max onsite mixed and CHGCAR
   VOSKOWN=      0    Vosko Wilk Nusair interpolation
   ROPT   =    0.00000   0.00000
 Ionic relaxation
   EDIFFG = -.5E-01   stopping-criterion for IOM
   NSW    =      0    number of steps for IOM
   NBLOCK =      1;   KBLOCK =      1    inner block; outer block 
   IBRION =     -1    ionic relax: 0-MD 1-quasi-New 2-CG
   NFREE  =      1    steps in history (QN), initial steepest desc. (CG)
   ISIF   =      2    stress and relaxation
   IWAVPR =     10    prediction:  0-non 1-charg 2-wave 3-comb
   ISYM   =      2    0-nonsym 1-usesym 2-fastsym
   LCORR  =      T    Harris-Foulkes like correction to forces

   POTIM  = 0.5000    time-step for ionic-motion
   TEIN   =    0.0    initial temperature
   TEBEG  =    0.0;   TEEND  =   0.0 temperature during run
   SMASS  =  -3.00    Nose mass-parameter (am)
   estimated Nose-frequenzy (Omega)   =  0.10E-29 period in steps = 0.13E+47 mass=  -0.221E-26a.u.
   SCALEE = 1.0000    scale energy and forces
   NPACO  =    256;   APACO  = 10.0  distance and # of slots for P.C.
   PSTRESS=    0.0 pullay stress

  Mass of Ions in am
   POMASS =  28.09 16.00
  Ionic Valenz
   ZVAL   =   4.00  6.00
  Atomic Wigner-Seitz radii
   RWIGS  =  -1.00 -1.00
  virtual crystal weights 
   VCA    =   1.00  1.00
   NELECT =     384.0000    total number of electrons
   NUPDOWN=      -1.0000    fix difference up-down

 DOS related values:
   EMIN   =  10.00;   EMAX   =-10.00  energy-range for DOS
   EFERMI =   0.00
   ISMEAR =     0;   SIGMA  =   0.05  broadening in eV -4-tet -1-fermi 0-gaus

 Electronic relaxation 2 (details)
   IALGO  =     38    algorithm
   LDIAG  =      T    sub-space diagonalisation (order eigenvalues)
   LSUBROT=      F    optimize rotation matrix (better conditioning)
   TURBO    =      0    0=normal 1=particle mesh
   IRESTART =      0    0=no restart 2=restart with 2 vectors
   NREBOOT  =      0    no. of reboots
   NMIN     =      0    reboot dimension
   EREF     =   0.00    reference energy to select bands
   IMIX   =      4    mixing-type and parameters
     AMIX     =   0.20;   BMIX     =  1.00
     AMIX_MAG =   0.80;   BMIX_MAG =  1.00
     AMIN     =   0.10
     WC   =   100.;   INIMIX=   1;  MIXPRE=   1;  MAXMIX= -45

 Intra band minimization:
   WEIMIN = 0.0000     energy-eigenvalue tresh-hold
   EBREAK =  0.87E-09  absolut break condition
   DEPER  =   0.30     relativ break condition  

   TIME   =   0.40     timestep for ELM

  volume/ion in A,a.u.               =      12.80        86.40
  Fermi-wavevector in a.u.,A,eV,Ry     =   1.228372  2.321287 20.529814  1.508899
  Thomas-Fermi vector in A             =   2.363300
 
 Write flags
   LWAVE        =      T    write WAVECAR
   LDOWNSAMPLE  =      F    k-point downsampling of WAVECAR
   LCHARG       =      T    write CHGCAR
   LVTOT        =      T    write LOCPOT, total local potential
   LVHAR        =      F    write LOCPOT, Hartree potential only
   LELF         =      F    write electronic localiz. function (ELF)
   LORBIT       =     11    0 simple, 1 ext, 2 COOP (PROOUT), +10 PAW based schemes


 Dipole corrections
   LMONO  =      F    monopole corrections only (constant potential shift)
   LDIPOL =      F    correct potential (dipole corrections)
   IDIPOL =      0    1-x, 2-y, 3-z, 4-all directions 
   EPSILON=  1.0000000 bulk dielectric constant

 Exchange correlation treatment:
   GGA     =    --    GGA type
   LEXCH   =     8    internal setting for exchange type
   LIBXC   =     F    Libxc                    
   VOSKOWN =     0    Vosko Wilk Nusair interpolation
   LHFCALC =     F    Hartree Fock is set to
   LHFONE  =     F    Hartree Fock one center treatment
   AEXX    =    0.0000 exact exchange contribution

 Linear response parameters
   LEPSILON=     F    determine dielectric tensor
   LRPA    =     F    only Hartree local field effects (RPA)
   LNABLA  =     F    use nabla operator in PAW spheres
   LVEL    =     F    velocity operator in full k-point grid
   CSHIFT  =0.1000    complex shift for real part using Kramers Kronig
   OMEGAMAX=  -1.0    maximum frequency
   DEG_THRESHOLD= 0.2000000E-02 threshold for treating states as degnerate
   RTIME   =   -0.100 relaxation time in fs
  (WPLASMAI=    0.000 imaginary part of plasma frequency in eV, 0.658/RTIME)
   DFIELD  = 0.0000000 0.0000000 0.0000000 field for delta impulse in time
 
  Optional k-point grid parameters
   LKPOINTS_OPT  =     F    use optional k-point grid
   KPOINTS_OPT_MODE=     1    mode for optional k-point grid
 
 Orbital magnetization related:
   ORBITALMAG=     F  switch on orbital magnetization
   LCHIMAG   =     F  perturbation theory with respect to B field
   DQ        =  0.001000  dq finite difference perturbation B field
   LLRAUG    =     F  two centre corrections for induced B field



--------------------------------------------------------------------------------------------------------


 Static calculation
 charge density and potential will be updated during run
 non-spin polarized calculation
 Variant of blocked Davidson
 Davidson routine will perform the subspace rotation
 perform sub-space diagonalisation
    after iterative eigenvector-optimisation
 modified Broyden-mixing scheme, WC =      100.0
 initial mixing is a Kerker type mixing with AMIX =  0.2000 and BMIX =      1.0000
 Hartree-type preconditioning will be used
 using additional bands           96
 reciprocal scheme for non local part
 use partial core corrections
 calculate Harris-corrections to forces 
   (improved forces if not selfconsistent)
 use gradient corrections 
 use of overlap-Matrix (Vanderbilt PP)
 Gauss-broadening in eV      SIGMA  =   0.05


--------------------------------------------------------------------------------------------------------


  energy-cutoff  :      550.00
  volume of cell :      909.00
      direct lattice vectors                 reciprocal lattice vectors
     4.914966177 -8.512971136  0.000000000     0.101730100 -0.058733901  0.000000000
     4.914966177  8.512971136  0.000000000     0.101730100  0.058733901  0.000000000
     0.000000000  0.000000000 10.862602280     0.000000000  0.000000000  0.092058972

  length of vectors
     9.829932353  9.829932353 10.862602280     0.117467801  0.117467801  0.092058972


 
 k-points in units of 2pi/SCALE and weight: pymatgen with grid density = 1000 / numb
   0.00000000  0.00000000  0.00000000       0.125
   0.05086505 -0.02936695  0.00000000       0.250
   0.10173010  0.00000000  0.00000000       0.125
   0.00000000  0.00000000  0.04602949       0.125
   0.05086505 -0.02936695  0.04602949       0.250
   0.10173010  0.00000000  0.04602949       0.125
 
 k-points in reciprocal lattice and weights: pymatgen with grid density = 1000 / numb
   0.00000000  0.00000000  0.00000000       0.125
   0.50000000  0.00000000  0.00000000       0.250
   0.50000000  0.50000000  0.00000000       0.125
   0.00000000  0.00000000  0.50000000       0.125
   0.50000000  0.00000000  0.50000000       0.250
   0.50000000  0.50000000  0.50000000       0.125
 
 position of ions in fractional coordinates (direct lattice) 
   0.26554429  0.26554429  0.50000000
   0.26554429  0.76554429  0.00000000
   0.26554429  0.76554429  0.50000000
   0.76554429  0.26554429  0.00000000
   0.76554429  0.26554429  0.50000000
   0.76554429  0.76554429  0.00000000
   0.76554429  0.76554429  0.50000000
   0.00000000  0.23445571  0.33333333
   0.00000000  0.23445571  0.83333333
   0.00000000  0.73445571  0.33333333
   0.00000000  0.73445571  0.83333333
   0.50000000  0.23445571  0.33333333
   0.50000000  0.23445571  0.83333333
   0.50000000  0.73445571  0.33333333
   0.50000000  0.73445571  0.83333333
   0.23445571  0.00000000  0.16666667
   0.23445571  0.00000000  0.66666667
   0.23445571  0.50000000  0.16666667
   0.23445571  0.50000000  0.66666667
   0.73445571  0.00000000  0.16666667
   0.73445571  0.00000000  0.66666667
   0.73445571  0.50000000  0.16666667
   0.73445571  0.50000000  0.66666667
   0.13461155  0.20669714  0.39244549
   0.13461155  0.20669714  0.89244549
   0.13461155  0.70669714  0.39244549
   0.13461155  0.70669714  0.89244549
   0.63461155  0.20669714  0.39244549
   0.63461155  0.20669714  0.89244549
   0.63461155  0.70669714  0.39244549
   0.63461155  0.70669714  0.89244549
   0.29330286  0.42791441  0.05911216
   0.29330286  0.42791441  0.55911216
   0.29330286  0.92791441  0.05911216
   0.29330286  0.92791441  0.55911216
   0.79330286  0.42791441  0.05911216
   0.79330286  0.42791441  0.55911216
   0.79330286  0.92791441  0.05911216
   0.79330286  0.92791441  0.55911216
   0.07208559  0.36538845  0.22577882
   0.07208559  0.36538845  0.72577882
   0.07208559  0.86538845  0.22577882
   0.07208559  0.86538845  0.72577882
   0.57208559  0.36538845  0.22577882
   0.57208559  0.36538845  0.72577882
   0.57208559  0.86538845  0.22577882
   0.57208559  0.86538845  0.72577882
   0.20669714  0.13461155  0.10755451
   0.20669714  0.13461155  0.60755451
   0.20669714  0.63461155  0.10755451
   0.20669714  0.63461155  0.60755451
   0.70669714  0.13461155  0.10755451
   0.70669714  0.13461155  0.60755451
   0.70669714  0.63461155  0.10755451
   0.70669714  0.63461155  0.60755451
   0.36538845  0.07208559  0.27422118
   0.36538845  0.07208559  0.77422118
   0.36538845  0.57208559  0.27422118
   0.36538845  0.57208559  0.77422118
   0.86538845  0.07208559  0.27422118
   0.86538845  0.07208559  0.77422118
   0.86538845  0.57208559  0.27422118
   0.86538845  0.57208559  0.77422118
   0.42791441  0.29330286  0.44088784
   0.42791441  0.29330286  0.94088784
   0.42791441  0.79330286  0.44088784
   0.42791441  0.79330286  0.94088784
   0.92791441  0.29330286  0.44088784
   0.92791441  0.29330286  0.94088784
   0.92791441  0.79330286  0.44088784
   0.92791441  0.79330286  0.94088784
 
 position of ions in cartesian coordinates  (Angst):
   2.61028246 -0.00000000  5.43130114
   5.06776555  4.25648557  0.00000000
   5.06776555  4.25648557  5.43130114
   5.06776555 -4.25648557  0.00000000
   5.06776555 -4.25648557  5.43130114
   7.52524863  0.00000000  0.00000000
   7.52524863  0.00000000  5.43130114
   1.15234186  1.99591465  3.62086743
   1.15234186  1.99591465  9.05216857
   3.60982495  6.25240022  3.62086743
   3.60982495  6.25240022  9.05216857
   3.60982495 -2.26057092  3.62086743
   3.60982495 -2.26057092  9.05216857
   6.06730804  1.99591465  3.62086743
   6.06730804  1.99591465  9.05216857
   1.15234186 -1.99591465  1.81043371
   1.15234186 -1.99591465  7.24173485
   3.60982495  2.26057092  1.81043371
   3.60982495  2.26057092  7.24173485
   3.60982495 -6.25240022  1.81043371
   3.60982495 -6.25240022  7.24173485
   6.06730804 -1.99591465  1.81043371
   6.06730804 -1.99591465  7.24173485
   1.67752072  0.61366255  4.26297927
   1.67752072  0.61366255  9.69428041
   4.13500380  4.87014811  4.26297927
   4.13500380  4.87014811  9.69428041
   4.13500380 -3.64282302  4.26297927
   4.13500380 -3.64282302  9.69428041
   6.59248689  0.61366255  4.26297927
   6.59248689  0.61366255  9.69428041
   3.54475846  1.14594428  0.64211185
   3.54475846  1.14594428  6.07341299
   6.00224155  5.40242985  0.64211185
   6.00224155  5.40242985  6.07341299
   6.00224155 -3.11054129  0.64211185
   6.00224155 -3.11054129  6.07341299
   8.45972464  1.14594428  0.64211185
   8.45972464  1.14594428  6.07341299
   2.15017009  2.49687874  2.45254556
   2.15017009  2.49687874  7.88384670
   4.60765317  6.75336431  2.45254556
   4.60765317  6.75336431  7.88384670
   4.60765317 -1.75960683  2.45254556
   4.60765317 -1.75960683  7.88384670
   7.06513626  2.49687874  2.45254556
   7.06513626  2.49687874  7.88384670
   1.67752072 -0.61366255  1.16832187
   1.67752072 -0.61366255  6.59962301
   4.13500380  3.64282302  1.16832187
   4.13500380  3.64282302  6.59962301
   4.13500380 -4.87014811  1.16832187
   4.13500380 -4.87014811  6.59962301
   6.59248689 -0.61366255  1.16832187
   6.59248689 -0.61366255  6.59962301
   2.15017009 -2.49687874  2.97875558
   2.15017009 -2.49687874  8.41005672
   4.60765317  1.75960683  2.97875558
   4.60765317  1.75960683  8.41005672
   4.60765317 -6.75336431  2.97875558
   4.60765317 -6.75336431  8.41005672
   7.06513626 -2.49687874  2.97875558
   7.06513626 -2.49687874  8.41005672
   3.54475846 -1.14594428  4.78918929
   3.54475846 -1.14594428 10.22049043
   6.00224155  3.11054129  4.78918929
   6.00224155  3.11054129 10.22049043
   6.00224155 -5.40242985  4.78918929
   6.00224155 -5.40242985 10.22049043
   8.45972464 -1.14594428  4.78918929
   8.45972464 -1.14594428 10.22049043
 


--------------------------------------------------------------------------------------------------------


 k-point   1 :   0.0000 0.0000 0.0000  plane waves:   26579
 k-point   2 :   0.5000 0.0000 0.0000  plane waves:   26614
 k-point   3 :   0.5000 0.5000 0.0000  plane waves:   26614
 k-point   4 :   0.0000 0.0000 0.5000  plane waves:   26718
 k-point   5 :   0.5000 0.0000 0.5000  plane waves:   26636
 k-point   6 :   0.5000 0.5000 0.5000  plane waves:   26636

 maximum and minimum number of plane-waves per node :     26718    26579

 maximum number of plane-waves:     26718
 maximum index in each direction: 
   IXMAX=   18   IYMAX=   18   IZMAX=   20
   IXMIN=  -19   IYMIN=  -19   IZMIN=  -21


 serial   3D FFT for wavefunctions
 parallel 3D FFT for charge:
    minimum data exchange during FFTs selected (reduces bandwidth)


 total amount of memory used by VASP MPI-rank0   100515. kBytes
=======================================================================

   base      :      30000. kBytes
   nonl-proj :      50996. kBytes
   fftplans  :       1721. kBytes
   grid      :       9701. kBytes
   one-center:        218. kBytes
   wavefun   :       7879. kBytes
 
     INWAV:  cpu time      0.0000: real time      0.0005
 Broyden mixing: mesh for mixing (old mesh)
   NGX = 37   NGY = 37   NGZ = 41
  (NGX  =112   NGY  =112   NGZ  =128)
  gives a total of  56129 points

 initial charge density was supplied:
 charge density of overlapping atoms calculated
 number of electron     380.0000000 magnetization 
 keeping initial charge density in first step


--------------------------------------------------------------------------------------------------------


 Maximum index for augmentation-charges          412 (set IRDMAX)


--------------------------------------------------------------------------------------------------------


 First call to EWALD:  gamma=   0.183
 Maximum number of real-space cells 3x 3x 3
 Maximum number of reciprocal cells 3x 3x 3

    FEWALD:  cpu time      0.0024: real time      0.0025


--------------------------------------- Iteration      1(   1)  ---------------------------------------


    POTLOK:  cpu time      0.0188: real time      0.0201
    SETDIJ:  cpu time      0.0028: real time      0.0029
     EDDAV:  cpu time      3.4332: real time      3.4599
       DOS:  cpu time      0.0018: real time      0.0020
    --------------------------------------------
      LOOP:  cpu time      3.4566: real time      3.4848

 eigenvalue-minimisations  :  3456
 total energy-change (2. order) : 0.2017473E+04  (-0.2081092E+05)
 number of electron     380.0000000 magnetization 
 augmentation part      380.0000000 magnetization 

 Free energy of the ion-electron system (eV)
  ---------------------------------------------------
  alpha Z        PSCENC =       545.62548092
  Ewald energy   TEWEN  =    -14981.32895706
  -Hartree energ DENC   =     -7465.62279534
  -exchange      EXHF   =         0.00000000
  -V(xc)+E(xc)   XCENC  =      1137.16167966
  PAW double counting   =     18661.22228188   -18342.91299187
  entropy T*S    EENTRO =        -0.00737588
  eigenvalues    EBANDS =      -660.44561622
  atomic energy  EATOM  =     23123.78097148
  Solvation  Ediel_sol  =         0.00000000
  ---------------------------------------------------
  free energy    TOTEN  =      2017.47267756 eV

  energy without entropy =     2017.48005344  energy(sigma->0) =     2017.47636550


--------------------------------------------------------------------------------------------------------




--------------------------------------- Iteration      1(   2)  ---------------------------------------


     EDDAV:  cpu time      4.7365: real time      4.7624
       DOS:  cpu time      0.0009: real time      0.0009
    --------------------------------------------
      LOOP:  cpu time      4.7373: real time      4.7633

 eigenvalue-minimisations  :  4704
 total energy-change (2. order) :-0.2520818E+04  (-0.2430248E+04)
 number of electron     380.0000000 magnetization 
 augmentation part      380.0000000 magnetization 

 Free energy of the ion-electron system (eV)
  ---------------------------------------------------
  alpha Z        PSCENC =       545.62548092
  Ewald energy   TEWEN  =    -14981.32895706
  -Hartree energ DENC   =     -7465.62279534
  -exchange      EXHF   =         0.00000000
  -V(xc)+E(xc)   XCENC  =      1137.16167966
  PAW double counting   =     18661.22228188   -18342.91299187
  entropy T*S    EENTRO =        -0.00000000
  eigenvalues    EBANDS =     -3181.27116829
  atomic energy  EATOM  =     23123.78097148
  Solvation  Ediel_sol  =         0.00000000
  ---------------------------------------------------
  free energy    TOTEN  =      -503.34549863 eV

  energy without entropy =     -503.34549863  energy(sigma->0) =     -503.34549863


--------------------------------------------------------------------------------------------------------




--------------------------------------- Iteration      1(   3)  ---------------------------------------


     EDDAV:  cpu time      4.9009: real time      4.9281
       DOS:  cpu time      0.0044: real time      0.0044
    --------------------------------------------
      LOOP:  cpu time      4.9054: real time      4.9326

 eigenvalue-minimisations  :  4608
 total energy-change (2. order) :-0.1154736E+03  (-0.1150493E+03)
 number of electron     380.0000000 magnetization 
 augmentation part      380.0000000 magnetization 

 Free energy of the ion-electron system (eV)
  ---------------------------------------------------
  alpha Z        PSCENC =       545.62548092
  Ewald energy   TEWEN  =    -14981.32895706
  -Hartree energ DENC   =     -7465.62279534
  -exchange      EXHF   =         0.00000000
  -V(xc)+E(xc)   XCENC  =      1137.16167966
  PAW double counting   =     18661.22228188   -18342.91299187
  entropy T*S    EENTRO =        -0.00000000
  eigenvalues    EBANDS =     -3296.74475679
  atomic energy  EATOM  =     23123.78097148
  Solvation  Ediel_sol  =         0.00000000
  ---------------------------------------------------
  free energy    TOTEN  =      -618.81908712 eV

  energy without entropy =     -618.81908712  energy(sigma->0) =     -618.81908712


--------------------------------------------------------------------------------------------------------




--------------------------------------- Iteration      1(   4)  ---------------------------------------


     EDDAV:  cpu time      6.6576: real time      6.6920
       DOS:  cpu time      0.0014: real time      0.0014
    --------------------------------------------
      LOOP:  cpu time      6.6589: real time      6.6933

 eigenvalue-minimisations  :  3936
 total energy-change (2. order) :-0.1002539E+01  (-0.1002392E+01)
 number of electron     380.0000000 magnetization 
 augmentation part      380.0000000 magnetization 

 Free energy of the ion-electron system (eV)
  ---------------------------------------------------
  alpha Z        PSCENC =       545.62548092
  Ewald energy   TEWEN  =    -14981.32895706
  -Hartree energ DENC   =     -7465.62279534
  -exchange      EXHF   =         0.00000000
  -V(xc)+E(xc)   XCENC  =      1137.16167966
  PAW double counting   =     18661.22228188   -18342.91299187
  entropy T*S    EENTRO =        -0.00000000
  eigenvalues    EBANDS =     -3297.74729560
  atomic energy  EATOM  =     23123.78097148
  Solvation  Ediel_sol  =         0.00000000
  ---------------------------------------------------
  free energy    TOTEN  =      -619.82162594 eV

  energy without entropy =     -619.82162594  energy(sigma->0) =     -619.82162594


--------------------------------------------------------------------------------------------------------




--------------------------------------- Iteration      1(   5)  ---------------------------------------


     EDDAV:  cpu time      5.0083: real time      5.0376
       DOS:  cpu time      0.0014: real time      0.0014
    CHARGE:  cpu time      0.0424: real time      0.0427
    MIXING:  cpu time      0.0017: real time      0.0023
    --------------------------------------------
      LOOP:  cpu time      5.0537: real time      5.0838

 eigenvalue-minimisations  :  4608
 total energy-change (2. order) :-0.1129136E-01  (-0.1129018E-01)
 number of electron     384.0000060 magnetization 
 augmentation part       35.9327191 magnetization 

 Broyden mixing:
  rms(total) = 0.72142E+01    rms(broyden)= 0.72121E+01
  rms(prec ) = 0.84545E+01
  weight for this iteration     100.00

 Free energy of the ion-electron system (eV)
  ---------------------------------------------------
  alpha Z        PSCENC =       545.62548092
  Ewald energy   TEWEN  =    -14981.32895706
  -Hartree energ DENC   =     -7465.62279534
  -exchange      EXHF   =         0.00000000
  -V(xc)+E(xc)   XCENC  =      1137.16167966
  PAW double counting   =     18661.22228188   -18342.91299187
  entropy T*S    EENTRO =        -0.00000000
  eigenvalues    EBANDS =     -3297.75858696
  atomic energy  EATOM  =     23123.78097148
  Solvation  Ediel_sol  =         0.00000000
  ---------------------------------------------------
  free energy    TOTEN  =      -619.83291730 eV

  energy without entropy =     -619.83291730  energy(sigma->0) =     -619.83291730


--------------------------------------------------------------------------------------------------------




--------------------------------------- Iteration      1(   6)  ---------------------------------------


    POTLOK:  cpu time      0.0134: real time      0.0135
    SETDIJ:  cpu time      0.0016: real time      0.0016
     EDDAV:  cpu time      4.6792: real time      4.7057
       DOS:  cpu time      0.0012: real time      0.0012
    CHARGE:  cpu time      0.0382: real time      0.0384
    MIXING:  cpu time      0.0007: real time      0.0007
    --------------------------------------------
      LOOP:  cpu time      4.7342: real time      4.7611

 eigenvalue-minimisations  :  4512
 total energy-change (2. order) : 0.6408863E+02  (-0.6716439E+01)
 number of electron     384.0000054 magnetization 
 augmentation part       32.2773536 magnetization 

 Broyden mixing:
  rms(total) = 0.49115E+01    rms(broyden)= 0.49114E+01
  rms(prec ) = 0.55136E+01
  weight for this iteration     100.00

 eigenvalues of (default mixing * dielectric matrix)
  average eigenvalue GAMMA=   2.2277
  2.2277

 Free energy of the ion-electron system (eV)
  ---------------------------------------------------
  alpha Z        PSCENC =       545.62548092
  Ewald energy   TEWEN  =    -14981.32895706
  -Hartree energ DENC   =     -7896.26672144
  -exchange      EXHF   =         0.00000000
  -V(xc)+E(xc)   XCENC  =      1178.66292196
  PAW double counting   =     24545.72054282   -24236.07682401
  entropy T*S    EENTRO =        -0.00000000
  eigenvalues    EBANDS =     -2835.86170541
  atomic energy  EATOM  =     23123.78097148
  Solvation  Ediel_sol  =         0.00000000
  ---------------------------------------------------
  free energy    TOTEN  =      -555.74429075 eV

  energy without entropy =     -555.74429075  energy(sigma->0) =     -555.74429075


--------------------------------------------------------------------------------------------------------




--------------------------------------- Iteration      1(   7)  ---------------------------------------


    POTLOK:  cpu time      0.0112: real time      0.0117
    SETDIJ:  cpu time      0.0017: real time      0.0017
     EDDAV:  cpu time      4.8348: real time      4.8598
       DOS:  cpu time      0.0014: real time      0.0015
    CHARGE:  cpu time      0.0389: real time      0.0392
    MIXING:  cpu time      0.0005: real time      0.0006
    --------------------------------------------
      LOOP:  cpu time      4.8886: real time      4.9144

 eigenvalue-minimisations  :  4608
 total energy-change (2. order) : 0.2353029E+02  (-0.9763664E+01)
 number of electron     384.0000047 magnetization 
 augmentation part       27.9350478 magnetization 

 Broyden mixing:
  rms(total) = 0.21870E+01    rms(broyden)= 0.21864E+01
  rms(prec ) = 0.23142E+01
  weight for this iteration     100.00

 eigenvalues of (default mixing * dielectric matrix)
  average eigenvalue GAMMA=   2.2582
  2.2582  2.2582

 Free energy of the ion-electron system (eV)
  ---------------------------------------------------
  alpha Z        PSCENC =       545.62548092
  Ewald energy   TEWEN  =    -14981.32895706
  -Hartree energ DENC   =     -8432.19664841
  -exchange      EXHF   =         0.00000000
  -V(xc)+E(xc)   XCENC  =      1214.97084874
  PAW double counting   =     41520.21705284   -41220.41233060
  entropy T*S    EENTRO =        -0.00000000
  eigenvalues    EBANDS =     -2302.87041827
  atomic energy  EATOM  =     23123.78097148
  Solvation  Ediel_sol  =         0.00000000
  ---------------------------------------------------
  free energy    TOTEN  =      -532.21400036 eV

  energy without entropy =     -532.21400036  energy(sigma->0) =     -532.21400036


--------------------------------------------------------------------------------------------------------




--------------------------------------- Iteration      1(   8)  ---------------------------------------


    POTLOK:  cpu time      0.0130: real time      0.0135
    SETDIJ:  cpu time      0.0017: real time      0.0017
     EDDAV:  cpu time      4.8745: real time      4.9010
       DOS:  cpu time      0.0012: real time      0.0012
    CHARGE:  cpu time      0.0406: real time      0.0408
    MIXING:  cpu time      0.0005: real time      0.0007
    --------------------------------------------
      LOOP:  cpu time      4.9314: real time      4.9589

 eigenvalue-minimisations  :  4608
 total energy-change (2. order) : 0.7108775E+00  (-0.6186981E+00)
 number of electron     384.0000049 magnetization 
 augmentation part       28.5227285 magnetization 

 Broyden mixing:
  rms(total) = 0.91537E+00    rms(broyden)= 0.91535E+00
  rms(prec ) = 0.10403E+01
  weight for this iteration     100.00

 eigenvalues of (default mixing * dielectric matrix)
  average eigenvalue GAMMA=   2.2828
  1.0930  3.6584  2.0971

 Free energy of the ion-electron system (eV)
  ---------------------------------------------------
  alpha Z        PSCENC =       545.62548092
  Ewald energy   TEWEN  =    -14981.32895706
  -Hartree energ DENC   =     -8403.15746139
  -exchange      EXHF   =         0.00000000
  -V(xc)+E(xc)   XCENC  =      1213.21437587
  PAW double counting   =     51437.76156189   -51136.24614296
  entropy T*S    EENTRO =        -0.00000000
  eigenvalues    EBANDS =     -2331.15295162
  atomic energy  EATOM  =     23123.78097148
  Solvation  Ediel_sol  =         0.00000000
  ---------------------------------------------------
  free energy    TOTEN  =      -531.50312287 eV

  energy without entropy =     -531.50312287  energy(sigma->0) =     -531.50312287


--------------------------------------------------------------------------------------------------------




--------------------------------------- Iteration      1(   9)  ---------------------------------------


    POTLOK:  cpu time      0.0119: real time      0.0123
    SETDIJ:  cpu time      0.0015: real time      0.0015
     EDDAV:  cpu time      4.8449: real time      4.8695
       DOS:  cpu time      0.0013: real time      0.0013
    CHARGE:  cpu time      0.0402: real time      0.0405
    MIXING:  cpu time      0.0005: real time      0.0005
    --------------------------------------------
      LOOP:  cpu time      4.9003: real time      4.9256

 eigenvalue-minimisations  :  4608
 total energy-change (2. order) : 0.4179011E+00  (-0.7076783E-01)
 number of electron     384.0000048 magnetization 
 augmentation part       28.3167558 magnetization 

 Broyden mixing:
  rms(total) = 0.35670E+00    rms(broyden)= 0.35669E+00
  rms(prec ) = 0.42066E+00
  weight for this iteration     100.00

 eigenvalues of (default mixing * dielectric matrix)
  average eigenvalue GAMMA=   2.3983
  4.9993  0.9590  1.8175  1.8175

 Free energy of the ion-electron system (eV)
  ---------------------------------------------------
  alpha Z        PSCENC =       545.62548092
  Ewald energy   TEWEN  =    -14981.32895706
  -Hartree energ DENC   =     -8465.33629837
  -exchange      EXHF   =         0.00000000
  -V(xc)+E(xc)   XCENC  =      1217.70518015
  PAW double counting   =     59709.62938259   -59408.81918727
  entropy T*S    EENTRO =        -0.00000000
  eigenvalues    EBANDS =     -2272.34179417
  atomic energy  EATOM  =     23123.78097148
  Solvation  Ediel_sol  =         0.00000000
  ---------------------------------------------------
  free energy    TOTEN  =      -531.08522173 eV

  energy without entropy =     -531.08522173  energy(sigma->0) =     -531.08522173


--------------------------------------------------------------------------------------------------------




--------------------------------------- Iteration      1(  10)  ---------------------------------------


    POTLOK:  cpu time      0.0115: real time      0.0119
    SETDIJ:  cpu time      0.0016: real time      0.0016
     EDDAV:  cpu time      5.7157: real time      5.7470
       DOS:  cpu time      0.0015: real time      0.0015
    CHARGE:  cpu time      0.0387: real time      0.0390
    MIXING:  cpu time      0.0006: real time      0.0006
    --------------------------------------------
      LOOP:  cpu time      5.7697: real time      5.8016

 eigenvalue-minimisations  :  5184
 total energy-change (2. order) :-0.1552771E-01  (-0.4821646E-01)
 number of electron     384.0000047 magnetization 
 augmentation part       28.1156439 magnetization 

 Broyden mixing:
  rms(total) = 0.23720E+00    rms(broyden)= 0.23718E+00
  rms(prec ) = 0.25763E+00
  weight for this iteration     100.00

 eigenvalues of (default mixing * dielectric matrix)
  average eigenvalue GAMMA=   2.2002
  4.9316  2.0685  2.0685  0.9663  0.9663

 Free energy of the ion-electron system (eV)
  ---------------------------------------------------
  alpha Z        PSCENC =       545.62548092
  Ewald energy   TEWEN  =    -14981.32895706
  -Hartree energ DENC   =     -8508.21898522
  -exchange      EXHF   =         0.00000000
  -V(xc)+E(xc)   XCENC  =      1220.90477438
  PAW double counting   =     64949.07254706   -64648.74199982
  entropy T*S    EENTRO =        -0.00286795
  eigenvalues    EBANDS =     -2232.19171323
  atomic energy  EATOM  =     23123.78097148
  Solvation  Ediel_sol  =         0.00000000
  ---------------------------------------------------
  free energy    TOTEN  =      -531.10074945 eV

  energy without entropy =     -531.09788149  energy(sigma->0) =     -531.09931547


--------------------------------------------------------------------------------------------------------




--------------------------------------- Iteration      1(  11)  ---------------------------------------


    POTLOK:  cpu time      0.0120: real time      0.0124
    SETDIJ:  cpu time      0.0015: real time      0.0015
     EDDAV:  cpu time      4.4234: real time      4.4474
       DOS:  cpu time      0.0012: real time      0.0012
    CHARGE:  cpu time      0.0406: real time      0.0408
    MIXING:  cpu time      0.0006: real time      0.0006
    --------------------------------------------
      LOOP:  cpu time      4.4792: real time      4.5039

 eigenvalue-minimisations  :  4320
 total energy-change (2. order) : 0.4750748E-02  (-0.5510364E-02)
 number of electron     384.0000048 magnetization 
 augmentation part       28.1927185 magnetization 

 Broyden mixing:
  rms(total) = 0.15112E+00    rms(broyden)= 0.15112E+00
  rms(prec ) = 0.15753E+00
  weight for this iteration     100.00

 eigenvalues of (default mixing * dielectric matrix)
  average eigenvalue GAMMA=   2.4641
  5.2518  4.3325  2.0089  1.0836  1.0836  1.0242

 Free energy of the ion-electron system (eV)
  ---------------------------------------------------
  alpha Z        PSCENC =       545.62548092
  Ewald energy   TEWEN  =    -14981.32895706
  -Hartree energ DENC   =     -8502.11922208
  -exchange      EXHF   =         0.00000000
  -V(xc)+E(xc)   XCENC  =      1220.46449414
  PAW double counting   =     63998.79692972   -63698.34336305
  entropy T*S    EENTRO =        -0.00003452
  eigenvalues    EBANDS =     -2237.97229826
  atomic energy  EATOM  =     23123.78097148
  Solvation  Ediel_sol  =         0.00000000
  ---------------------------------------------------
  free energy    TOTEN  =      -531.09599870 eV

  energy without entropy =     -531.09596418  energy(sigma->0) =     -531.09598144


--------------------------------------------------------------------------------------------------------




--------------------------------------- Iteration      1(  12)  ---------------------------------------


    POTLOK:  cpu time      0.0116: real time      0.0120
    SETDIJ:  cpu time      0.0015: real time      0.0015
     EDDAV:  cpu time      6.8926: real time      6.9256
       DOS:  cpu time      0.0013: real time      0.0013
    CHARGE:  cpu time      0.0404: real time      0.0406
    MIXING:  cpu time      0.0006: real time      0.0006
    --------------------------------------------
      LOOP:  cpu time      6.9479: real time      6.9817

 eigenvalue-minimisations  :  4608
 total energy-change (2. order) :-0.1294376E-01  (-0.1806814E-02)
 number of electron     384.0000048 magnetization 
 augmentation part       28.2100489 magnetization 

 Broyden mixing:
  rms(total) = 0.37076E-01    rms(broyden)= 0.37071E-01
  rms(prec ) = 0.41586E-01
  weight for this iteration     100.00

 eigenvalues of (default mixing * dielectric matrix)
  average eigenvalue GAMMA=   2.3149
  5.1430  4.4963  2.0427  1.4744  0.9914  1.0283  1.0283

 Free energy of the ion-electron system (eV)
  ---------------------------------------------------
  alpha Z        PSCENC =       545.62548092
  Ewald energy   TEWEN  =    -14981.32895706
  -Hartree energ DENC   =     -8504.65142229
  -exchange      EXHF   =         0.00000000
  -V(xc)+E(xc)   XCENC  =      1220.61700476
  PAW double counting   =     62814.40576134   -62513.99245671
  entropy T*S    EENTRO =        -0.00000268
  eigenvalues    EBANDS =     -2235.56532222
  atomic energy  EATOM  =     23123.78097148
  Solvation  Ediel_sol  =         0.00000000
  ---------------------------------------------------
  free energy    TOTEN  =      -531.10894246 eV

  energy without entropy =     -531.10893978  energy(sigma->0) =     -531.10894112


--------------------------------------------------------------------------------------------------------




--------------------------------------- Iteration      1(  13)  ---------------------------------------


    POTLOK:  cpu time      0.0118: real time      0.0122
    SETDIJ:  cpu time      0.0015: real time      0.0015
     EDDAV:  cpu time      4.6306: real time      4.6552
       DOS:  cpu time      0.0011: real time      0.0011
    CHARGE:  cpu time      0.0388: real time      0.0391
    MIXING:  cpu time      0.0006: real time      0.0006
    --------------------------------------------
      LOOP:  cpu time      4.6844: real time      4.7097

 eigenvalue-minimisations  :  4608
 total energy-change (2. order) :-0.1577867E-02  (-0.4648064E-03)
 number of electron     384.0000048 magnetization 
 augmentation part       28.2076083 magnetization 

 Broyden mixing:
  rms(total) = 0.15900E-01    rms(broyden)= 0.15898E-01
  rms(prec ) = 0.19524E-01
  weight for this iteration     100.00

 eigenvalues of (default mixing * dielectric matrix)
  average eigenvalue GAMMA=   2.2103
  5.0340  4.6973  1.9345  1.9345  1.1133  1.1133  1.0213  0.8345

 Free energy of the ion-electron system (eV)
  ---------------------------------------------------
  alpha Z        PSCENC =       545.62548092
  Ewald energy   TEWEN  =    -14981.32895706
  -Hartree energ DENC   =     -8505.26958024
  -exchange      EXHF   =         0.00000000
  -V(xc)+E(xc)   XCENC  =      1220.64347202
  PAW double counting   =     62471.02294627   -62170.61611647
  entropy T*S    EENTRO =        -0.00000106
  eigenvalues    EBANDS =     -2234.96873619
  atomic energy  EATOM  =     23123.78097148
  Solvation  Ediel_sol  =         0.00000000
  ---------------------------------------------------
  free energy    TOTEN  =      -531.11052033 eV

  energy without entropy =     -531.11051927  energy(sigma->0) =     -531.11051980


--------------------------------------------------------------------------------------------------------




--------------------------------------- Iteration      1(  14)  ---------------------------------------


    POTLOK:  cpu time      0.0116: real time      0.0120
    SETDIJ:  cpu time      0.0015: real time      0.0015
     EDDAV:  cpu time      4.8215: real time      4.8464
       DOS:  cpu time      0.0011: real time      0.0011
    CHARGE:  cpu time      0.0387: real time      0.0390
    MIXING:  cpu time      0.0006: real time      0.0006
    --------------------------------------------
      LOOP:  cpu time      4.8751: real time      4.9006

 eigenvalue-minimisations  :  4608
 total energy-change (2. order) :-0.5823452E-03  (-0.1138714E-03)
 number of electron     384.0000048 magnetization 
 augmentation part       28.2158949 magnetization 

 Broyden mixing:
  rms(total) = 0.12712E-01    rms(broyden)= 0.12711E-01
  rms(prec ) = 0.15743E-01
  weight for this iteration     100.00

 eigenvalues of (default mixing * dielectric matrix)
  average eigenvalue GAMMA=   2.2751
  5.3618  4.8118  2.2419  2.2419  1.6322  1.2474  1.0190  0.9601  0.9601

 Free energy of the ion-electron system (eV)
  ---------------------------------------------------
  alpha Z        PSCENC =       545.62548092
  Ewald energy   TEWEN  =    -14981.32895706
  -Hartree energ DENC   =     -8504.55150891
  -exchange      EXHF   =         0.00000000
  -V(xc)+E(xc)   XCENC  =      1220.59412880
  PAW double counting   =     62439.22073351   -62138.78229503
  entropy T*S    EENTRO =        -0.00000095
  eigenvalues    EBANDS =     -2235.66965544
  atomic energy  EATOM  =     23123.78097148
  Solvation  Ediel_sol  =         0.00000000
  ---------------------------------------------------
  free energy    TOTEN  =      -531.11110267 eV

  energy without entropy =     -531.11110172  energy(sigma->0) =     -531.11110220


--------------------------------------------------------------------------------------------------------




--------------------------------------- Iteration      1(  15)  ---------------------------------------


    POTLOK:  cpu time      0.0109: real time      0.0114
    SETDIJ:  cpu time      0.0016: real time      0.0017
     EDDAV:  cpu time      7.7174: real time      7.7634
       DOS:  cpu time      0.0012: real time      0.0012
    CHARGE:  cpu time      0.0391: real time      0.0394
    MIXING:  cpu time      0.0007: real time      0.0007
    --------------------------------------------
      LOOP:  cpu time      7.7710: real time      7.8176

 eigenvalue-minimisations  :  4608
 total energy-change (2. order) :-0.3250428E-03  (-0.4598136E-04)
 number of electron     384.0000048 magnetization 
 augmentation part       28.2128496 magnetization 

 Broyden mixing:
  rms(total) = 0.83622E-02    rms(broyden)= 0.83619E-02
  rms(prec ) = 0.92563E-02
  weight for this iteration     100.00

 eigenvalues of (default mixing * dielectric matrix)
  average eigenvalue GAMMA=   2.3243
  5.2769  4.9901  3.6520  2.1033  1.8866  1.3398  1.0240  1.0240  0.9734  0.9734

 Free energy of the ion-electron system (eV)
  ---------------------------------------------------
  alpha Z        PSCENC =       545.62548092
  Ewald energy   TEWEN  =    -14981.32895706
  -Hartree energ DENC   =     -8504.99230122
  -exchange      EXHF   =         0.00000000
  -V(xc)+E(xc)   XCENC  =      1220.62526840
  PAW double counting   =     62435.81575145   -62135.36807239
  entropy T*S    EENTRO =        -0.00000174
  eigenvalues    EBANDS =     -2235.26956755
  atomic energy  EATOM  =     23123.78097148
  Solvation  Ediel_sol  =         0.00000000
  ---------------------------------------------------
  free energy    TOTEN  =      -531.11142772 eV

  energy without entropy =     -531.11142598  energy(sigma->0) =     -531.11142685


--------------------------------------------------------------------------------------------------------




--------------------------------------- Iteration      1(  16)  ---------------------------------------


    POTLOK:  cpu time      0.0128: real time      0.0133
    SETDIJ:  cpu time      0.0016: real time      0.0016
     EDDAV:  cpu time      5.6258: real time      5.6554
       DOS:  cpu time      0.0014: real time      0.0014
    CHARGE:  cpu time      0.0403: real time      0.0405
    MIXING:  cpu time      0.0007: real time      0.0007
    --------------------------------------------
      LOOP:  cpu time      5.6826: real time      5.7129

 eigenvalue-minimisations  :  5184
 total energy-change (2. order) :-0.7732570E-04  (-0.1726867E-04)
 number of electron     384.0000048 magnetization 
 augmentation part       28.2099969 magnetization 

 Broyden mixing:
  rms(total) = 0.20332E-02    rms(broyden)= 0.20325E-02
  rms(prec ) = 0.25130E-02
  weight for this iteration     100.00

 eigenvalues of (default mixing * dielectric matrix)
  average eigenvalue GAMMA=   2.3373
  5.8863  4.9899  3.8418  2.0698  2.0698  1.7724  1.0940  1.0940  0.9380  0.9774
  0.9774

 Free energy of the ion-electron system (eV)
  ---------------------------------------------------
  alpha Z        PSCENC =       545.62548092
  Ewald energy   TEWEN  =    -14981.32895706
  -Hartree energ DENC   =     -8505.25656926
  -exchange      EXHF   =         0.00000000
  -V(xc)+E(xc)   XCENC  =      1220.64386779
  PAW double counting   =     62493.02935807   -62192.57401815
  entropy T*S    EENTRO =        -0.00000239
  eigenvalues    EBANDS =     -2235.03163644
  atomic energy  EATOM  =     23123.78097148
  Solvation  Ediel_sol  =         0.00000000
  ---------------------------------------------------
  free energy    TOTEN  =      -531.11150504 eV

  energy without entropy =     -531.11150265  energy(sigma->0) =     -531.11150385


--------------------------------------------------------------------------------------------------------




--------------------------------------- Iteration      1(  17)  ---------------------------------------


    POTLOK:  cpu time      0.0116: real time      0.0121
    SETDIJ:  cpu time      0.0014: real time      0.0014
     EDDAV:  cpu time      4.3988: real time      4.4219
       DOS:  cpu time      0.0011: real time      0.0011
    CHARGE:  cpu time      0.0404: real time      0.0406
    MIXING:  cpu time      0.0007: real time      0.0007
    --------------------------------------------
      LOOP:  cpu time      4.4540: real time      4.4778

 eigenvalue-minimisations  :  4320
 total energy-change (2. order) :-0.2033409E-04  (-0.2800998E-05)
 number of electron     384.0000048 magnetization 
 augmentation part       28.2101268 magnetization 

 Broyden mixing:
  rms(total) = 0.17244E-02    rms(broyden)= 0.17243E-02
  rms(prec ) = 0.19324E-02
  weight for this iteration     100.00

 eigenvalues of (default mixing * dielectric matrix)
  average eigenvalue GAMMA=   2.2759
  5.9268  4.9964  3.5629  2.2622  2.2622  2.1191  1.1828  1.1828  0.9830  0.9830
  0.9246  0.9246

 Free energy of the ion-electron system (eV)
  ---------------------------------------------------
  alpha Z        PSCENC =       545.62548092
  Ewald energy   TEWEN  =    -14981.32895706
  -Hartree energ DENC   =     -8505.31591107
  -exchange      EXHF   =         0.00000000
  -V(xc)+E(xc)   XCENC  =      1220.64764545
  PAW double counting   =     62490.66731418   -62190.21014336
  entropy T*S    EENTRO =        -0.00000229
  eigenvalues    EBANDS =     -2234.97792363
  atomic energy  EATOM  =     23123.78097148
  Solvation  Ediel_sol  =         0.00000000
  ---------------------------------------------------
  free energy    TOTEN  =      -531.11152538 eV

  energy without entropy =     -531.11152309  energy(sigma->0) =     -531.11152423


--------------------------------------------------------------------------------------------------------




--------------------------------------- Iteration      1(  18)  ---------------------------------------


    POTLOK:  cpu time      0.0120: real time      0.0125
    SETDIJ:  cpu time      0.0015: real time      0.0015
     EDDAV:  cpu time      4.8279: real time      4.8544
       DOS:  cpu time      0.0010: real time      0.0010
    CHARGE:  cpu time      0.0401: real time      0.0403
    MIXING:  cpu time      0.0007: real time      0.0007
    --------------------------------------------
      LOOP:  cpu time      4.8833: real time      4.9104

 eigenvalue-minimisations  :  4608
 total energy-change (2. order) :-0.2343484E-05  (-0.6730493E-06)
 number of electron     384.0000048 magnetization 
 augmentation part       28.2100872 magnetization 

 Broyden mixing:
  rms(total) = 0.13014E-02    rms(broyden)= 0.13013E-02
  rms(prec ) = 0.14509E-02
  weight for this iteration     100.00

 eigenvalues of (default mixing * dielectric matrix)
  average eigenvalue GAMMA=   2.2409
  5.9598  5.0000  3.6131  2.3088  2.3088  2.0824  1.4482  1.4482  1.0498  1.0498
  0.9337  0.9644  0.9644

 Free energy of the ion-electron system (eV)
  ---------------------------------------------------
  alpha Z        PSCENC =       545.62548092
  Ewald energy   TEWEN  =    -14981.32895706
  -Hartree energ DENC   =     -8505.31622319
  -exchange      EXHF   =         0.00000000
  -V(xc)+E(xc)   XCENC  =      1220.64756228
  PAW double counting   =     62494.09938991   -62193.64248355
  entropy T*S    EENTRO =        -0.00000233
  eigenvalues    EBANDS =     -2234.97726618
  atomic energy  EATOM  =     23123.78097148
  Solvation  Ediel_sol  =         0.00000000
  ---------------------------------------------------
  free energy    TOTEN  =      -531.11152772 eV

  energy without entropy =     -531.11152539  energy(sigma->0) =     -531.11152656


--------------------------------------------------------------------------------------------------------




--------------------------------------- Iteration      1(  19)  ---------------------------------------


    POTLOK:  cpu time      0.0117: real time      0.0122
    SETDIJ:  cpu time      0.0015: real time      0.0015
     EDDAV:  cpu time      4.8323: real time      4.8572
       DOS:  cpu time      0.0010: real time      0.0010
    --------------------------------------------
      LOOP:  cpu time      4.8466: real time      4.8719

 eigenvalue-minimisations  :  4608
 total energy-change (2. order) :-0.9115247E-06  (-0.2353073E-06)
 number of electron     384.0000048 magnetization 
 augmentation part       28.2100872 magnetization 

 Free energy of the ion-electron system (eV)
  ---------------------------------------------------
  alpha Z        PSCENC =       545.62548092
  Ewald energy   TEWEN  =    -14981.32895706
  -Hartree energ DENC   =     -8505.33814667
  -exchange      EXHF   =         0.00000000
  -V(xc)+E(xc)   XCENC  =      1220.64910360
  PAW double counting   =     62500.24089579   -62199.78424003
  entropy T*S    EENTRO =        -0.00000245
  eigenvalues    EBANDS =     -2234.95663421
  atomic energy  EATOM  =     23123.78097148
  Solvation  Ediel_sol  =         0.00000000
  ---------------------------------------------------
  free energy    TOTEN  =      -531.11152863 eV

  energy without entropy =     -531.11152618  energy(sigma->0) =     -531.11152741


--------------------------------------------------------------------------------------------------------




 average (electrostatic) potential at core
  the test charge radii are     0.9892  0.7215
  (the norm of the test charge is              1.0000)
       1 -87.5607       2 -86.5362       3 -87.9648       4 -86.5362       5 -87.9648
       6 -87.1921       7 -88.1415       8 -87.2667       9 -84.3575      10 -87.5314
      11 -87.4176      12 -87.2715      13 -84.3561      14 -87.5862      15 -87.2214
      16 -84.3575      17 -87.2667      18 -84.3561      19 -87.2715      20 -87.4176
      21 -87.5314      22 -87.2214      23 -87.5862      24 -73.2492      25 -66.6927
      26 -73.7764      27 -73.0526      28 -73.7650      29 -71.8805      30 -73.9671
      31 -73.0050      32 -66.6332      33 -73.5035      34 -71.7865      35 -73.7492
      36 -72.8267      37 -73.8733      38 -73.0091      39 -73.9737      40 -72.1532
      41 -72.3093      42 -72.4273      43 -73.3492      44 -72.8443      45 -72.4695
      46 -73.5257      47 -73.5418      48 -66.6927      49 -73.2492      50 -71.8805
      51 -73.7650      52 -73.0526      53 -73.7764      54 -73.0050      55 -73.9671
      56 -72.3093      57 -72.1532      58 -72.4695      59 -72.8443      60 -73.3492
      61 -72.4273      62 -73.5418      63 -73.5257      64 -73.5035      65 -66.6332
      66 -73.8733      67 -72.8267      68 -73.7492      69 -71.7865      70 -73.9737
      71 -73.0091
 
 
 
 E-fermi :   6.1044     XC(G=0):  -9.2264     alpha+bet :-10.0379

 Fermi energy:         6.1043827205

 k-point     1 :       0.0000    0.0000    0.0000
  band No.  band energies     occupation 
      1     -19.5111      2.00000
      2     -19.1637      2.00000
      3     -19.0733      2.00000
      4     -18.8139      2.00000
      5     -18.7522      2.00000
      6     -18.7299      2.00000
      7     -18.6497      2.00000
      8     -18.6179      2.00000
      9     -18.3978      2.00000
     10     -18.3975      2.00000
     11     -18.1474      2.00000
     12     -18.0376      2.00000
     13     -17.9931      2.00000
     14     -17.9632      2.00000
     15     -17.9620      2.00000
     16     -17.8340      2.00000
     17     -17.6890      2.00000
     18     -17.6706      2.00000
     19     -17.6022      2.00000
     20     -17.6001      2.00000
     21     -17.5268      2.00000
     22     -17.3904      2.00000
     23     -17.3899      2.00000
     24     -17.2745      2.00000
     25     -17.2444      2.00000
     26     -17.1779      2.00000
     27     -17.1416      2.00000
     28     -17.0684      2.00000
     29     -17.0261      2.00000
     30     -16.9896      2.00000
     31     -16.9702      2.00000
     32     -16.9544      2.00000
     33     -16.8559      2.00000
[...]
   0.206E+01 0.167E+01 -.242E+00   0.330E+00 -.997E+00 -.352E+01   -.151E+01 -.537E+00 0.207E+01   -.488E-04 0.319E-03 -.120E-04
   -.135E+01 0.227E+00 -.302E+01   0.205E+01 -.384E-02 0.411E+01   -.757E-01 -.744E-01 -.249E+00   -.388E-03 -.612E-03 0.393E-04
   0.122E+01 -.176E+01 0.468E+01   -.292E+01 0.252E+01 -.740E+01   0.434E+00 -.495E-01 0.809E+00   -.443E-04 -.144E-03 0.520E-03
   0.752E+01 -.108E+01 0.629E+00   -.778E+01 0.135E+02 0.138E+02   -.361E+00 -.738E+01 -.838E+01   0.112E-03 -.905E-03 -.810E-03
   -.103E-01 0.332E+01 0.187E+01   -.318E+01 -.302E+01 -.405E+01   0.164E+01 -.302E+00 0.898E+00   0.283E-03 -.336E-03 -.550E-04
   0.489E+01 0.493E+01 -.386E+01   -.625E+01 -.479E+01 0.506E+01   0.172E+00 -.478E+00 -.390E-01   0.387E-03 0.648E-03 -.170E-03
   -.304E+01 0.553E+00 0.589E+01   0.886E+01 0.153E+02 -.138E+02   -.301E+01 -.969E+01 0.411E+01   -.186E-03 -.120E-02 0.575E-03
   0.833E+00 -.596E+01 -.442E+01   0.175E+01 0.557E+01 0.740E+01   -.132E+01 0.881E+00 -.888E+00   -.160E-03 -.363E-04 -.571E-03
   0.752E+01 0.108E+01 -.629E+00   -.778E+01 -.135E+02 -.138E+02   -.361E+00 0.738E+01 0.838E+01   0.112E-03 0.905E-03 0.810E-03
   0.122E+01 0.176E+01 -.468E+01   -.292E+01 -.252E+01 0.740E+01   0.434E+00 0.495E-01 -.809E+00   -.443E-04 0.144E-03 -.520E-03
   -.135E+01 -.227E+00 0.302E+01   0.205E+01 0.384E-02 -.411E+01   -.757E-01 0.744E-01 0.249E+00   -.388E-03 0.612E-03 -.393E-04
   0.206E+01 -.167E+01 0.242E+00   0.330E+00 0.997E+00 0.352E+01   -.151E+01 0.537E+00 -.207E+01   -.488E-04 -.319E-03 0.120E-04
   0.489E+01 -.493E+01 0.386E+01   -.625E+01 0.479E+01 -.506E+01   0.172E+00 0.478E+00 0.390E-01   0.387E-03 -.648E-03 0.170E-03
   -.103E-01 -.332E+01 -.187E+01   -.318E+01 0.302E+01 0.405E+01   0.164E+01 0.302E+00 -.898E+00   0.283E-03 0.336E-03 0.550E-04
   0.402E+02 0.587E+02 0.404E+02   -.480E+02 -.756E+02 -.534E+02   0.762E+01 0.168E+02 0.136E+02   -.443E-04 -.229E-03 0.750E-03
   -.949E+01 0.932E+02 -.336E+02   0.236E+02 -.123E+03 0.519E+02   -.158E+02 0.316E+02 -.207E+02   -.495E-03 0.190E-02 -.889E-03
   0.424E+02 0.578E+02 0.347E+02   -.504E+02 -.738E+02 -.464E+02   0.784E+01 0.155E+02 0.122E+02   -.138E-03 -.489E-03 -.583E-03
   0.407E+02 0.577E+02 0.291E+02   -.489E+02 -.742E+02 -.383E+02   0.774E+01 0.166E+02 0.840E+01   -.237E-03 -.759E-03 0.160E-03
   0.430E+02 0.556E+02 0.358E+02   -.519E+02 -.713E+02 -.471E+02   0.906E+01 0.151E+02 0.116E+02   -.517E-03 0.163E-03 -.194E-02
   0.458E+02 0.517E+02 0.282E+02   -.548E+02 -.636E+02 -.366E+02   0.946E+01 0.938E+01 0.812E+01   -.404E-03 -.822E-03 0.349E-03
   0.442E+02 0.582E+02 0.358E+02   -.533E+02 -.742E+02 -.470E+02   0.930E+01 0.156E+02 0.114E+02   -.104E-02 -.747E-03 -.127E-02
   0.501E+02 0.591E+02 0.276E+02   -.607E+02 -.756E+02 -.369E+02   0.109E+02 0.165E+02 0.886E+01   0.189E-02 0.972E-05 -.395E-03
   -.194E+02 0.725E+02 0.702E+02   0.141E+02 -.996E+02 -.953E+02   0.672E+01 0.298E+02 0.272E+02   -.313E-03 0.226E-02 0.906E-03
   -.697E+02 0.105E+02 0.280E+02   0.872E+02 -.993E+01 -.376E+02   -.171E+02 -.616E+00 0.911E+01   0.638E-03 -.637E-03 -.532E-03
   -.781E+02 -.508E+01 0.368E+02   0.978E+02 0.103E+02 -.479E+02   -.203E+02 -.733E+01 0.104E+02   0.741E-04 -.807E-03 0.345E-03
   -.718E+02 0.595E+01 0.303E+02   0.905E+02 -.484E+01 -.400E+02   -.188E+02 -.149E+01 0.904E+01   0.100E-02 0.162E-02 0.231E-03
   -.673E+02 0.576E+01 0.338E+02   0.844E+02 -.468E+01 -.456E+02   -.164E+02 -.963E+00 0.123E+02   0.101E-02 -.117E-02 -.271E-03
   -.708E+02 0.775E+01 0.310E+02   0.882E+02 -.691E+01 -.407E+02   -.169E+02 -.108E+01 0.911E+01   0.769E-03 0.601E-03 0.102E-03
   -.784E+02 0.111E+02 0.349E+02   0.989E+02 -.110E+02 -.461E+02   -.207E+02 0.919E-01 0.114E+02   -.107E-02 0.102E-02 -.311E-03
   -.723E+02 0.888E+01 0.309E+02   0.910E+02 -.812E+01 -.405E+02   -.187E+02 -.996E+00 0.903E+01   0.135E-02 -.297E-03 -.297E-03
   0.270E+02 -.541E+02 0.455E+02   -.354E+02 0.655E+02 -.603E+02   0.671E+01 -.103E+02 0.169E+02   0.350E-03 0.110E-02 -.253E-03
   0.265E+02 -.590E+02 0.215E+02   -.363E+02 0.703E+02 -.281E+02   0.108E+02 -.952E+01 0.425E+01   -.742E-03 0.826E-03 0.577E-03
   0.235E+02 -.685E+02 0.401E+02   -.295E+02 0.863E+02 -.533E+02   0.343E+01 -.185E+02 0.150E+02   0.781E-03 -.931E-04 -.163E-02
   0.234E+02 -.687E+02 0.246E+02   -.317E+02 0.849E+02 -.333E+02   0.776E+01 -.162E+02 0.807E+01   -.679E-03 -.206E-03 -.989E-04
   0.371E+02 -.737E+02 0.452E+02   -.495E+02 0.909E+02 -.590E+02   0.128E+02 -.173E+02 0.145E+02   0.377E-03 -.942E-03 0.947E-03
   0.348E+02 -.708E+02 0.237E+02   -.461E+02 0.879E+02 -.290E+02   0.131E+02 -.173E+02 0.253E+01   -.152E-02 0.140E-03 -.360E-03
   0.291E+02 -.647E+02 0.371E+02   -.397E+02 0.801E+02 -.487E+02   0.106E+02 -.152E+02 0.119E+02   0.480E-03 0.670E-03 -.149E-02
   0.300E+02 -.649E+02 0.279E+02   -.394E+02 0.803E+02 -.371E+02   0.930E+01 -.152E+02 0.844E+01   -.128E-02 0.240E-03 0.966E-03
   -.949E+01 -.932E+02 0.336E+02   0.236E+02 0.123E+03 -.519E+02   -.158E+02 -.316E+02 0.207E+02   -.495E-03 -.190E-02 0.889E-03
   0.402E+02 -.587E+02 -.404E+02   -.480E+02 0.756E+02 0.534E+02   0.762E+01 -.168E+02 -.136E+02   -.443E-04 0.229E-03 -.750E-03
   0.458E+02 -.517E+02 -.282E+02   -.548E+02 0.636E+02 0.366E+02   0.946E+01 -.938E+01 -.812E+01   -.404E-03 0.822E-03 -.349E-03
   0.430E+02 -.556E+02 -.358E+02   -.519E+02 0.713E+02 0.471E+02   0.906E+01 -.151E+02 -.116E+02   -.517E-03 -.163E-03 0.194E-02
   0.407E+02 -.577E+02 -.291E+02   -.489E+02 0.742E+02 0.383E+02   0.774E+01 -.166E+02 -.840E+01   -.237E-03 0.759E-03 -.160E-03
   0.424E+02 -.578E+02 -.347E+02   -.504E+02 0.738E+02 0.464E+02   0.784E+01 -.155E+02 -.122E+02   -.138E-03 0.489E-03 0.583E-03
   0.501E+02 -.591E+02 -.276E+02   -.607E+02 0.756E+02 0.369E+02   0.109E+02 -.165E+02 -.886E+01   0.189E-02 -.972E-05 0.395E-03
   0.442E+02 -.582E+02 -.358E+02   -.533E+02 0.742E+02 0.470E+02   0.930E+01 -.156E+02 -.114E+02   -.104E-02 0.747E-03 0.127E-02
   0.265E+02 0.590E+02 -.215E+02   -.363E+02 -.703E+02 0.281E+02   0.108E+02 0.952E+01 -.425E+01   -.742E-03 -.826E-03 -.577E-03
   0.270E+02 0.541E+02 -.455E+02   -.354E+02 -.655E+02 0.603E+02   0.671E+01 0.103E+02 -.169E+02   0.350E-03 -.110E-02 0.253E-03
   0.348E+02 0.708E+02 -.237E+02   -.461E+02 -.879E+02 0.290E+02   0.131E+02 0.173E+02 -.253E+01   -.152E-02 -.140E-03 0.360E-03
   0.371E+02 0.737E+02 -.452E+02   -.495E+02 -.909E+02 0.590E+02   0.128E+02 0.173E+02 -.145E+02   0.377E-03 0.942E-03 -.947E-03
   0.234E+02 0.687E+02 -.246E+02   -.317E+02 -.849E+02 0.333E+02   0.776E+01 0.162E+02 -.807E+01   -.679E-03 0.206E-03 0.989E-04
   0.235E+02 0.685E+02 -.401E+02   -.295E+02 -.863E+02 0.533E+02   0.343E+01 0.185E+02 -.150E+02   0.781E-03 0.931E-04 0.163E-02
   0.300E+02 0.649E+02 -.279E+02   -.394E+02 -.803E+02 0.371E+02   0.930E+01 0.152E+02 -.844E+01   -.128E-02 -.240E-03 -.966E-03
   0.291E+02 0.647E+02 -.371E+02   -.397E+02 -.801E+02 0.487E+02   0.106E+02 0.152E+02 -.119E+02   0.480E-03 -.670E-03 0.149E-02
   -.697E+02 -.105E+02 -.280E+02   0.872E+02 0.993E+01 0.376E+02   -.171E+02 0.616E+00 -.911E+01   0.638E-03 0.637E-03 0.532E-03
   -.194E+02 -.725E+02 -.702E+02   0.141E+02 0.996E+02 0.953E+02   0.672E+01 -.298E+02 -.272E+02   -.313E-03 -.226E-02 -.906E-03
   -.708E+02 -.775E+01 -.310E+02   0.882E+02 0.691E+01 0.407E+02   -.169E+02 0.108E+01 -.911E+01   0.769E-03 -.601E-03 -.102E-03
   -.673E+02 -.576E+01 -.338E+02   0.844E+02 0.468E+01 0.456E+02   -.164E+02 0.963E+00 -.123E+02   0.101E-02 0.117E-02 0.271E-03
   -.718E+02 -.595E+01 -.303E+02   0.905E+02 0.484E+01 0.400E+02   -.188E+02 0.149E+01 -.904E+01   0.100E-02 -.162E-02 -.231E-03
   -.781E+02 0.508E+01 -.368E+02   0.978E+02 -.103E+02 0.479E+02   -.203E+02 0.733E+01 -.104E+02   0.741E-04 0.807E-03 -.345E-03
   -.723E+02 -.888E+01 -.309E+02   0.910E+02 0.812E+01 0.405E+02   -.187E+02 0.996E+00 -.903E+01   0.135E-02 0.297E-03 0.297E-03
   -.784E+02 -.111E+02 -.349E+02   0.989E+02 0.110E+02 0.461E+02   -.207E+02 -.919E-01 -.114E+02   -.107E-02 -.102E-02 0.311E-03
 -----------------------------------------------------------------------------------------------
   0.971E+01 -.178E-05 0.753E-05   0.426E-13 0.497E-12 -.711E-14   -.970E+01 0.665E-13 0.000E+00   0.761E-03 -.526E-12 0.196E-11
 
 
 POSITION                                       TOTAL-FORCE (eV/Angst)
 -----------------------------------------------------------------------------------
      2.61028     -0.00000      5.43130        -0.382665      0.000000     -0.000000
      5.06777      4.25649      0.00000         0.028146      0.047461      1.652911
      5.06777      4.25649      5.43130        -0.020296      0.091262     -0.038118
      5.06777     -4.25649      0.00000         0.028146     -0.047461     -1.652911
      5.06777     -4.25649      5.43130        -0.020296     -0.091262      0.038118
      7.52525      0.00000      0.00000        -0.004456      0.000000     -0.000000
      7.52525      0.00000      5.43130         0.038826      0.000000     -0.000000
      1.15234      1.99591      3.62087         1.270026     -0.491748     -2.090473
      1.15234      1.99591      9.05217         2.808945     -6.150317      3.803642
      3.60982      6.25240      3.62087         0.873640      0.132745     -1.697122
      3.60982      6.25240      9.05217         0.624970      0.147784      0.839821
      3.60982     -2.26057      3.62087        -1.261958      0.715668     -1.916134
      3.60982     -2.26057      9.05217        -0.617981      5.075459      6.049643
      6.06731      1.99591      3.62087        -1.549311     -0.007600     -1.287434
      6.06731      1.99591      9.05217        -1.184304     -0.338811      1.165179
      1.15234     -1.99591      1.81043         2.808945      6.150317     -3.803642
      1.15234     -1.99591      7.24173         1.270026      0.491748      2.090473
      3.60982      2.26057      1.81043        -0.617981     -5.075459     -6.049643
      3.60982      2.26057      7.24173        -1.261958     -0.715668      1.916134
      3.60982     -6.25240      1.81043         0.624970     -0.147784     -0.839821
      3.60982     -6.25240      7.24173         0.873640     -0.132745      1.697122
      6.06731     -1.99591      1.81043        -1.184304      0.338811     -1.165179
      6.06731     -1.99591      7.24173        -1.549311      0.007600      1.287434
      1.67752      0.61366      4.26298        -0.176889     -0.148204      0.611395
      1.67752      0.61366      9.69428        -1.710239      2.118139     -2.382833
      4.13500      4.87015      4.26298        -0.170796     -0.451115      0.405000
      4.13500      4.87015      9.69428        -0.477629      0.111719     -0.795454
      4.13500     -3.64282      4.26298         0.181900     -0.580319      0.339000
      4.13500     -3.64282      9.69428         0.501810     -2.576030     -0.315040
      6.59249      0.61366      4.26298         0.186437     -0.424722      0.232082
      6.59249      0.61366      9.69428         0.324841     -0.067540     -0.413380
      3.54476      1.14594      0.64211         1.355376      2.637050      2.107561
      3.54476      1.14594      6.07341         0.439887     -0.059129     -0.479243
      6.00224      5.40243      0.64211        -0.493102     -2.106888     -0.691655
      6.00224      5.40243      6.07341        -0.045001     -0.384424     -0.637510
      6.00224     -3.11054      0.64211         0.657236      0.114540      0.514052
      6.00224     -3.11054      6.07341         0.502088     -0.238136     -0.554327
      8.45972      1.14594      0.64211        -0.190007      0.199758      0.173040
      8.45972      1.14594      6.07341         0.005071     -0.240339     -0.574101
      2.15017      2.49688      2.45255        -1.686803      1.194467      2.031639
      2.15017      2.49688      7.88385         1.034107      1.852008     -2.352831
      4.60765      6.75336      2.45255        -2.558985     -0.764307      1.779834
      4.60765      6.75336      7.88385        -0.559732      0.034462     -0.586809
      4.60765     -1.75961      2.45255         0.415894     -0.171279      0.644517
      4.60765     -1.75961      7.88385         1.741095     -0.172225     -2.794668
      7.06514      2.49688      2.45255         0.043858      0.194006      0.261084
      7.06514      2.49688      7.88385        -0.118147      0.264482     -0.678867
      1.67752     -0.61366      1.16832        -1.710239     -2.118139      2.382833
      1.67752     -0.61366      6.59962        -0.176889      0.148204     -0.611395
      4.13500      3.64282      1.16832         0.501810      2.576030      0.315040
      4.13500      3.64282      6.59962         0.181900      0.580319     -0.339000
      4.13500     -4.87015      1.16832        -0.477629     -0.111719      0.795454
      4.13500     -4.87015      6.59962        -0.170796      0.451115     -0.405000
      6.59249     -0.61366      1.16832         0.324841      0.067540      0.413380
      6.59249     -0.61366      6.59962         0.186437      0.424722     -0.232082
      2.15017     -2.49688      2.97876         1.034107     -1.852008      2.352831
      2.15017     -2.49688      8.41006        -1.686803     -1.194467     -2.031639
      4.60765      1.75961      2.97876         1.741095      0.172225      2.794668
      4.60765      1.75961      8.41006         0.415894      0.171279     -0.644517
      4.60765     -6.75336      2.97876        -0.559732     -0.034462      0.586809
      4.60765     -6.75336      8.41006        -2.558985      0.764307     -1.779834
      7.06514     -2.49688      2.97876        -0.118147     -0.264482      0.678867
      7.06514     -2.49688      8.41006         0.043858     -0.194006     -0.261084
      3.54476     -1.14594      4.78919         0.439887      0.059129      0.479243
      3.54476     -1.14594     10.22049         1.355376     -2.637050     -2.107561
      6.00224      3.11054      4.78919         0.502088      0.238136      0.554327
      6.00224      3.11054     10.22049         0.657236     -0.114540     -0.514052
      6.00224     -5.40243      4.78919        -0.045001      0.384424      0.637510
      6.00224     -5.40243     10.22049        -0.493102      2.106888      0.691655
      8.45972     -1.14594      4.78919         0.005071      0.240339      0.574101
      8.45972     -1.14594     10.22049        -0.190007     -0.199758     -0.173040
 -----------------------------------------------------------------------------------
    total drift:                                0.011968     -0.000002      0.000008


--------------------------------------------------------------------------------------------------------



  FREE ENERGIE OF THE ION-ELECTRON SYSTEM (eV)
  ---------------------------------------------------
  free  energy   TOTEN  =      -531.11152863 eV

  energy  without entropy=     -531.11152618  energy(sigma->0) =     -531.11152741
 


--------------------------------------------------------------------------------------------------------


    POTLOK:  cpu time      0.0148: real time      0.0149


--------------------------------------------------------------------------------------------------------


 stress matrix after NEB project (eV)
     71.12421      0.00000      0.00000
      0.00000     68.07596     -1.18340
      0.00000     -1.18340     66.65739
  FORCES: max atom, RMS     7.920881    2.572857
  FORCE total and by dimension   21.679274    6.150317
  Stress total and by dimension  118.907517   71.124210
 writing wavefunctions
     LOOP+:  cpu time    106.4607: real time    107.0813
    4ORBIT:  cpu time      0.0000: real time      0.0000



 total charge

# of ion       s       p       d       tot
------------------------------------------
    1        0.651   1.015   0.000   1.667
    2        0.653   1.018   0.000   1.671
    3        0.653   1.018   0.000   1.670
    4        0.653   1.018   0.000   1.671
    5        0.653   1.018   0.000   1.670
    6        0.649   1.012   0.000   1.661
    7        0.653   1.018   0.000   1.671
    8        0.652   1.015   0.000   1.667
    9        0.682   1.043   0.000   1.725
   10        0.658   1.021   0.000   1.680
   11        0.651   1.015   0.000   1.666
   12        0.651   1.015   0.000   1.665
   13        0.682   1.043   0.000   1.725
   14        0.655   1.020   0.000   1.674
   15        0.650   1.013   0.000   1.663
   16        0.682   1.043   0.000   1.725
   17        0.652   1.015   0.000   1.667
   18        0.682   1.043   0.000   1.725
   19        0.651   1.015   0.000   1.665
   20        0.651   1.015   0.000   1.666
   21        0.658   1.021   0.000   1.680
   22        0.650   1.013   0.000   1.663
   23        0.655   1.020   0.000   1.674
   24        1.552   3.706   0.000   5.258
   25        1.586   3.422   0.000   5.008
   26        1.552   3.712   0.000   5.264
   27        1.549   3.716   0.000   5.265
   28        1.552   3.713   0.000   5.265
   29        1.552   3.715   0.000   5.268
   30        1.552   3.712   0.000   5.264
   31        1.550   3.709   0.000   5.260
   32        1.586   3.420   0.000   5.006
   33        1.549   3.718   0.000   5.267
   34        1.557   3.698   0.000   5.255
   35        1.552   3.713   0.000   5.265
   36        1.550   3.713   0.000   5.263
   37        1.550   3.717   0.000   5.267
   38        1.552   3.704   0.000   5.256
   39        1.551   3.714   0.000   5.265
   40        1.554   3.703   0.000   5.257
   41        1.551   3.716   0.000   5.267
   42        1.562   3.693   0.000   5.255
   43        1.549   3.715   0.000   5.265
   44        1.554   3.694   0.000   5.248
   45        1.558   3.699   0.000   5.257
   46        1.552   3.710   0.000   5.262
   47        1.551   3.716   0.000   5.267
   48        1.586   3.422   0.000   5.008
   49        1.552   3.706   0.000   5.258
   50        1.552   3.715   0.000   5.268
   51        1.552   3.713   0.000   5.265
   52        1.549   3.716   0.000   5.265
   53        1.552   3.712   0.000   5.264
   54        1.550   3.709   0.000   5.260
   55        1.552   3.712   0.000   5.264
   56        1.551   3.716   0.000   5.267
   57        1.554   3.703   0.000   5.257
   58        1.558   3.699   0.000   5.257
   59        1.554   3.694   0.000   5.248
   60        1.549   3.715   0.000   5.265
   61        1.562   3.693   0.000   5.255
   62        1.551   3.716   0.000   5.267
   63        1.552   3.710   0.000   5.262
   64        1.549   3.718   0.000   5.267
   65        1.586   3.420   0.000   5.006
   66        1.550   3.717   0.000   5.267
   67        1.550   3.713   0.000   5.263
   68        1.552   3.713   0.000   5.265
   69        1.557   3.698   0.000   5.255
   70        1.551   3.714   0.000   5.265
   71        1.552   3.704   0.000   5.256
--------------------------------------------------
tot         89.774 200.385   0.000 290.159
 

 total amount of memory used by VASP MPI-rank0   100515. kBytes
=======================================================================

   base      :      30000. kBytes
   nonl-proj :      50996. kBytes
   fftplans  :       1721. kBytes
   grid      :       9701. kBytes
   one-center:        218. kBytes
   wavefun   :       7879. kBytes
 
  
  
 General timing and accounting informations for this job:
 ========================================================
  
                  Total CPU time used (sec):      117.484
                            User time (sec):      114.336
                          System time (sec):        3.148
                         Elapsed time (sec):      119.459
  
                   Maximum memory used (kb):      395300.
                   Average memory used (kb):          N/A
  
                          Minor page faults:       114821
                          Major page faults:          253
                 Voluntary context switches:         4606
