 vasp.5.4.4.18Apr17-6-g9f103f2a35 (build Jun 19 2019 10:34:07) complex          
  
 executed on               LB-5.4 date 2023.05.15  18:43:17
 running on   96 total cores
 distrk:  each k-point on   24 cores,    4 groups
 distr:  one band on NCORES_PER_BAND=   1 cores,   24 groups


--------------------------------------------------------------------------------------------------------


 INCAR:
 POTCAR:    PAW_PBE Si 05Jan2001                  

 ----------------------------------------------------------------------------- 
|                                                                             |
|           W    W    AA    RRRRR   N    N  II  N    N   GGGG   !!!           |
|           W    W   A  A   R    R  NN   N  II  NN   N  G    G  !!!           |
|           W    W  A    A  R    R  N N  N  II  N N  N  G       !!!           |
|           W WW W  AAAAAA  RRRRR   N  N N  II  N  N N  G  GGG   !            |
|           WW  WW  A    A  R   R   N   NN  II  N   NN  G    G                |
|           W    W  A    A  R    R  N    N  II  N    N   GGGG   !!!           |
|                                                                             |
|      For optimal performance we recommend to set                            |
|        NCORE= 4 - approx SQRT( number of cores)                             |
|      NCORE specifies how many cores store one orbital (NPAR=cpu/NCORE).     |
|      This setting can  greatly improve the performance of VASP for DFT.     |
|      The default,   NCORE=1            might be grossly inefficient         |
|      on modern multi-core architectures or massively parallel machines.     |
|      Do your own testing !!!!                                               |
|      Unfortunately you need to use the default for GW and RPA calculations. |
|      (for HF NCORE is supported but not extensively tested yet)             |
|                                                                             |
 ----------------------------------------------------------------------------- 


 ----------------------------------------------------------------------------- 
|                                                                             |
|           W    W    AA    RRRRR   N    N  II  N    N   GGGG   !!!           |
|           W    W   A  A   R    R  NN   N  II  NN   N  G    G  !!!           |
|           W    W  A    A  R    R  N N  N  II  N N  N  G       !!!           |
|           W WW W  AAAAAA  RRRRR   N  N N  II  N  N N  G  GGG   !            |
|           WW  WW  A    A  R   R   N   NN  II  N   NN  G    G                |
|           W    W  A    A  R    R  N    N  II  N    N   GGGG   !!!           |
|                                                                             |
|      You have enabled k-point parallelism (KPAR>1).                         |
|      This developmental code was originally  written by Paul Kent at ORNL,  |
|      and carefully double checked in Vienna.                                |
|      GW as well as linear response parallelism added by Martijn Marsman     |
|      and Georg Kresse.                                                      |
|      Carefully verify results versus KPAR=1.                                |
|      Report problems to Paul Kent and Vienna.                               |
|                                                                             |
 ----------------------------------------------------------------------------- 

 POTCAR:    PAW_PBE Si 05Jan2001                  
   VRHFIN =Si: s2p2                                                             
   LEXCH  = PE                                                                  
   EATOM  =   103.0669 eV,    7.5752 Ry                                         
                                                                                
   TITEL  = PAW_PBE Si 05Jan2001                                                
   LULTRA =        F    use ultrasoft PP ?                                      
   IUNSCR =        1    unscreen: 0-lin 1-nonlin 2-no                           
   RPACOR =    1.500    partial core radius                                     
   POMASS =   28.085; ZVAL   =    4.000    mass and valenz                      
   RCORE  =    1.900    outmost cutoff radius                                   
   RWIGS  =    2.480; RWIGS  =    1.312    wigner-seitz radius (au A)           
   ENMAX  =  245.345; ENMIN  =  184.009 eV                                      
   ICORE  =        2    local potential                                         
   LCOR   =        T    correct aug charges                                     
   LPAW   =        T    paw PP                                                  
   EAUG   =  322.069                                                            
   DEXC   =    0.000                                                            
   RMAX   =    1.950    core radius for proj-oper                               
   RAUG   =    1.300    factor for augmentation sphere                          
   RDEP   =    1.993    radius for radial grids                                 
   RDEPT  =    1.837    core radius for aug-charge                              
                                                                                
   Atomic configuration                                                         
    6 entries                                                                   
     n  l   j            E        occ.                                          
     1  0  0.50     -1785.8828   2.0000                                         
     2  0  0.50      -139.4969   2.0000                                         
     2  1  1.50       -95.5546   6.0000                                         
     3  0  0.50       -10.8127   2.0000                                         
     3  1  0.50        -4.0811   2.0000                                         
     3  2  1.50        -4.0817   0.0000                                         
   Description                                                                  
     l       E           TYP  RCUT    TYP  RCUT                                 
     0    -10.8127223     23  1.900                                             
     0     -7.6451159     23  1.900                                             
     1     -4.0811372     23  1.900                                             
     1      2.4879257     23  1.900                                             
     2     -4.0817478      7  1.900                                             
  local pseudopotential read in
  partial core-charges read in
  partial kinetic energy density read in
  atomic valenz-charges read in
  non local Contribution for L=           0  read in
    real space projection operators read in
  non local Contribution for L=           0  read in
    real space projection operators read in
  non local Contribution for L=           1  read in
    real space projection operators read in
  non local Contribution for L=           1  read in
    real space projection operators read in
    PAW grid and wavefunctions read in
 
   number of l-projection  operators is LMAX  =           4
   number of lm-projection operators is LMMAX =           8
 

 ----------------------------------------------------------------------------- 
|                                                                             |
|  ADVICE TO THIS USER RUNNING 'VASP/VAMP'   (HEAR YOUR MASTER'S VOICE ...):  |
|                                                                             |
|      You have a (more or less) 'large supercell' and for larger cells       |
|      it might be more efficient to use real space projection opertators     |
|      So try LREAL= Auto  in the INCAR   file.                               |
|      Mind:          For very  accurate calculation you might also keep the  |
|      reciprocal projection scheme          (i.e. LREAL=.FALSE.)             |
|                                                                             |
 ----------------------------------------------------------------------------- 

  PAW_PBE Si 05Jan2001                  :
 energy of atom  1       EATOM= -103.0669
 kinetic energy error for atom=    0.0004 (will be added to EATOM!!)
 
 
 POSCAR: Si55                                    
  positions in direct lattice
  velocities in cartesian coordinates
 exchange correlation table for  LEXCH =        8
   RHO(1)=    0.500       N(1)  =     2000
   RHO(2)=  100.500       N(2)  =     4000
 


--------------------------------------------------------------------------------------------------------


 ion  position               nearest neighbor table
   1  0.292  0.292  0.292-  32 2.35  40 2.35  41 2.35  38 2.35
   2  0.292  0.292  0.625-  33 2.35  41 2.35  42 2.35  39 2.35
   3  0.292  0.292  0.958-  31 2.35  40 2.35  42 2.35  37 2.35
   4  0.292  0.625  0.292-  35 2.35  43 2.35  44 2.35  41 2.35
   5  0.292  0.625  0.625-  36 2.35  44 2.35  45 2.35  42 2.35
   6  0.292  0.625  0.958-  34 2.35  43 2.35  45 2.35  40 2.35
   7  0.292  0.958  0.292-  29 2.35  37 2.35  38 2.35  44 2.35
   8  0.292  0.958  0.625-  30 2.35  38 2.35  39 2.35  45 2.35
   9  0.292  0.958  0.958-  28 2.35  37 2.35  39 2.35  43 2.35
  10  0.625  0.292  0.292-  41 2.35  49 2.35  50 2.35  47 2.35
  11  0.625  0.292  0.625-  55 2.25  42 2.35  50 2.35  51 2.35  48 2.35
  12  0.625  0.292  0.958-  40 2.35  49 2.35  51 2.35  46 2.35
  13  0.625  0.625  0.292-  55 2.25  44 2.35  52 2.35  53 2.35  50 2.35
  14  0.625  0.625  0.625-  55 2.25  45 2.35  53 2.35  54 2.35  51 2.35
  15  0.625  0.625  0.958-  43 2.35  52 2.35  54 2.35  49 2.35
  16  0.625  0.958  0.292-  38 2.35  46 2.35  47 2.35  53 2.35
  17  0.625  0.958  0.625-  39 2.35  47 2.35  48 2.35  54 2.35
  18  0.625  0.958  0.958-  37 2.35  46 2.35  48 2.35  52 2.35
  19  0.958  0.292  0.292-  50 2.35  32 2.35  31 2.35  29 2.35
  20  0.958  0.292  0.625-  51 2.35  33 2.35  32 2.35  30 2.35
  21  0.958  0.292  0.958-  49 2.35  31 2.35  33 2.35  28 2.35
  22  0.958  0.625  0.292-  53 2.35  35 2.35  34 2.35  32 2.35
  23  0.958  0.625  0.625-  54 2.35  36 2.35  35 2.35  33 2.35
  24  0.958  0.625  0.958-  52 2.35  34 2.35  36 2.35  31 2.35
  25  0.958  0.958  0.292-  47 2.35  29 2.35  28 2.35  35 2.35
  26  0.958  0.958  0.625-  48 2.35  30 2.35  29 2.35  36 2.35
  27  0.958  0.958  0.958-  46 2.35  28 2.35  30 2.35  34 2.35
  28  0.042  0.042  0.042-   9 2.35  27 2.35  25 2.35  21 2.35
  29  0.042  0.042  0.375-   7 2.35  25 2.35  26 2.35  19 2.35
  30  0.042  0.042  0.708-   8 2.35  26 2.35  27 2.35  20 2.35
  31  0.042  0.375  0.042-   3 2.35  21 2.35  19 2.35  24 2.35
  32  0.042  0.375  0.375-   1 2.35  19 2.35  20 2.35  22 2.35
  33  0.042  0.375  0.708-   2 2.35  20 2.35  21 2.35  23 2.35
  34  0.042  0.708  0.042-   6 2.35  24 2.35  22 2.35  27 2.35
  35  0.042  0.708  0.375-   4 2.35  22 2.35  23 2.35  25 2.35
  36  0.042  0.708  0.708-   5 2.35  23 2.35  24 2.35  26 2.35
  37  0.375  0.042  0.042-  18 2.35   9 2.35   7 2.35   3 2.35
  38  0.375  0.042  0.375-  16 2.35   8 2.35   7 2.35   1 2.35
  39  0.375  0.042  0.708-  17 2.35   9 2.35   8 2.35   2 2.35
  40  0.375  0.375  0.042-  12 2.35   3 2.35   1 2.35   6 2.35
  41  0.375  0.375  0.375-  10 2.35   2 2.35   1 2.35   4 2.35
  42  0.375  0.375  0.708-  11 2.35   3 2.35   2 2.35   5 2.35
  43  0.375  0.708  0.042-  15 2.35   6 2.35   4 2.35   9 2.35
  44  0.375  0.708  0.375-  13 2.35   5 2.35   4 2.35   7 2.35
  45  0.375  0.708  0.708-  14 2.35   6 2.35   5 2.35   8 2.35
  46  0.708  0.042  0.042-  27 2.35  18 2.35  16 2.35  12 2.35
  47  0.708  0.042  0.375-  25 2.35  17 2.35  16 2.35  10 2.35
  48  0.708  0.042  0.708-  26 2.35  18 2.35  17 2.35  11 2.35
  49  0.708  0.375  0.042-  21 2.35  12 2.35  10 2.35  15 2.35
  50  0.708  0.375  0.375-  55 2.25  19 2.35  11 2.35  10 2.35  13 2.35
  51  0.708  0.375  0.708-  55 2.25  20 2.35  12 2.35  11 2.35  14 2.35
  52  0.708  0.708  0.042-  24 2.35  15 2.35  13 2.35  18 2.35
  53  0.708  0.708  0.375-  55 2.25  22 2.35  14 2.35  13 2.35  16 2.35
  54  0.708  0.708  0.708-  23 2.35  15 2.35  14 2.35  17 2.35
  55  0.667  0.500  0.500-  50 2.25  11 2.25  13 2.25  53 2.25  14 2.25  51 2.25
 
  LATTYP: Found a face centered cubic cell.
 ALAT       =    16.2915000202
  
  Lattice vectors:
  
 A1 = (   9.9764655300,   0.0000000000,   5.7599150700)
 A2 = (   3.3254885100,   9.4059019200,   5.7599150700)
 A3 = (   0.0000000000,   0.0000000000,  11.5198301400)


Analysis of symmetry for initial positions (statically):
=====================================================================
 Subroutine PRICEL returns:
 Original cell was already a primitive cell.
 

 Routine SETGRP: Setting up the symmetry group for a 
 face centered cubic supercell.


 Subroutine GETGRP returns: Found 12 space group operations
 (whereof  2 operations were pure point group operations)
 out of a pool of 48 trial point group operations.


The static configuration has the point symmetry C_1h.
 The point group associated with its full space group is D_3d.


Analysis of symmetry for dynamics (positions and initial velocities):
=====================================================================
 Subroutine PRICEL returns:
 Original cell was already a primitive cell.
 

 Routine SETGRP: Setting up the symmetry group for a 
 face centered cubic supercell.


 Subroutine GETGRP returns: Found 12 space group operations
 (whereof  2 operations were pure point group operations)
 out of a pool of 48 trial point group operations.


The dynamic configuration has the point symmetry C_1h.
 The point group associated with its full space group is D_3d.


 Subroutine INISYM returns: Found 12 space group operations
 (whereof  2 operations are pure point group operations),
 and found     1 'primitive' translations

 
 
 KPOINTS: Automatic kpoint scheme                 

Automatic generation of k-mesh.
Space group operators:
 irot       det(A)        alpha          n_x          n_y          n_z        tau_x        tau_y        tau_z
    1     1.000000     0.000000     1.000000     0.000000     0.000000     0.000000     0.000000     0.000000
    2    -1.000000   180.000000     0.288675     0.816497    -0.500000     0.000000     0.000000     0.000000
    3    -1.000000     0.000000     1.000000     0.000000     0.000000     0.333333     0.000000     0.000000
    4     1.000000   120.000000     0.942809    -0.333333     0.000000     0.000000     0.000000     0.166667
    5    -1.000000   120.000000     0.942809    -0.333333     0.000000     0.333333     0.000000     0.833333
    6     1.000000   180.000000     0.288675     0.816497     0.500000     0.333333     0.833333    -0.000000
    7    -1.000000   180.000000     0.288675     0.816497     0.500000    -0.000000     0.166667     0.000000
    8     1.000000   180.000000     0.000000    -0.000000     1.000000     0.333333     0.000000     0.833333
    9    -1.000000   180.000000     0.000000    -0.000000     1.000000     0.000000     0.000000     0.166667
   10     1.000000   120.000000    -0.942809     0.333333     0.000000     0.000000     0.166667    -0.000000
   11    -1.000000   120.000000    -0.942809     0.333333     0.000000     0.333333     0.833333    -0.000000
   12     1.000000   180.000000     0.288675     0.816497    -0.500000     0.333333     0.000000     0.000000
 
 Subroutine IBZKPT returns following result:
 ===========================================
 
 Found     13 irreducible k-points:
 
 Following reciprocal coordinates:
            Coordinates               Weight
  0.000000  0.000000  0.000000      1.000000
  0.250000  0.000000  0.000000      2.000000
  0.500000  0.000000  0.000000      1.000000
  0.000000  0.250000  0.000000      6.000000
  0.250000  0.250000  0.000000      6.000000
  0.500000  0.250000  0.000000      6.000000
 -0.250000  0.250000  0.000000      6.000000
  0.000000  0.500000  0.000000      3.000000
  0.250000  0.500000  0.000000      6.000000
  0.500000  0.500000  0.000000      3.000000
  0.000000  0.500000  0.250000     12.000000
  0.250000  0.500000  0.250000      6.000000
 -0.250000  0.500000  0.250000      6.000000
 
 Following cartesian coordinates:
            Coordinates               Weight
  0.000000  0.000000  0.000000      1.000000
  0.025059 -0.008860  0.000000      2.000000
  0.050118 -0.017719  0.000000      1.000000
  0.000000  0.026579  0.000000      6.000000
  0.025059  0.017719  0.000000      6.000000
  0.050118  0.008860  0.000000      6.000000
 -0.025059  0.035439  0.000000      6.000000
  0.000000  0.053158  0.000000      3.000000
  0.025059  0.044298  0.000000      6.000000
  0.050118  0.035439  0.000000      3.000000
 -0.012529  0.044298  0.021702     12.000000
  0.012529  0.035439  0.021702      6.000000
 -0.037588  0.053158  0.021702      6.000000
 


--------------------------------------------------------------------------------------------------------




 Dimension of arrays:
   k-points           NKPTS =     13   k-points in BZ     NKDIM =     13   number of bands    NBANDS=    144
   number of dos      NEDOS =    301   number of ions     NIONS =     55
   non local maximal  LDIM  =      4   non local SUM 2l+1 LMDIM =      8
   total plane-waves  NPLWV = 343000
   max r-space proj   IRMAX =      1   max aug-charges    IRDMAX=  10807
   dimension x,y,z NGX =    70 NGY =   70 NGZ =   70
   dimension x,y,z NGXF=   140 NGYF=  140 NGZF=  140
   support grid    NGXF=   140 NGYF=  140 NGZF=  140
   ions per type =              55
   NGX,Y,Z   is equivalent  to a cutoff of  10.10, 10.10, 10.10 a.u.
   NGXF,Y,Z  is equivalent  to a cutoff of  20.20, 20.20, 20.20 a.u.

 SYSTEM =  Si                                      
 POSCAR =  Si55                                    

 Startparameter for this run:
   NWRITE =      2    write-flag & timer
   PREC   = normal    normal or accurate (medium, high low for compatibility)
   ISTART =      1    job   : 0-new  1-cont  2-samecut
   ICHARG =      0    charge: 1-file 2-atom 10-const
   ISPIN  =      1    spin polarized calculation?
   LNONCOLLINEAR =      F non collinear calculations
   LSORBIT =      F    spin-orbit coupling
   INIWAV =      1    electr: 0-lowe 1-rand  2-diag
   LASPH  =      F    aspherical Exc in radial PAW
   METAGGA=      F    non-selfconsistent MetaGGA calc.

 Electronic Relaxation 1
   ENCUT  =  550.0 eV  40.42 Ry    6.36 a.u.  22.03 22.03 22.03*2*pi/ulx,y,z
   ENINI  =  550.0     initial cutoff
   ENAUG  =  322.1 eV  augmentation charge cutoff
   NELM   =    200;   NELMIN=  2; NELMDL=  0     # of ELM steps 
   EDIFF  = 0.1E-04   stopping-criterion for ELM
   LREAL  =      F    real-space projection
   NLSPLINE    = F    spline interpolate recip. space projectors
   LCOMPAT=      F    compatible to vasp.4.4
   GGA_COMPAT  = T    GGA compatible to vasp.4.4-vasp.4.6
   LMAXPAW     = -100 max onsite density
   LMAXMIX     =    2 max onsite mixed and CHGCAR
   VOSKOWN=      0    Vosko Wilk Nusair interpolation
   ROPT   =    0.00000
 Ionic relaxation
   EDIFFG = -.5E-01   stopping-criterion for IOM
   NSW    =    100    number of steps for IOM
   NBLOCK =      1;   KBLOCK =    100    inner block; outer block 
   IBRION =      2    ionic relax: 0-MD 1-quasi-New 2-CG
   NFREE  =      1    steps in history (QN), initial steepest desc. (CG)
   ISIF   =      2    stress and relaxation
   IWAVPR =     11    prediction:  0-non 1-charg 2-wave 3-comb
   ISYM   =      2    0-nonsym 1-usesym 2-fastsym
   LCORR  =      T    Harris-Foulkes like correction to forces

   POTIM  = 0.5000    time-step for ionic-motion
   TEIN   =    0.0    initial temperature
   TEBEG  =    0.0;   TEEND  =   0.0 temperature during run
   SMASS  =  -3.00    Nose mass-parameter (am)
   estimated Nose-frequenzy (Omega)   =  0.10E-29 period in steps =****** mass=  -0.303E-26a.u.
   SCALEE = 1.0000    scale energy and forces
   NPACO  =    256;   APACO  = 16.0  distance and # of slots for P.C.
   PSTRESS=    0.0 pullay stress

  Mass of Ions in am
   POMASS =  28.09
  Ionic Valenz
   ZVAL   =   4.00
  Atomic Wigner-Seitz radii
   RWIGS  =  -1.00
  virtual crystal weights 
   VCA    =   1.00
   NELECT =     219.0000    total number of electrons
   NUPDOWN=      -1.0000    fix difference up-down

 DOS related values:
   EMIN   =  10.00;   EMAX   =-10.00  energy-range for DOS
   EFERMI =   0.00
   ISMEAR =     0;   SIGMA  =   0.05  broadening in eV -4-tet -1-fermi 0-gaus

 Electronic relaxation 2 (details)
   IALGO  =     38    algorithm
   LDIAG  =      T    sub-space diagonalisation (order eigenvalues)
   LSUBROT=      F    optimize rotation matrix (better conditioning)
   TURBO    =      0    0=normal 1=particle mesh
   IRESTART =      0    0=no restart 2=restart with 2 vectors
   NREBOOT  =      0    no. of reboots
   NMIN     =      0    reboot dimension
   EREF     =   0.00    reference energy to select bands
   IMIX   =      4    mixing-type and parameters
     AMIX     =   0.20;   BMIX     =  1.00
     AMIX_MAG =   0.80;   BMIX_MAG =  1.00
     AMIN     =   0.10
     WC   =   100.;   INIMIX=   1;  MIXPRE=   1;  MAXMIX= -45

 Intra band minimization:
   WEIMIN = 0.0010     energy-eigenvalue tresh-hold
   EBREAK =  0.17E-07  absolut break condition
   DEPER  =   0.30     relativ break condition  

   TIME   =   0.40     timestep for ELM

  volume/ion in A,a.u.               =      19.65       132.63
  Fermi-wavevector in a.u.,A,eV,Ry     =   0.961498  1.816968 12.578297  0.924479
  Thomas-Fermi vector in A             =   2.090875
 
 Write flags
   LWAVE        =      T    write WAVECAR
   LDOWNSAMPLE  =      F    k-point downsampling of WAVECAR
   LCHARG       =      T    write CHGCAR
   LVTOT        =      F    write LOCPOT, total local potential
   LVHAR        =      F    write LOCPOT, Hartree potential only
   LELF         =      F    write electronic localiz. function (ELF)
   LORBIT       =     10    0 simple, 1 ext, 2 COOP (PROOUT), +10 PAW based schemes


 Dipole corrections
   LMONO  =      F    monopole corrections only (constant potential shift)
   LDIPOL =      F    correct potential (dipole corrections)
   IDIPOL =      0    1-x, 2-y, 3-z, 4-all directions 
   EPSILON=  1.0000000 bulk dielectric constant

 Exchange correlation treatment:
   GGA     =    --    GGA type
   LEXCH   =     8    internal setting for exchange type
   VOSKOWN=      0    Vosko Wilk Nusair interpolation
   LHFCALC =     F    Hartree Fock is set to
   LHFONE  =     F    Hartree Fock one center treatment
   AEXX    =    0.0000 exact exchange contribution

 Linear response parameters
   LEPSILON=     F    determine dielectric tensor
   LRPA    =     F    only Hartree local field effects (RPA)
   LNABLA  =     F    use nabla operator in PAW spheres
   LVEL    =     F    velocity operator in full k-point grid
   LINTERFAST=   F  fast interpolation
   KINTER  =     0    interpolate to denser k-point grid
   CSHIFT  =0.1000    complex shift for real part using Kramers Kronig
   OMEGAMAX=  -1.0    maximum frequency
   DEG_THRESHOLD= 0.2000000E-02 threshold for treating states as degnerate
   RTIME   =   -0.100 relaxation time in fs
  (WPLASMAI=    0.000 imaginary part of plasma frequency in eV, 0.658/RTIME)
   DFIELD  = 0.0000000 0.0000000 0.0000000 field for delta impulse in time
 
 Orbital magnetization related:
   ORBITALMAG=     F  switch on orbital magnetization
   LCHIMAG   =     F  perturbation theory with respect to B field
   DQ        =  0.001000  dq finite difference perturbation B field
   LLRAUG    =     F  two centre corrections for induced B field



--------------------------------------------------------------------------------------------------------


 conjugate gradient relaxation of ions
 charge density and potential will be updated during run
 non-spin polarized calculation
 Variant of blocked Davidson
 Davidson routine will perform the subspace rotation
 perform sub-space diagonalisation
    after iterative eigenvector-optimisation
 modified Broyden-mixing scheme, WC =      100.0
 initial mixing is a Kerker type mixing with AMIX =  0.2000 and BMIX =      1.0000
 Hartree-type preconditioning will be used
 using additional bands           34
 reciprocal scheme for non local part
 use partial core corrections
 calculate Harris-corrections to forces 
   (improved forces if not selfconsistent)
 use gradient corrections 
 use of overlap-Matrix (Vanderbilt PP)
 Gauss-broadening in eV      SIGMA  =   0.05


--------------------------------------------------------------------------------------------------------


  energy-cutoff  :      550.00
  volume of cell :     1080.99
      direct lattice vectors                 reciprocal lattice vectors
     9.976465530  0.000000000  5.759915070     0.100235900 -0.035438742  0.000000000
     3.325488510  9.405901920  5.759915070     0.000000000  0.106316227  0.000000000
     0.000000000  0.000000000 11.519830140    -0.050117950 -0.035438742  0.086806836

  length of vectors
    11.519830124 11.519830136 11.519830140     0.106316227  0.106316227  0.106316227


 
 old parameters found on file WAVECAR:
  energy-cutoff  :      550.00
  volume of cell :     1080.99
      direct lattice vectors                 reciprocal lattice vectors
     9.976465530  0.000000000  5.759915070     0.100235900 -0.035438742  0.000000000
     3.325488510  9.405901920  5.759915070     0.000000000  0.106316227  0.000000000
     0.000000000  0.000000000 11.519830140    -0.050117950 -0.035438742  0.086806836

  length of vectors

 
 k-points in units of 2pi/SCALE and weight: Automatic kpoint scheme                 
   0.00000000  0.00000000  0.00000000       0.016
   0.02505897 -0.00885969  0.00000000       0.031
   0.05011795 -0.01771937  0.00000000       0.016
   0.00000000  0.02657906  0.00000000       0.094
   0.02505897  0.01771937  0.00000000       0.094
   0.05011795  0.00885969  0.00000000       0.094
  -0.02505897  0.03543874  0.00000000       0.094
   0.00000000  0.05315811  0.00000000       0.047
   0.02505897  0.04429843  0.00000000       0.094
   0.05011795  0.03543874  0.00000000       0.047
  -0.01252949  0.04429843  0.02170171       0.188
   0.01252949  0.03543874  0.02170171       0.094
  -0.03758846  0.05315811  0.02170171       0.094
 
 k-points in reciprocal lattice and weights: Automatic kpoint scheme                 
   0.00000000  0.00000000  0.00000000       0.016
   0.25000000  0.00000000  0.00000000       0.031
   0.50000000  0.00000000  0.00000000       0.016
   0.00000000  0.25000000  0.00000000       0.094
   0.25000000  0.25000000  0.00000000       0.094
   0.50000000  0.25000000  0.00000000       0.094
  -0.25000000  0.25000000  0.00000000       0.094
   0.00000000  0.50000000  0.00000000       0.047
   0.25000000  0.50000000  0.00000000       0.094
   0.50000000  0.50000000  0.00000000       0.047
   0.00000000  0.50000000  0.25000000       0.188
   0.25000000  0.50000000  0.25000000       0.094
  -0.25000000  0.50000000  0.25000000       0.094
 
 position of ions in fractional coordinates (direct lattice) 
   0.29166667  0.29166667  0.29166667
   0.29166667  0.29166667  0.62500000
   0.29166667  0.29166667  0.95833333
   0.29166667  0.62500000  0.29166667
   0.29166667  0.62500000  0.62500000
   0.29166667  0.62500000  0.95833333
   0.29166667  0.95833333  0.29166667
   0.29166667  0.95833333  0.62500000
   0.29166667  0.95833333  0.95833333
   0.62500000  0.29166667  0.29166667
   0.62500000  0.29166667  0.62500000
   0.62500000  0.29166667  0.95833333
   0.62500000  0.62500000  0.29166667
   0.62500000  0.62500000  0.62500000
   0.62500000  0.62500000  0.95833333
   0.62500000  0.95833333  0.29166667
   0.62500000  0.95833333  0.62500000
   0.62500000  0.95833333  0.95833333
   0.95833333  0.29166667  0.29166667
   0.95833333  0.29166667  0.62500000
   0.95833333  0.29166667  0.95833333
   0.95833333  0.62500000  0.29166667
   0.95833333  0.62500000  0.62500000
   0.95833333  0.62500000  0.95833333
   0.95833333  0.95833333  0.29166667
   0.95833333  0.95833333  0.62500000
   0.95833333  0.95833333  0.95833333
   0.04166667  0.04166667  0.04166667
   0.04166667  0.04166667  0.37500000
   0.04166667  0.04166667  0.70833333
   0.04166667  0.37500000  0.04166667
   0.04166667  0.37500000  0.37500000
   0.04166667  0.37500000  0.70833333
   0.04166667  0.70833333  0.04166667
   0.04166667  0.70833333  0.37500000
   0.04166667  0.70833333  0.70833333
   0.37500000  0.04166667  0.04166667
   0.37500000  0.04166667  0.37500000
   0.37500000  0.04166667  0.70833333
   0.37500000  0.37500000  0.04166667
   0.37500000  0.37500000  0.37500000
   0.37500000  0.37500000  0.70833333
   0.37500000  0.70833333  0.04166667
   0.37500000  0.70833333  0.37500000
   0.37500000  0.70833333  0.70833333
   0.70833333  0.04166667  0.04166667
   0.70833333  0.04166667  0.37500000
   0.70833333  0.04166667  0.70833333
   0.70833333  0.37500000  0.04166667
   0.70833333  0.37500000  0.37500000
   0.70833333  0.37500000  0.70833333
   0.70833333  0.70833333  0.04166667
   0.70833333  0.70833333  0.37500000
   0.70833333  0.70833333  0.70833333
   0.66666667  0.50000000  0.50000000
 
 position of ions in cartesian coordinates  (Angst):
   3.87973659  2.74338806  6.71990091
   3.87973659  2.74338806 10.55984429
   3.87973659  2.74338806 14.39978767
   4.98823276  5.87868870  8.63987260
   4.98823276  5.87868870 12.47981598
   4.98823276  5.87868870 16.31975937
   6.09672893  9.01398934 10.55984429
   6.09672893  9.01398934 14.39978767
   6.09672893  9.01398934 18.23973106
   7.20522510  2.74338806  8.63987260
   7.20522510  2.74338806 12.47981598
   7.20522510  2.74338806 16.31975937
   8.31372128  5.87868870 10.55984429
   8.31372128  5.87868870 14.39978767
   8.31372128  5.87868870 18.23973106
   9.42221745  9.01398934 12.47981598
   9.42221745  9.01398934 16.31975937
   9.42221745  9.01398934 20.15970275
  10.53071362  2.74338806 10.55984429
  10.53071362  2.74338806 14.39978767
  10.53071362  2.74338806 18.23973106
  11.63920979  5.87868870 12.47981598
  11.63920979  5.87868870 16.31975937
  11.63920979  5.87868870 20.15970275
  12.74770596  9.01398934 14.39978767
  12.74770596  9.01398934 18.23973106
  12.74770596  9.01398934 22.07967444
   0.55424808  0.39191258  0.95998584
   0.55424808  0.39191258  4.79992922
   0.55424808  0.39191258  8.63987260
   1.66274425  3.52721322  2.87995753
   1.66274425  3.52721322  6.71990091
   1.66274425  3.52721322 10.55984430
   2.77124042  6.66251386  4.79992922
   2.77124042  6.66251386  8.63987261
   2.77124042  6.66251386 12.47981599
   3.87973659  0.39191258  2.87995753
   3.87973659  0.39191258  6.71990091
   3.87973659  0.39191258 10.55984430
   4.98823277  3.52721322  4.79992922
   4.98823277  3.52721322  8.63987261
   4.98823277  3.52721322 12.47981599
   6.09672894  6.66251386  6.71990091
   6.09672894  6.66251386 10.55984430
   6.09672894  6.66251386 14.39978768
   7.20522511  0.39191258  4.79992922
   7.20522511  0.39191258  8.63987261
   7.20522511  0.39191258 12.47981599
   8.31372128  3.52721322  6.71990091
   8.31372128  3.52721322 10.55984430
   8.31372128  3.52721322 14.39978768
   9.42221745  6.66251386  8.63987260
   9.42221745  6.66251386 12.47981599
   9.42221745  6.66251386 16.31975937
   8.31372127  4.70295096 12.47981598
 


--------------------------------------------------------------------------------------------------------


 k-point  1 :   0.0000 0.0000 0.0000  plane waves:   31415
 k-point  2 :   0.2500 0.0000 0.0000  plane waves:   31608
 k-point  3 :   0.5000 0.0000 0.0000  plane waves:   31638
 k-point  4 :   0.0000 0.2500 0.0000  plane waves:   31608
 k-point  5 :   0.2500 0.2500 0.0000  plane waves:   31695
 k-point  6 :   0.5000 0.2500 0.0000  plane waves:   31649
 k-point  7 :  -0.2500 0.2500 0.0000  plane waves:   31674
 k-point  8 :   0.0000 0.5000 0.0000  plane waves:   31638
 k-point  9 :   0.2500 0.5000 0.0000  plane waves:   31649
 k-point 10 :   0.5000 0.5000 0.0000  plane waves:   31716
 k-point 11 :   0.0000 0.5000 0.2500  plane waves:   31649
 k-point 12 :   0.2500 0.5000 0.2500  plane waves:   31674
 k-point 13 :  -0.2500 0.5000 0.2500  plane waves:   31684

 maximum and minimum number of plane-waves per node :     31716    31415

 maximum number of plane-waves:     31716
 maximum index in each direction: 
   IXMAX=   22   IYMAX=   22   IZMAX=   22
   IXMIN=  -22   IYMIN=  -22   IZMIN=  -22


 serial   3D FFT for wavefunctions
 parallel 3D FFT for charge:
    minimum data exchange during FFTs selected (reduces bandwidth)


 total amount of memory used by VASP MPI-rank0   149529. kBytes
=======================================================================

   base      :      30000. kBytes
   nonl-proj :      54318. kBytes
   fftplans  :       5382. kBytes
   grid      :      19496. kBytes
   one-center:        168. kBytes
   wavefun   :      40165. kBytes
 
     INWAV:  cpu time   13.2728: real time   13.4962
 Broyden mixing: mesh for mixing (old mesh)
   NGX = 45   NGY = 45   NGZ = 45
  (NGX  =140   NGY  =140   NGZ  =140)
  gives a total of  91125 points

 charge density for first step will be calculated from the start-wavefunctions


--------------------------------------------------------------------------------------------------------


 Maximum index for augmentation-charges          505 (set IRDMAX)


--------------------------------------------------------------------------------------------------------


 initial charge from wavefunction
 First call to EWALD:  gamma=   0.173
 Maximum number of real-space cells 3x 3x 3
 Maximum number of reciprocal cells 3x 3x 3

    FEWALD:  cpu time    0.0052: real time    0.0052


--------------------------------------- Iteration      1(   1)  ---------------------------------------


    POTLOK:  cpu time    0.0921: real time    0.0985
    SETDIJ:  cpu time    0.2964: real time    0.3007
     EDDAV:  cpu time    4.3765: real time    4.4197
       DOS:  cpu time    0.0122: real time    0.0138
    CHARGE:  cpu time    0.2732: real time    0.2753
    MIXING:  cpu time    0.0246: real time    0.0258
    --------------------------------------------
      LOOP:  cpu time    5.0751: real time    5.1339

 eigenvalue-minimisations  :  2808
 total energy-change (2. order) :-0.2996771E+03  (-0.2420252E-06)
 number of electron     219.0000000 magnetization 
 augmentation part      -12.6435533 magnetization 

 Broyden mixing:
  rms(total) = 0.18900E-03    rms(broyden)= 0.18900E-03
  rms(prec ) = 0.52670E-03
  weight for this iteration     100.00

 Free energy of the ion-electron system (eV)
  ---------------------------------------------------
  alpha Z        PSCENC =        94.20124788
  Ewald energy   TEWEN  =     -6273.82433833
  -Hartree energ DENC   =      -442.70775248
  -exchange      EXHF   =         0.00000000
  -V(xc)+E(xc)   XCENC  =      -494.85471113
  PAW double counting   =     24370.50947028   -23408.91163666
  entropy T*S    EENTRO =        -0.00875789
  eigenvalues    EBANDS =       187.26361695
  atomic energy  EATOM  =      5668.65580356
  Solvation  Ediel_sol  =         0.00000000
  ---------------------------------------------------
  free energy    TOTEN  =      -299.67705782 eV

  energy without entropy =     -299.66829993  energy(sigma->0) =     -299.67267888


--------------------------------------------------------------------------------------------------------




--------------------------------------- Iteration      1(   2)  ---------------------------------------


    POTLOK:  cpu time    0.1311: real time    0.1322
    SETDIJ:  cpu time    0.0621: real time    0.0627
     EDDAV:  cpu time    4.9127: real time    4.9610
       DOS:  cpu time    0.4981: real time    0.5050
    --------------------------------------------
      LOOP:  cpu time    5.6040: real time    5.6608

 eigenvalue-minimisations  :  2808
 total energy-change (2. order) : 0.3300484E-06  (-0.9037223E-07)
 number of electron     219.0000000 magnetization 
 augmentation part      -12.6435533 magnetization 

 Free energy of the ion-electron system (eV)
  ---------------------------------------------------
  alpha Z        PSCENC =        94.20124788
  Ewald energy   TEWEN  =     -6273.82433833
  -Hartree energ DENC   =      -442.70914391
  -exchange      EXHF   =         0.00000000
  -V(xc)+E(xc)   XCENC  =      -494.85470615
  PAW double counting   =     24370.54457140   -23408.94673139
  entropy T*S    EENTRO =        -0.00876531
  eigenvalues    EBANDS =       187.26500476
  atomic energy  EATOM  =      5668.65580356
  Solvation  Ediel_sol  =         0.00000000
  ---------------------------------------------------
  free energy    TOTEN  =      -299.67705749 eV

  energy without entropy =     -299.66829218  energy(sigma->0) =     -299.67267484


--------------------------------------------------------------------------------------------------------




 average (electrostatic) potential at core
  the test charge radii are     0.9892
  (the norm of the test charge is              1.0000)
       1 -83.0119       2 -83.0086       3 -83.0086       4 -83.0086       5 -83.0090
       6 -83.0086       7 -83.0086       8 -83.0086       9 -82.9584      10 -83.2622
      11 -83.6304      12 -83.2622      13 -83.6304      14 -83.6304      15 -83.1570
      16 -83.2622      17 -83.1570      18 -83.1570      19 -83.0660      20 -83.0660
      21 -82.9766      22 -83.0660      23 -82.9936      24 -82.9936      25 -82.9766
      26 -82.9936      27 -82.9766      28 -82.9584      29 -83.0086      30 -83.0086
      31 -83.0086      32 -83.0090      33 -83.0086      34 -83.0086      35 -83.0086
      36 -83.0119      37 -82.9766      38 -82.9936      39 -82.9766      40 -82.9936
      41 -82.9936      42 -83.0660      43 -82.9766      44 -83.0660      45 -83.0660
      46 -83.1570      47 -83.1570      48 -83.2622      49 -83.1570      50 -83.6304
      51 -83.6304      52 -83.2622      53 -83.6304      54 -83.2622      55 -83.6304
 
 
 
 E-fermi :   5.9928     XC(G=0):  -9.4676     alpha+bet :-12.2011


 k-point     1 :       0.0000    0.0000    0.0000
  band No.  band energies     occupation 
      1      -7.2683      2.00000
      2      -5.6541      2.00000
      3      -5.1544      2.00000
      4      -5.1544      2.00000
      5      -4.5970      2.00000
      6      -4.5956      2.00000
      7      -4.5644      2.00000
      8      -4.5644      2.00000
      9      -4.5271      2.00000
     10      -4.1737      2.00000
     11      -4.1544      2.00000
     12      -4.1544      2.00000
     13      -4.0629      2.00000
     14      -4.0629      2.00000
     15      -4.0556      2.00000
     16      -3.2600      2.00000
     17      -3.2600      2.00000
     18      -2.9779      2.00000
     19      -2.8252      2.00000
     20      -2.8252      2.00000
     21      -2.7049      2.00000
     22      -2.6928      2.00000
     23      -2.6928      2.00000
     24      -2.6793      2.00000
     25      -2.6793      2.00000
     26      -2.6127      2.00000
     27      -2.6059      2.00000
     28      -1.5302      2.00000
     29      -1.1841      2.00000
     30      -1.1841      2.00000
     31      -1.0306      2.00000
     32      -1.0306      2.00000
     33      -0.8749      2.00000
     34      -0.7914      2.00000
     35      -0.7914      2.00000
     36      -0.7632      2.00000
     37      -0.7632      2.00000
     38      -0.7072      2.00000
     39      -0.6831      2.00000
     40      -0.2249      2.00000
     41       0.3990      2.00000
     42       0.4088      2.00000
     43       0.4088      2.00000
     44       0.4529      2.00000
     45       0.4529      2.00000
     46       0.6028      2.00000
     47       0.6747      2.00000
     48       0.8883      2.00000
     49       0.8883      2.00000
     50       0.9369      2.00000
     51       0.9369      2.00000
     52       0.9494      2.00000
     53       0.9756      2.00000
     54       1.0456      2.00000
     55       1.2422      2.00000
     56       1.3592      2.00000
     57       1.4935      2.00000
     58       1.4935      2.00000
     59       1.5139      2.00000
     60       1.5139      2.00000
     61       1.6411      2.00000
     62       1.6553      2.00000
     63       1.6553      2.00000
     64       1.6722      2.00000
     65       1.6722      2.00000
     66       2.6309      2.00000
     67       2.6309      2.00000
     68       3.2112      2.00000
     69       3.3267      2.00000
     70       3.3612      2.00000
     71       3.3612      2.00000
     72       3.5114      2.00000
     73       3.5114      2.00000
     74       3.5678      2.00000
     75       3.5864      2.00000
     76       3.5982      2.00000
     77       3.5982      2.00000
     78       3.7934      2.00000
     79       3.7934      2.00000
     80       3.8267      2.00000
     81       3.8267      2.00000
     82       3.8539      2.00000
     83       3.8634      2.00000
     84       3.8722      2.00000
     85       3.8722      2.00000
     86       3.8878      2.00000
     87       3.8878      2.00000
     88       3.9146      2.00000
     89       3.9345      2.00000
     90       4.6143      2.00000
     91       4.6143      2.00000
     92       4.7538      2.00000
     93       4.7538      2.00000
     94       4.7655      2.00000
     95       4.8938      2.00000
     96       4.9179      2.00000
     97       4.9396      2.00000
     98       4.9396      2.00000
     99       5.0209      2.00000
    100       5.0209      2.00000
    101       5.0334      2.00000
    102       5.0334      2.00000
    103       5.0342      2.00000
    104       5.0803      2.00000
    105       5.0803      2.00000
    106       5.1422      2.00000
    107       5.3247      2.00000
    108       5.9322      1.91348
    109       5.9322      1.91348
    110       5.9744      1.39621
    111       6.5101      0.00000
    112       6.5101      0.00000
    113       6.5991      0.00000
    114       6.5991      0.00000
    115       6.9776      0.00000
    116       7.0410      0.00000
    117       7.2315      0.00000
    118       7.2315      0.00000
    119       7.3133      0.00000
    120       7.3133      0.00000
    121       7.3884      0.00000
    122       7.3884      0.00000
    123       7.4426      0.00000
    124       7.5354      0.00000
    125       7.5619      0.00000
    126       7.5619      0.00000
    127       7.6532      0.00000
    128       7.7058      0.00000
    129       7.7246      0.00000
    130       7.7279      0.00000
    131       7.7279      0.00000
    132       7.7592      0.00000
    133       7.7592      0.00000
    134       7.8445      0.00000
    135       7.9114      0.00000
    136       7.9424      0.00000
    137       7.9605      0.00000
    138       7.9605      0.00000
    139       7.9628      0.00000
    140       7.9628      0.00000
    141       8.1963      0.00000
    142       8.1963      0.00000
    143       8.5212      0.00000
    144       9.0120      0.00000

 k-point     2 :       0.2500    0.0000    0.0000
  band No.  band energies     occupation 
      1      -7.2632      2.00000
      2      -5.6106      2.00000
      3      -5.1663      2.00000
      4      -5.1663      2.00000
      5      -5.0407      2.00000
      6      -4.5865      2.00000
      7      -4.5754      2.00000
      8      -4.5754      2.00000
      9      -4.3027      2.00000
     10      -4.2818      2.00000
     11      -4.2818      2.00000
     12      -4.0407      2.00000
     13      -3.7158      2.00000
     14      -3.7158      2.00000
     15      -3.6823      2.00000
     16      -3.3668      2.00000
     17      -3.3668      2.00000
     18      -3.3485      2.00000
     19      -2.9934      2.00000
     20      -2.9934      2.00000
     21      -2.8210      2.00000
     22      -2.8210      2.00000
     23      -2.6396      2.00000
     24      -2.6002      2.00000
     25      -2.5834      2.00000
     26      -2.4659      2.00000
     27      -2.4659      2.00000
     28      -1.4277      2.00000
     29      -1.2883      2.00000
     30      -1.2883      2.00000
     31      -1.0973      2.00000
     32      -1.0973      2.00000
     33      -1.0138      2.00000
     34      -0.9162      2.00000
     35      -0.9162      2.00000
     36      -0.7289      2.00000
     37      -0.6833      2.00000
     38      -0.5469      2.00000
     39      -0.4105      2.00000
     40      -0.4105      2.00000
     41      -0.0566      2.00000
     42       0.0973      2.00000
     43       0.0973      2.00000
     44       0.1554      2.00000
     45       0.1554      2.00000
     46       0.1880      2.00000
     47       0.6224      2.00000
     48       0.9831      2.00000
     49       0.9831      2.00000
     50       1.2187      2.00000
     51       1.3048      2.00000
     52       1.3048      2.00000
     53       1.3433      2.00000
     54       1.5233      2.00000
     55       1.5783      2.00000
     56       1.7425      2.00000
     57       1.7425      2.00000
     58       1.7917      2.00000
     59       1.7917      2.00000
     60       1.8465      2.00000
     61       1.8465      2.00000
     62       1.9246      2.00000
     63       1.9252      2.00000
     64       1.9252      2.00000
     65       2.0730      2.00000
     66       2.6378      2.00000
     67       2.6378      2.00000
     68       2.8163      2.00000
     69       3.0356      2.00000
     70       3.0356      2.00000
     71       3.2749      2.00000
     72       3.3923      2.00000
     73       3.3923      2.00000
     74       3.4244      2.00000
     75       3.4626      2.00000
     76       3.4626      2.00000
     77       3.5287      2.00000
     78       3.5287      2.00000
     79       3.5422      2.00000
     80       3.6267      2.00000
     81       3.6363      2.00000
     82       3.6571      2.00000
     83       3.6571      2.00000
     84       3.8377      2.00000
     85       3.8377      2.00000
     86       3.8690      2.00000
     87       4.0395      2.00000
     88       4.0712      2.00000
     89       4.0712      2.00000
     90       4.1425      2.00000
     91       4.1425      2.00000
     92       4.2416      2.00000
     93       4.5663      2.00000
     94       4.5663      2.00000
     95       4.5737      2.00000
     96       4.6185      2.00000
     97       4.6185      2.00000
     98       4.6739      2.00000
     99       4.7319      2.00000
    100       4.7319      2.00000
    101       4.9449      2.00000
    102       4.9449      2.00000
    103       4.9919      2.00000
    104       5.0667      2.00000
    105       5.2038      2.00000
    106       5.2038      2.00000
    107       5.2543      2.00000
    108       5.7495      2.00000
    109       5.8004      2.00000
    110       5.8004      2.00000
    111       6.6713      0.00000
    112       6.6713      0.00000
    113       6.8270      0.00000
    114       6.8270      0.00000
    115       7.1544      0.00000
    116       7.2869      0.00000
    117       7.2972      0.00000
    118       7.2972      0.00000
    119       7.4659      0.00000
    120       7.6310      0.00000
    121       7.6310      0.00000
    122       7.6933      0.00000
    123       7.7750      0.00000
    124       7.7750      0.00000
    125       7.9234      0.00000
    126       7.9234      0.00000
    127       7.9853      0.00000
    128       8.0352      0.00000
    129       8.0919      0.00000
    130       8.0919      0.00000
    131       8.1022      0.00000
    132       8.1456      0.00000
    133       8.1456      0.00000
    134       8.1674      0.00000
    135       8.2446      0.00000
    136       8.2446      0.00000
    137       8.2846      0.00000
    138       8.4443      0.00000
    139       8.4443      0.00000
    140       8.5595      0.00000
    141       8.6033      0.00000
    142       8.7448      0.00000
    143       8.7448      0.00000
    144       9.0884      0.00000

 k-point     3 :       0.5000    0.0000    0.0000
  band No.  band energies     occupation 
      1      -7.2580      2.00000
      2      -5.5203      2.00000
      3      -5.2914      2.00000
      4      -5.1743      2.00000
      5      -5.1743      2.00000
      6      -4.6497      2.00000
      7      -4.6497      2.00000
      8      -4.6302      2.00000
      9      -4.1540      2.00000
     10      -4.0978      2.00000
     11      -4.0978      2.00000
     12      -3.8915      2.00000
     13      -3.8381      2.00000
     14      -3.8381      2.00000
     15      -3.6598      2.00000
     16      -3.1785      2.00000
     17      -3.1785      2.00000
     18      -3.1444      2.00000
     19      -2.9526      2.00000
     20      -2.9526      2.00000
     21      -2.9135      2.00000
     22      -2.8331      2.00000
     23      -2.8331      2.00000
     24      -2.7621      2.00000
     25      -2.7621      2.00000
     26      -2.5950      2.00000
     27      -2.5943      2.00000
     28      -1.3610      2.00000
     29      -1.3090      2.00000
     30      -1.3090      2.00000
     31      -1.0900      2.00000
     32      -0.9902      2.00000
     33      -0.9902      2.00000
     34      -0.7719      2.00000
     35      -0.7056      2.00000
     36      -0.7056      2.00000
     37      -0.6314      2.00000
     38      -0.6294      2.00000
     39      -0.6051      2.00000
     40      -0.6051      2.00000
     41      -0.5186      2.00000
     42      -0.1089      2.00000
     43      -0.1089      2.00000
     44      -0.0501      2.00000
     45      -0.0501      2.00000
     46      -0.0103      2.00000
     47       0.6903      2.00000
     48       1.2794      2.00000
     49       1.2794      2.00000
     50       1.3896      2.00000
     51       1.3896      2.00000
     52       1.4953      2.00000
     53       1.6796      2.00000
     54       1.7025      2.00000
     55       1.7185      2.00000
     56       2.0493      2.00000
     57       2.0493      2.00000
     58       2.0660      2.00000
     59       2.0660      2.00000
     60       2.2489      2.00000
     61       2.2489      2.00000
     62       2.2576      2.00000
     63       2.2576      2.00000
     64       2.3314      2.00000
     65       2.5760      2.00000
     66       2.5760      2.00000
     67       2.8347      2.00000
     68       2.8935      2.00000
     69       2.9114      2.00000
     70       2.9114      2.00000
     71       3.0330      2.00000
     72       3.0330      2.00000
     73       3.1356      2.00000
     74       3.1356      2.00000
     75       3.2265      2.00000
     76       3.2265      2.00000
     77       3.2271      2.00000
     78       3.2602      2.00000
     79       3.3060      2.00000
     80       3.3523      2.00000
     81       3.3523      2.00000
     82       3.4693      2.00000
     83       3.5149      2.00000
     84       3.5871      2.00000
     85       3.8210      2.00000
     86       3.9631      2.00000
     87       3.9631      2.00000
     88       3.9638      2.00000
     89       3.9638      2.00000
     90       3.9959      2.00000
     91       3.9959      2.00000
     92       4.0335      2.00000
     93       4.1474      2.00000
     94       4.1712      2.00000
     95       4.1712      2.00000
     96       4.2664      2.00000
     97       4.5395      2.00000
     98       4.5395      2.00000
     99       4.6385      2.00000
    100       4.6385      2.00000
    101       4.6784      2.00000
    102       4.7266      2.00000
    103       4.7690      2.00000
    104       4.7690      2.00000
    105       5.2528      2.00000
    106       5.3734      2.00000
    107       5.3734      2.00000
    108       5.6035      2.00000
    109       5.6035      2.00000
    110       6.1820      0.00000
    111       6.7867      0.00000
    112       6.7867      0.00000
    113       6.8380      0.00000
    114       6.8380      0.00000
    115       7.1655      0.00000
    116       7.4915      0.00000
    117       7.6461      0.00000
    118       7.6703      0.00000
    119       7.6703      0.00000
    120       7.7891      0.00000
    121       7.7891      0.00000
    122       7.9347      0.00000
    123       8.2366      0.00000
    124       8.2691      0.00000
    125       8.2691      0.00000
    126       8.2786      0.00000
    127       8.3420      0.00000
    128       8.3420      0.00000
    129       8.4002      0.00000
    130       8.4759      0.00000
    131       8.5730      0.00000
    132       8.5730      0.00000
    133       8.5861      0.00000
    134       8.5861      0.00000
    135       8.6941      0.00000
    136       8.7041      0.00000
    137       8.7041      0.00000
    138       9.0033      0.00000
    139       9.0382      0.00000
    140       9.0382      0.00000
    141       9.2699      0.00000
    142       9.2752      0.00000
    143       9.2800      0.00000
    144       9.3454      0.00000

 k-point     4 :       0.0000    0.2500    0.0000
  band No.  band energies     occupation 
      1      -7.2609      2.00000
      2      -5.6717      2.00000
      3      -5.1954      2.00000
      4      -5.1770      2.00000
      5      -4.8206      2.00000
      6      -4.6153      2.00000
      7      -4.5128      2.00000
      8      -4.4980      2.00000
      9      -4.4369      2.00000
     10      -4.3558      2.00000
     11      -4.2895      2.00000
     12      -4.1137      2.00000
     13      -3.6652      2.00000
     14      -3.6558      2.00000
     15      -3.6449      2.00000
     16      -3.5301      2.00000
     17      -3.4713      2.00000
     18      -3.3054      2.00000
     19      -3.0038      2.00000
     20      -2.8512      2.00000
     21      -2.7914      2.00000
     22      -2.7416      2.00000
     23      -2.6748      2.00000
     24      -2.6722      2.00000
     25      -2.5824      2.00000
     26      -2.4709      2.00000
     27      -2.4299      2.00000
     28      -1.6660      2.00000
     29      -1.3449      2.00000
     30      -1.1924      2.00000
     31      -1.1132      2.00000
     32      -1.0345      2.00000
     33      -1.0119      2.00000
     34      -0.8740      2.00000
     35      -0.8172      2.00000
     36      -0.8089      2.00000
     37      -0.6003      2.00000
     38      -0.4291      2.00000
     39      -0.4176      2.00000
     40      -0.3693      2.00000
     41      -0.0526      2.00000
     42      -0.0432      2.00000
     43       0.1153      2.00000
     44       0.1524      2.00000
     45       0.2173      2.00000
     46       0.2957      2.00000
     47       0.4799      2.00000
     48       0.9099      2.00000
     49       1.0008      2.00000
     50       1.1392      2.00000
     51       1.2622      2.00000
     52       1.4579      2.00000
     53       1.4582      2.00000
     54       1.5255      2.00000
     55       1.5901      2.00000
     56       1.6562      2.00000
     57       1.6751      2.00000
     58       1.7187      2.00000
     59       1.7450      2.00000
     60       1.8305      2.00000
     61       1.8539      2.00000
     62       1.8777      2.00000
     63       1.9818      2.00000
     64       1.9912      2.00000
     65       2.1014      2.00000
     66       2.3688      2.00000
     67       2.4940      2.00000
     68       2.9854      2.00000
     69       3.0036      2.00000
     70       3.1647      2.00000
     71       3.3206      2.00000
     72       3.3437      2.00000
     73       3.3505      2.00000
     74       3.4083      2.00000
     75       3.4576      2.00000
     76       3.5362      2.00000
     77       3.5665      2.00000
     78       3.5671      2.00000
     79       3.5911      2.00000
     80       3.6296      2.00000
     81       3.6501      2.00000
     82       3.6728      2.00000
     83       3.7040      2.00000
     84       3.7137      2.00000
     85       3.7687      2.00000
     86       3.8403      2.00000
     87       3.9515      2.00000
     88       4.1201      2.00000
     89       4.1291      2.00000
     90       4.1833      2.00000
     91       4.1961      2.00000
     92       4.2667      2.00000
     93       4.4000      2.00000
     94       4.5702      2.00000
     95       4.6128      2.00000
     96       4.6440      2.00000
     97       4.6689      2.00000
     98       4.6823      2.00000
     99       4.7995      2.00000
    100       4.8018      2.00000
    101       4.9250      2.00000
    102       4.9565      2.00000
    103       5.0083      2.00000
    104       5.0999      2.00000
    105       5.1745      2.00000
    106       5.1836      2.00000
    107       5.4921      2.00000
    108       5.5046      2.00000
    109       5.7961      2.00000
    110       5.8445      1.99997
    111       6.5974      0.00000
    112       6.7141      0.00000
    113       6.9388      0.00000
    114       7.0648      0.00000
    115       7.0940      0.00000
    116       7.1557      0.00000
    117       7.2223      0.00000
    118       7.4120      0.00000
    119       7.4448      0.00000
    120       7.4544      0.00000
    121       7.5834      0.00000
    122       7.6450      0.00000
    123       7.8238      0.00000
    124       7.8412      0.00000
    125       7.8905      0.00000
    126       7.8921      0.00000
    127       7.9658      0.00000
    128       8.0272      0.00000
    129       8.0337      0.00000
    130       8.0729      0.00000
    131       8.0929      0.00000
    132       8.1193      0.00000
    133       8.1748      0.00000
    134       8.2243      0.00000
    135       8.2474      0.00000
    136       8.2728      0.00000
    137       8.2847      0.00000
    138       8.3889      0.00000
    139       8.4616      0.00000
    140       8.6144      0.00000
    141       8.7066      0.00000
    142       8.7398      0.00000
    143       8.7402      0.00000
    144       8.9060      0.00000

 k-point     5 :       0.2500    0.2500    0.0000
  band No.  band energies     occupation 
      1      -7.2593      2.00000
      2      -5.6465      2.00000
      3      -5.2397      2.00000
      4      -5.1425      2.00000
      5      -4.8895      2.00000
      6      -4.8120      2.00000
      7      -4.6929      2.00000
      8      -4.4467      2.00000
      9      -4.2227      2.00000
     10      -4.0721      2.00000
     11      -4.0059      2.00000
     12      -3.9983      2.00000
     13      -3.9339      2.00000
     14      -3.9309      2.00000
     15      -3.6386      2.00000
     16      -3.4694      2.00000
     17      -3.2996      2.00000
     18      -3.2426      2.00000
     19      -3.1545      2.00000
     20      -2.9986      2.00000
     21      -2.9885      2.00000
     22      -2.9467      2.00000
     23      -2.9072      2.00000
     24      -2.3532      2.00000
     25      -2.3378      2.00000
     26      -2.2554      2.00000
     27      -2.1925      2.00000
     28      -1.6922      2.00000
     29      -1.4840      2.00000
     30      -1.4312      2.00000
     31      -1.3055      2.00000
     32      -1.1426      2.00000
     33      -0.9871      2.00000
     34      -0.9068      2.00000
     35      -0.8699      2.00000
     36      -0.6124      2.00000
     37      -0.5049      2.00000
     38      -0.4089      2.00000
     39      -0.3210      2.00000
     40      -0.2821      2.00000
     41      -0.2511      2.00000
     42      -0.1679      2.00000
     43      -0.1653      2.00000
     44      -0.1249      2.00000
     45       0.4740      2.00000
     46       0.6310      2.00000
     47       0.7010      2.00000
     48       0.7043      2.00000
     49       0.7977      2.00000
     50       1.2689      2.00000
     51       1.3888      2.00000
     52       1.4286      2.00000
     53       1.5188      2.00000
     54       1.6106      2.00000
     55       1.6568      2.00000
     56       1.6596      2.00000
     57       1.7710      2.00000
     58       1.7980      2.00000
     59       1.8103      2.00000
     60       1.8761      2.00000
     61       1.9286      2.00000
     62       2.0756      2.00000
     63       2.0787      2.00000
     64       2.1136      2.00000
     65       2.3025      2.00000
     66       2.4674      2.00000
     67       2.5404      2.00000
     68       2.9434      2.00000
     69       3.0055      2.00000
     70       3.0392      2.00000
     71       3.1309      2.00000
     72       3.1849      2.00000
     73       3.2144      2.00000
     74       3.2336      2.00000
     75       3.2589      2.00000
     76       3.4023      2.00000
     77       3.4348      2.00000
     78       3.5126      2.00000
     79       3.5717      2.00000
     80       3.6624      2.00000
     81       3.7845      2.00000
     82       3.7922      2.00000
     83       3.8062      2.00000
     84       3.8938      2.00000
     85       3.8966      2.00000
     86       3.9372      2.00000
     87       3.9586      2.00000
     88       4.0081      2.00000
     89       4.0901      2.00000
     90       4.1435      2.00000
     91       4.2136      2.00000
     92       4.2475      2.00000
     93       4.2597      2.00000
     94       4.3752      2.00000
     95       4.3859      2.00000
     96       4.4104      2.00000
     97       4.4574      2.00000
     98       4.4619      2.00000
     99       4.5407      2.00000
    100       4.5492      2.00000
    101       4.5840      2.00000
    102       5.1585      2.00000
    103       5.2021      2.00000
    104       5.2317      2.00000
    105       5.2629      2.00000
    106       5.3085      2.00000
    107       5.4950      2.00000
    108       5.5350      2.00000
    109       5.5556      2.00000
    110       5.6705      2.00000
    111       6.5247      0.00000
    112       7.0028      0.00000
    113       7.0076      0.00000
    114       7.1052      0.00000
    115       7.2522      0.00000
    116       7.3078      0.00000
    117       7.4786      0.00000
    118       7.5122      0.00000
    119       7.5684      0.00000
    120       7.6362      0.00000
    121       7.6606      0.00000
    122       7.6722      0.00000
    123       7.7197      0.00000
    124       7.8655      0.00000
    125       7.9085      0.00000
    126       8.0047      0.00000
    127       8.0440      0.00000
    128       8.0647      0.00000
    129       8.0852      0.00000
    130       8.2014      0.00000
    131       8.2525      0.00000
    132       8.3082      0.00000
    133       8.3593      0.00000
    134       8.4087      0.00000
    135       8.4225      0.00000
    136       8.4287      0.00000
    137       8.4966      0.00000
    138       8.5089      0.00000
    139       8.5598      0.00000
    140       8.5662      0.00000
    141       8.6545      0.00000
    142       8.6884      0.00000
    143       8.9292      0.00000
    144       9.0391      0.00000

 k-point     6 :       0.5000    0.2500    0.0000
  band No.  band energies     occupation 
      1      -7.2542      2.00000
      2      -5.5244      2.00000
      3      -5.3729      2.00000
      4      -5.2493      2.00000
      5      -5.0620      2.00000
      6      -4.7900      2.00000
      7      -4.6006      2.00000
      8      -4.4871      2.00000
      9      -4.1274      2.00000
     10      -4.0831      2.00000
     11      -4.0140      2.00000
     12      -3.8206      2.00000
     13      -3.7584      2.00000
     14      -3.6524      2.00000
     15      -3.5836      2.00000
     16      -3.4546      2.00000
     17      -3.4020      2.00000
     18      -3.3252      2.00000
     19      -3.2425      2.00000
     20      -3.2000      2.00000
     21      -3.0351      2.00000
     22      -3.0245      2.00000
     23      -2.6195      2.00000
     24      -2.5076      2.00000
     25      -2.4157      2.00000
     26      -2.2703      2.00000
     27      -2.2592      2.00000
     28      -1.6614      2.00000
     29      -1.4418      2.00000
     30      -1.3186      2.00000
     31      -1.2369      2.00000
     32      -1.1489      2.00000
     33      -1.0738      2.00000
     34      -0.9717      2.00000
     35      -0.9247      2.00000
     36      -0.8612      2.00000
     37      -0.5790      2.00000
     38      -0.5443      2.00000
     39      -0.4715      2.00000
     40      -0.4349      2.00000
     41      -0.4187      2.00000
     42      -0.1533      2.00000
     43      -0.1128      2.00000
     44       0.0485      2.00000
     45       0.2290      2.00000
     46       0.2806      2.00000
     47       0.6838      2.00000
     48       0.8264      2.00000
     49       0.9549      2.00000
     50       1.2263      2.00000
     51       1.6531      2.00000
     52       1.7336      2.00000
     53       1.7516      2.00000
     54       1.7787      2.00000
     55       2.0340      2.00000
     56       2.0836      2.00000
     57       2.1069      2.00000
     58       2.1357      2.00000
     59       2.2683      2.00000
     60       2.2903      2.00000
     61       2.3710      2.00000
     62       2.5102      2.00000
     63       2.5199      2.00000
     64       2.5372      2.00000
     65       2.5404      2.00000
     66       2.6488      2.00000
     67       2.6493      2.00000
     68       2.7640      2.00000
     69       2.7874      2.00000
     70       2.8337      2.00000
     71       2.9291      2.00000
     72       2.9476      2.00000
     73       3.0533      2.00000
     74       3.0631      2.00000
     75       3.1157      2.00000
     76       3.1256      2.00000
     77       3.2122      2.00000
     78       3.2645      2.00000
     79       3.2668      2.00000
     80       3.3029      2.00000
     81       3.4070      2.00000
     82       3.4217      2.00000
     83       3.5249      2.00000
     84       3.5872      2.00000
     85       3.7494      2.00000
     86       3.7556      2.00000
     87       3.7809      2.00000
     88       3.8281      2.00000
     89       3.8894      2.00000
     90       3.9967      2.00000
     91       4.0232      2.00000
     92       4.0373      2.00000
     93       4.0460      2.00000
     94       4.2656      2.00000
     95       4.2962      2.00000
     96       4.3479      2.00000
     97       4.3920      2.00000
     98       4.3971      2.00000
     99       4.4055      2.00000
    100       4.4450      2.00000
    101       4.5345      2.00000
    102       4.5933      2.00000
    103       4.9509      2.00000
    104       4.9624      2.00000
    105       5.0280      2.00000
    106       5.1394      2.00000
    107       5.3426      2.00000
    108       5.5966      2.00000
    109       5.6097      2.00000
    110       6.0701      0.02865
    111       6.6578      0.00000
    112       7.1043      0.00000
    113       7.1729      0.00000
    114       7.4230      0.00000
    115       7.4994      0.00000
    116       7.5187      0.00000
    117       7.6990      0.00000
    118       7.7282      0.00000
    119       7.9436      0.00000
    120       7.9489      0.00000
    121       8.0170      0.00000
    122       8.0763      0.00000
    123       8.1555      0.00000
    124       8.2025      0.00000
    125       8.2700      0.00000
    126       8.3488      0.00000
    127       8.4151      0.00000
    128       8.5139      0.00000
    129       8.5495      0.00000
    130       8.6010      0.00000
    131       8.6331      0.00000
    132       8.6819      0.00000
    133       8.6834      0.00000
    134       8.7589      0.00000
    135       8.7771      0.00000
    136       8.8191      0.00000
    137       8.8595      0.00000
    138       8.9167      0.00000
    139       8.9819      0.00000
    140       9.0405      0.00000
    141       9.0728      0.00000
    142       9.1595      0.00000
    143       9.1765      0.00000
    144       9.1947      0.00000

 k-point     7 :      -0.2500    0.2500    0.0000
  band No.  band energies     occupation 
      1      -7.2558      2.00000
      2      -5.5908      2.00000
      3      -5.3269      2.00000
      4      -5.1895      2.00000
      5      -5.0158      2.00000
      6      -4.7607      2.00000
      7      -4.5350      2.00000
      8      -4.4856      2.00000
      9      -4.3177      2.00000
     10      -4.1898      2.00000
     11      -4.0784      2.00000
     12      -3.8420      2.00000
     13      -3.7642      2.00000
     14      -3.7020      2.00000
     15      -3.6292      2.00000
     16      -3.4508      2.00000
     17      -3.3389      2.00000
     18      -3.2643      2.00000
     19      -3.0620      2.00000
     20      -2.9994      2.00000
     21      -2.9512      2.00000
     22      -2.8523      2.00000
     23      -2.7884      2.00000
     24      -2.7492      2.00000
     25      -2.5612      2.00000
     26      -2.4922      2.00000
     27      -2.0844      2.00000
     28      -1.8051      2.00000
     29      -1.3688      2.00000
     30      -1.1866      2.00000
     31      -1.1220      2.00000
     32      -1.0467      2.00000
     33      -0.8945      2.00000
     34      -0.8732      2.00000
     35      -0.8140      2.00000
     36      -0.7178      2.00000
     37      -0.6913      2.00000
     38      -0.6589      2.00000
     39      -0.5658      2.00000
     40      -0.5377      2.00000
     41      -0.4876      2.00000
     42      -0.4658      2.00000
     43       0.0334      2.00000
     44       0.3712      2.00000
     45       0.4038      2.00000
     46       0.5802      2.00000
     47       0.5817      2.00000
     48       0.6146      2.00000
     49       0.6660      2.00000
     50       1.0876      2.00000
     51       1.5606      2.00000
     52       1.6432      2.00000
     53       1.6643      2.00000
     54       1.7835      2.00000
     55       1.9176      2.00000
     56       2.0303      2.00000
     57       2.0780      2.00000
     58       2.0880      2.00000
     59       2.1364      2.00000
     60       2.1477      2.00000
     61       2.2329      2.00000
     62       2.3636      2.00000
     63       2.4173      2.00000
     64       2.4899      2.00000
     65       2.5274      2.00000
     66       2.5408      2.00000
     67       2.5734      2.00000
     68       2.6883      2.00000
     69       2.8208      2.00000
     70       2.8533      2.00000
     71       2.9528      2.00000
     72       2.9770      2.00000
     73       3.0195      2.00000
     74       3.0213      2.00000
     75       3.2017      2.00000
     76       3.2780      2.00000
     77       3.3297      2.00000
     78       3.3325      2.00000
     79       3.4366      2.00000
     80       3.4959      2.00000
     81       3.5145      2.00000
     82       3.5441      2.00000
     83       3.6018      2.00000
     84       3.6275      2.00000
     85       3.6675      2.00000
     86       3.7345      2.00000
     87       3.8141      2.00000
     88       3.9171      2.00000
     89       3.9646      2.00000
     90       4.0236      2.00000
     91       4.0485      2.00000
     92       4.1027      2.00000
     93       4.2849      2.00000
     94       4.2963      2.00000
     95       4.3686      2.00000
     96       4.3951      2.00000
     97       4.5120      2.00000
     98       4.5596      2.00000
     99       4.6353      2.00000
    100       4.6546      2.00000
    101       4.7248      2.00000
    102       4.7675      2.00000
    103       4.9008      2.00000
    104       4.9243      2.00000
    105       4.9278      2.00000
    106       5.0199      2.00000
    107       5.1556      2.00000
    108       5.6004      2.00000
    109       5.8185      2.00000
    110       5.9427      1.84335
    111       6.7062      0.00000
    112       6.9471      0.00000
    113       7.1222      0.00000
    114       7.3245      0.00000
    115       7.4694      0.00000
    116       7.5217      0.00000
    117       7.5819      0.00000
    118       7.7048      0.00000
    119       7.7657      0.00000
    120       7.8433      0.00000
    121       7.8435      0.00000
    122       7.8978      0.00000
    123       7.9071      0.00000
    124       8.0735      0.00000
    125       8.0758      0.00000
    126       8.1481      0.00000
    127       8.2764      0.00000
    128       8.3433      0.00000
    129       8.4285      0.00000
    130       8.4649      0.00000
    131       8.5104      0.00000
    132       8.5634      0.00000
    133       8.5960      0.00000
    134       8.6131      0.00000
    135       8.6954      0.00000
    136       8.7113      0.00000
    137       8.7365      0.00000
    138       8.8681      0.00000
    139       8.9208      0.00000
    140       8.9751      0.00000
    141       9.0694      0.00000
    142       9.0997      0.00000
    143       9.1460      0.00000
    144       9.1835      0.00000

 k-point     8 :       0.0000    0.5000    0.0000
  band No.  band energies     occupation 
      1      -7.2534      2.00000
      2      -5.6832      2.00000
      3      -5.2768      2.00000
      4      -5.1941      2.00000
      5      -4.8229      2.00000
      6      -4.6654      2.00000
      7      -4.5803      2.00000
      8      -4.5794      2.00000
      9      -4.4217      2.00000
     10      -4.1289      2.00000
     11      -4.1167      2.00000
     12      -3.8972      2.00000
     13      -3.8574      2.00000
     14      -3.8477      2.00000
     15      -3.6980      2.00000
     16      -3.1952      2.00000
     17      -3.1624      2.00000
     18      -3.1550      2.00000
     19      -2.9672      2.00000
     20      -2.9264      2.00000
     21      -2.8950      2.00000
     22      -2.8020      2.00000
     23      -2.7632      2.00000
     24      -2.7138      2.00000
     25      -2.7021      2.00000
     26      -2.6695      2.00000
     27      -2.6659      2.00000
     28      -1.6764      2.00000
     29      -1.1400      2.00000
     30      -1.1276      2.00000
     31      -1.1189      2.00000
     32      -1.0924      2.00000
     33      -0.9165      2.00000
     34      -0.8510      2.00000
     35      -0.7787      2.00000
     36      -0.6786      2.00000
     37      -0.5936      2.00000
     38      -0.5779      2.00000
     39      -0.5625      2.00000
     40      -0.5610      2.00000
     41      -0.2537      2.00000
     42      -0.1699      2.00000
     43      -0.0848      2.00000
     44      -0.0620      2.00000
     45      -0.0210      2.00000
     46       0.0010      2.00000
     47       0.7907      2.00000
     48       0.8540      2.00000
     49       1.2720      2.00000
     50       1.3951      2.00000
     51       1.4968      2.00000
     52       1.5703      2.00000
     53       1.6602      2.00000
     54       1.7654      2.00000
     55       1.8064      2.00000
     56       1.9253      2.00000
     57       1.9358      2.00000
     58       1.9672      2.00000
     59       2.0300      2.00000
     60       2.0699      2.00000
     61       2.0787      2.00000
     62       2.3543      2.00000
     63       2.3607      2.00000
     64       2.3630      2.00000
     65       2.4227      2.00000
     66       2.6257      2.00000
     67       2.7061      2.00000
     68       2.7608      2.00000
     69       2.9235      2.00000
     70       2.9320      2.00000
     71       2.9432      2.00000
     72       3.1124      2.00000
     73       3.1759      2.00000
     74       3.1922      2.00000
     75       3.1983      2.00000
     76       3.2206      2.00000
     77       3.2672      2.00000
     78       3.3131      2.00000
     79       3.3520      2.00000
     80       3.4467      2.00000
     81       3.4817      2.00000
     82       3.5132      2.00000
     83       3.5349      2.00000
     84       3.5597      2.00000
     85       3.7771      2.00000
     86       3.8398      2.00000
     87       3.9135      2.00000
     88       3.9377      2.00000
     89       3.9980      2.00000
     90       4.0618      2.00000
     91       4.0739      2.00000
     92       4.1409      2.00000
     93       4.1443      2.00000
     94       4.1713      2.00000
     95       4.2169      2.00000
     96       4.2396      2.00000
     97       4.5503      2.00000
     98       4.5954      2.00000
     99       4.6199      2.00000
    100       4.6866      2.00000
    101       4.7018      2.00000
    102       4.7057      2.00000
    103       4.7768      2.00000
    104       4.7879      2.00000
    105       5.4453      2.00000
    106       5.4617      2.00000
    107       5.4623      2.00000
    108       5.5088      2.00000
    109       5.6703      2.00000
    110       5.9227      1.95256
    111       6.8295      0.00000
    112       6.9636      0.00000
    113       7.0245      0.00000
    114       7.0326      0.00000
    115       7.1595      0.00000
    116       7.1760      0.00000
    117       7.3878      0.00000
    118       7.5848      0.00000
    119       7.8075      0.00000
    120       7.8225      0.00000
    121       7.9480      0.00000
    122       8.0622      0.00000
    123       8.0851      0.00000
    124       8.1241      0.00000
    125       8.1939      0.00000
    126       8.2183      0.00000
    127       8.2413      0.00000
    128       8.3447      0.00000
    129       8.3961      0.00000
    130       8.4231      0.00000
    131       8.4598      0.00000
    132       8.4852      0.00000
    133       8.5110      0.00000
    134       8.5977      0.00000
    135       8.7142      0.00000
    136       8.8492      0.00000
    137       8.9236      0.00000
    138       8.9651      0.00000
    139       9.0359      0.00000
    140       9.0911      0.00000
    141       9.1438      0.00000
    142       9.1771      0.00000
    143       9.2001      0.00000
    144       9.2755      0.00000

 k-point     9 :       0.2500    0.5000    0.0000
  band No.  band energies     occupation 
      1      -7.2519      2.00000
      2      -5.6396      2.00000
      3      -5.2559      2.00000
      4      -5.2410      2.00000
      5      -5.0823      2.00000
      6      -4.7383      2.00000
      7      -4.4485      2.00000
      8      -4.4429      2.00000
      9      -4.3503      2.00000
     10      -4.0891      2.00000
     11      -4.0080      2.00000
     12      -3.8925      2.00000
     13      -3.8426      2.00000
     14      -3.6700      2.00000
     15      -3.5121      2.00000
     16      -3.4101      2.00000
     17      -3.3981      2.00000
     18      -3.2837      2.00000
     19      -3.2479      2.00000
     20      -3.1542      2.00000
     21      -3.1035      2.00000
     22      -3.0398      2.00000
     23      -2.5700      2.00000
     24      -2.4772      2.00000
     25      -2.4360      2.00000
     26      -2.3096      2.00000
     27      -2.2388      2.00000
     28      -1.7176      2.00000
     29      -1.4382      2.00000
     30      -1.4129      2.00000
     31      -1.2262      2.00000
     32      -1.1976      2.00000
     33      -1.0147      2.00000
     34      -0.8993      2.00000
     35      -0.8701      2.00000
     36      -0.7950      2.00000
     37      -0.6172      2.00000
     38      -0.5817      2.00000
     39      -0.4594      2.00000
     40      -0.4248      2.00000
     41      -0.4227      2.00000
     42      -0.1246      2.00000
     43      -0.0454      2.00000
     44       0.1872      2.00000
     45       0.2138      2.00000
     46       0.2350      2.00000
     47       0.6682      2.00000
     48       0.8545      2.00000
     49       0.9276      2.00000
     50       1.1008      2.00000
     51       1.4483      2.00000
     52       1.7574      2.00000
     53       1.7689      2.00000
     54       1.7941      2.00000
[...]
tot         41.503  51.366   0.000  92.869
 
    CHARGE:  cpu time    0.2183: real time    0.2199
    FORLOC:  cpu time    0.0323: real time    0.0325
    FORNL :  cpu time    3.0972: real time    3.1209
    STRESS:  cpu time    8.8405: real time    8.9128
    FORCOR:  cpu time    0.1081: real time    0.1088
    FORHAR:  cpu time    0.0482: real time    0.0486
    MIXING:  cpu time    0.0039: real time    0.0039
    OFIELD:  cpu time    0.0001: real time    0.0001

  FORCE on cell =-STRESS in cart. coord.  units (eV):
  Direction    XX          YY          ZZ          XY          YZ          ZX
  --------------------------------------------------------------------------------------
  Alpha Z    94.20125    94.20125    94.20125
  Ewald   -2131.41525 -2089.95653 -2084.03385    16.75185     0.00000    -0.00000
  Hartree   135.69916   140.29083   140.94678     1.85532     0.00000     0.00000
  E(xc)    -696.04160  -695.72689  -695.68195     0.12715    -0.00001    -0.00001
  Local    -777.95290  -810.89104  -815.59596   -13.30883     0.00025     0.00037
  n-local  2141.14744  2130.25194  2145.64707    -4.19614    -3.25662     1.15167
  augment  -321.97482  -320.85619  -320.69693     0.45168    -0.00014    -0.00050
  Kinetic  1566.57981  1536.92103  1572.29131    -9.36083    -5.04570     2.49160
  Fock        0.00000     0.00000     0.00000     0.00000     0.00000     0.00000
  -------------------------------------------------------------------------------------
  Total      11.90341     9.96440     9.68740    -0.78348     0.00000     0.00000
  in kB      17.64244    14.76858    14.35802    -1.16122     0.00000     0.00000
  external pressure =       15.59 kB  Pullay stress =        0.00 kB


 VOLUME and BASIS-vectors are now :
 -----------------------------------------------------------------------------
  energy-cutoff  :      550.00
  volume of cell :     1080.99
      direct lattice vectors                 reciprocal lattice vectors
     9.976465530  0.000000000  5.759915070     0.100235900 -0.035438742  0.000000000
     3.325488510  9.405901920  5.759915070     0.000000000  0.106316227  0.000000000
     0.000000000  0.000000000 11.519830140    -0.050117950 -0.035438742  0.086806836

  length of vectors
    11.519830124 11.519830136 11.519830140     0.106316227  0.106316227  0.106316227


 FORCES acting on ions
    electron-ion (+dipol)            ewald-force                    non-local-force                 convergence-correction
 -----------------------------------------------------------------------------------------------
   -.110E+01 0.387E+00 -.232E-06   0.812E+00 -.287E+00 -.378E-10   0.278E+00 -.981E-01 0.000E+00   -.386E-02 0.137E-02 -.399E-07
   0.310E+00 0.189E+01 0.121E+01   -.577E+00 -.181E+01 -.108E+01   0.278E+00 -.995E-01 -.114E+00   0.195E-02 0.108E-02 -.104E-02
   0.310E+00 0.189E+01 -.121E+01   -.577E+00 -.181E+01 0.108E+01   0.278E+00 -.995E-01 0.114E+00   0.195E-02 0.108E-02 0.104E-02
   -.284E+00 0.209E+00 0.223E+01   0.574E-01 -.120E-01 -.218E+01   0.246E+00 -.192E+00 -.581E-01   0.821E-03 -.213E-02 0.926E-03
   0.769E+01 -.272E+01 -.800E-07   -.816E+01 0.288E+01 0.698E-08   0.461E+00 -.163E+00 0.208E-16   0.410E-03 -.145E-03 0.498E-07
   -.284E+00 0.209E+00 -.223E+01   0.574E-01 -.120E-01 0.218E+01   0.246E+00 -.192E+00 0.581E-01   0.821E-03 -.213E-02 -.926E-03
   -.980E+00 -.176E+01 0.103E+01   0.684E+00 0.176E+01 -.110E+01   0.312E+00 -.462E-02 0.564E-01   0.142E-02 -.434E-03 0.196E-02
   -.980E+00 -.176E+01 -.103E+01   0.684E+00 0.176E+01 0.110E+01   0.312E+00 -.462E-02 -.564E-01   0.142E-02 -.434E-03 -.196E-02
   -.194E+00 0.685E-01 0.951E-06   0.169E+00 -.596E-01 -.150E-08   0.652E-01 -.231E-01 -.694E-17   0.313E-02 -.111E-02 0.199E-08
   0.232E+01 0.115E+01 0.323E+01   -.233E+01 -.131E+01 -.348E+01   0.228E-01 0.136E+00 0.235E+00   0.176E-02 0.362E-03 0.161E-02
   0.103E+02 0.246E+02 0.224E-05   -.120E+02 -.249E+02 0.241E-07   0.172E+01 0.248E+00 0.139E-16   -.262E-02 -.434E-02 -.362E-07
   0.232E+01 0.115E+01 -.323E+01   -.233E+01 -.131E+01 0.348E+01   0.228E-01 0.136E+00 -.235E+00   0.176E-02 0.362E-03 -.161E-02
   -.304E+01 -.131E+02 0.231E+02   0.175E+01 0.140E+02 -.238E+02   0.132E+01 -.894E+00 0.699E+00   -.142E-03 0.268E-02 -.430E-02
   -.304E+01 -.131E+02 -.231E+02   0.175E+01 0.140E+02 0.238E+02   0.132E+01 -.894E+00 -.699E+00   -.142E-03 0.268E-02 0.430E-02
   0.165E+01 0.128E+00 0.118E-05   -.159E+01 -.966E-01 -.642E-08   -.335E-01 -.472E-01 0.694E-17   0.333E-03 -.204E-02 0.148E-07
   0.459E+00 -.411E+01 -.238E-06   -.323E+00 0.438E+01 0.191E-08   -.113E+00 -.248E+00 -.278E-16   0.835E-03 -.227E-02 0.372E-07
   0.131E+01 -.819E+00 0.580E+00   -.128E+01 0.782E+00 -.538E+00   -.567E-02 0.315E-01 -.482E-01   0.124E-02 0.522E-03 -.157E-02
   0.131E+01 -.819E+00 -.580E+00   -.128E+01 0.782E+00 0.538E+00   -.567E-02 0.315E-01 0.482E-01   0.124E-02 0.522E-03 0.157E-02
   -.619E+01 0.510E+01 0.475E+01   0.620E+01 -.530E+01 -.507E+01   -.217E-01 0.211E+00 0.332E+00   -.698E-03 0.962E-03 0.117E-02
   -.619E+01 0.510E+01 -.475E+01   0.620E+01 -.530E+01 0.507E+01   -.217E-01 0.211E+00 -.332E+00   -.698E-03 0.962E-03 -.117E-02
   0.783E+00 0.619E+00 0.299E-06   -.540E+00 -.663E+00 -.352E-08   -.258E+00 0.735E-01 0.000E+00   -.130E-02 0.265E-02 0.384E-07
   -.893E+01 -.266E+01 0.490E-06   0.913E+01 0.298E+01 0.595E-08   -.213E+00 -.331E+00 -.278E-16   -.137E-02 -.945E-03 -.261E-07
   -.503E+00 -.372E+00 -.897E+00   0.654E+00 0.386E+00 0.101E+01   -.142E+00 -.139E-01 -.105E+00   -.610E-04 -.190E-02 -.315E-02
   -.503E+00 -.372E+00 0.897E+00   0.654E+00 0.386E+00 -.101E+01   -.142E+00 -.139E-01 0.105E+00   -.610E-04 -.190E-02 0.315E-02
   0.361E+00 -.576E+00 0.732E+00   -.137E+00 0.475E+00 -.697E+00   -.250E+00 0.973E-01 -.146E-01   -.234E-02 -.269E-03 0.179E-02
   0.152E-01 0.109E+01 0.138E-05   0.720E-01 -.126E+01 0.140E-08   -.817E-01 0.157E+00 -.139E-16   0.175E-02 0.323E-02 -.161E-07
   0.361E+00 -.576E+00 -.732E+00   -.137E+00 0.475E+00 0.697E+00   -.250E+00 0.973E-01 0.146E-01   -.234E-02 -.269E-03 -.179E-02
   0.194E+00 -.685E-01 0.933E-06   -.169E+00 0.596E-01 -.149E-08   -.652E-01 0.231E-01 -.416E-16   -.313E-02 0.111E-02 0.128E-07
   0.980E+00 0.176E+01 0.103E+01   -.684E+00 -.176E+01 -.110E+01   -.312E+00 0.462E-02 0.564E-01   -.142E-02 0.434E-03 0.196E-02
   0.980E+00 0.176E+01 -.103E+01   -.684E+00 -.176E+01 0.110E+01   -.312E+00 0.462E-02 -.564E-01   -.142E-02 0.434E-03 -.196E-02
   0.284E+00 -.209E+00 0.223E+01   -.574E-01 0.120E-01 -.218E+01   -.246E+00 0.192E+00 -.581E-01   -.821E-03 0.213E-02 0.926E-03
   -.769E+01 0.272E+01 0.697E-07   0.816E+01 -.288E+01 0.698E-08   -.461E+00 0.163E+00 0.000E+00   -.410E-03 0.145E-03 -.478E-07
   0.284E+00 -.209E+00 -.223E+01   -.574E-01 0.120E-01 0.218E+01   -.246E+00 0.192E+00 0.581E-01   -.821E-03 0.213E-02 -.926E-03
   -.310E+00 -.189E+01 0.121E+01   0.577E+00 0.181E+01 -.108E+01   -.278E+00 0.995E-01 -.114E+00   -.195E-02 -.108E-02 -.104E-02
   -.310E+00 -.189E+01 -.121E+01   0.577E+00 0.181E+01 0.108E+01   -.278E+00 0.995E-01 0.114E+00   -.195E-02 -.108E-02 0.104E-02
   0.110E+01 -.387E+00 0.911E-06   -.812E+00 0.287E+00 -.531E-10   -.278E+00 0.981E-01 0.139E-16   0.386E-02 -.137E-02 0.166E-07
   -.361E+00 0.576E+00 0.732E+00   0.137E+00 -.475E+00 -.697E+00   0.250E+00 -.973E-01 -.146E-01   0.234E-02 0.269E-03 0.179E-02
   -.152E-01 -.109E+01 -.675E-06   -.720E-01 0.126E+01 0.142E-08   0.817E-01 -.157E+00 0.139E-16   -.175E-02 -.323E-02 0.163E-07
   -.361E+00 0.576E+00 -.732E+00   0.137E+00 -.475E+00 0.697E+00   0.250E+00 -.973E-01 0.146E-01   0.234E-02 0.269E-03 -.179E-02
   0.503E+00 0.372E+00 -.897E+00   -.654E+00 -.386E+00 0.101E+01   0.142E+00 0.139E-01 -.105E+00   0.609E-04 0.190E-02 -.314E-02
   0.503E+00 0.372E+00 0.897E+00   -.654E+00 -.386E+00 -.101E+01   0.142E+00 0.139E-01 0.105E+00   0.610E-04 0.190E-02 0.314E-02
   0.893E+01 0.266E+01 -.451E-06   -.913E+01 -.298E+01 0.593E-08   0.213E+00 0.331E+00 -.139E-16   0.137E-02 0.945E-03 0.161E-07
   -.783E+00 -.619E+00 0.153E-05   0.540E+00 0.663E+00 -.353E-08   0.258E+00 -.735E-01 0.694E-17   0.130E-02 -.265E-02 -.167E-07
   0.619E+01 -.510E+01 0.475E+01   -.620E+01 0.530E+01 -.507E+01   0.217E-01 -.211E+00 0.332E+00   0.698E-03 -.961E-03 0.117E-02
   0.619E+01 -.510E+01 -.475E+01   -.620E+01 0.530E+01 0.507E+01   0.217E-01 -.211E+00 -.332E+00   0.698E-03 -.961E-03 -.117E-02
   -.131E+01 0.819E+00 0.580E+00   0.128E+01 -.782E+00 -.538E+00   0.567E-02 -.315E-01 -.482E-01   -.124E-02 -.522E-03 -.157E-02
   -.131E+01 0.819E+00 -.580E+00   0.128E+01 -.782E+00 0.538E+00   0.567E-02 -.315E-01 0.482E-01   -.124E-02 -.522E-03 0.157E-02
   -.459E+00 0.411E+01 -.774E-06   0.323E+00 -.438E+01 0.190E-08   0.113E+00 0.248E+00 0.694E-17   -.835E-03 0.227E-02 -.337E-07
   -.165E+01 -.128E+00 0.109E-05   0.159E+01 0.966E-01 -.642E-08   0.335E-01 0.472E-01 -.139E-16   -.333E-03 0.204E-02 0.259E-07
   0.304E+01 0.131E+02 0.231E+02   -.175E+01 -.140E+02 -.238E+02   -.132E+01 0.894E+00 0.699E+00   0.142E-03 -.268E-02 -.430E-02
   0.304E+01 0.131E+02 -.231E+02   -.175E+01 -.140E+02 0.238E+02   -.132E+01 0.894E+00 -.699E+00   0.142E-03 -.268E-02 0.430E-02
   -.232E+01 -.115E+01 0.323E+01   0.233E+01 0.131E+01 -.348E+01   -.228E-01 -.136E+00 0.235E+00   -.176E-02 -.362E-03 0.161E-02
   -.103E+02 -.246E+02 -.185E-05   0.120E+02 0.249E+02 0.241E-07   -.172E+01 -.248E+00 -.208E-16   0.262E-02 0.434E-02 -.700E-08
   -.232E+01 -.115E+01 -.323E+01   0.233E+01 0.131E+01 0.348E+01   -.228E-01 -.136E+00 -.235E+00   -.176E-02 -.362E-03 -.161E-02
   -.116E-05 0.196E-06 -.304E-06   0.190E-11 -.653E-11 0.114E-06   -.467E-21 -.152E-21 -.220E-20   0.132E-06 -.706E-07 -.391E-07
 -----------------------------------------------------------------------------------------------
   0.794E-05 0.332E-05 0.102E-04   -.455E-13 -.955E-14 -.223E-14   0.203E-14 -.333E-15 0.194E-15   0.656E-07 -.412E-07 -.295E-07
 
 
 POSITION                                       TOTAL-FORCE (eV/Angst)
 -----------------------------------------------------------------------------------
      3.81834      2.76509      6.71990        -0.009928      0.003510      0.000000
      3.86955      2.73590     10.55500         0.013558     -0.016201      0.005348
      3.86955      2.73590     14.40463         0.013558     -0.016201     -0.005348
      4.98188      5.88203      8.62840         0.020479      0.003376     -0.006641
      5.05783      5.85408     12.47982        -0.006455      0.002282     -0.000000
      4.98188      5.88203     16.33124         0.020479      0.003376      0.006641
      6.09317      9.02524     10.55321         0.017392     -0.005357     -0.011988
      6.09317      9.02524     14.40642         0.017392     -0.005357      0.011988
      6.09197      9.01567     18.23973         0.043108     -0.015241     -0.000000
      7.13460      2.73100      8.57887         0.013600     -0.015541     -0.017527
      7.11354      2.65249     12.47982         0.004825     -0.040477     -0.000000
      7.13460      2.73100     16.38077         0.013600     -0.015541      0.017527
      8.28017      5.95221     10.45916         0.023102      0.011218     -0.031657
      8.28017      5.95221     14.50047         0.023102      0.011218      0.031657
      8.30055      5.87700     18.23973         0.023484     -0.017785      0.000000
      9.38681      9.10122     12.47982         0.023719      0.013080      0.000000
      9.41204      9.02076     16.31458         0.027954     -0.005142     -0.007742
      9.41204      9.02076     20.16488         0.027954     -0.005142      0.007742
     10.55945      2.71885     10.53636        -0.014649      0.010647      0.008929
     10.55945      2.71885     14.42328        -0.014649      0.010647     -0.008929
     10.53522      2.73382     18.23973        -0.016316      0.032107     -0.000000
     11.68151      5.89250     12.47982        -0.019804     -0.003934     -0.000000
     11.68758      5.86783     16.32996         0.008475     -0.001698      0.002121
     11.68758      5.86783     20.14950         0.008475     -0.001698     -0.002121
     12.75597      9.01506     14.39327        -0.028732     -0.003011      0.021505
     12.79019      8.98647     18.23973         0.007251     -0.005161     -0.000000
     12.75597      9.01506     22.08619        -0.028732     -0.003011     -0.021505
      0.55901      0.39023      0.95999        -0.043108      0.015241      0.000000
      0.55781      0.38066      4.79329        -0.017392      0.005357     -0.011988
      0.55781      0.38066      8.64651        -0.017392      0.005357      0.011988
      1.66910      3.52387      2.86848        -0.020479     -0.003376     -0.006641
      1.59314      3.55182      6.71990         0.006455     -0.002282     -0.000000
      1.66910      3.52387     10.57132        -0.020479     -0.003376      0.006641
      2.78143      6.67000      4.79509        -0.013558      0.016201      0.005348
      2.78143      6.67000      8.64471        -0.013558      0.016201     -0.005348
      2.83264      6.64081     12.47982         0.009928     -0.003510     -0.000000
      3.87147      0.39085      2.87344         0.028732      0.003011      0.021505
      3.83726      0.41943      6.71990        -0.007251      0.005161      0.000000
      3.87147      0.39085     10.56636         0.028732      0.003011     -0.021505
      4.93986      3.53807      4.81013        -0.008475      0.001698      0.002121
      4.93986      3.53807      8.62967        -0.008475      0.001698     -0.002121
      4.94594      3.51340     12.47982         0.019804      0.003934      0.000000
      6.09222      6.67209      6.71990         0.016316     -0.032107     -0.000000
      6.06799      6.68706     10.53636         0.014649     -0.010647      0.008929
      6.06799      6.68706     14.42328         0.014649     -0.010647     -0.008929
      7.21540      0.38514      4.79475        -0.027954      0.005142     -0.007742
      7.21540      0.38514      8.64505        -0.027954      0.005142      0.007742
      7.24063      0.30468     12.47982        -0.023719     -0.013080     -0.000000
      8.32689      3.52890      6.71990        -0.023484      0.017785     -0.000000
      8.34727      3.45370     10.45916        -0.023102     -0.011218     -0.031657
      8.34727      3.45370     14.50047        -0.023102     -0.011218      0.031657
      9.49285      6.67490      8.57887        -0.013600      0.015541     -0.017527
      9.51390      6.75341     12.47982        -0.004825      0.040477     -0.000000
      9.49285      6.67490     16.38077        -0.013600      0.015541      0.017527
      8.31372      4.70295     12.47982         0.000000     -0.000000     -0.000000
 -----------------------------------------------------------------------------------
    total drift:                                0.000008      0.000003      0.000010


--------------------------------------------------------------------------------------------------------



  FREE ENERGIE OF THE ION-ELECTRON SYSTEM (eV)
  ---------------------------------------------------
  free  energy   TOTEN  =      -300.67760163 eV

  energy  without entropy=     -300.67116192  energy(sigma->0) =     -300.67438177
 
 d Force = 0.3458688E-02[ 0.242E-02, 0.450E-02]  d Energy = 0.3411698E-02 0.470E-04
 d Force = 0.1602842E+00[ 0.159E+00, 0.161E+00]  d Ewald  = 0.1602906E+00-0.642E-05


--------------------------------------------------------------------------------------------------------


    POTLOK:  cpu time    0.0907: real time    0.0914


--------------------------------------------------------------------------------------------------------


 Conjugate gradient step on ions:
 trial-energy change:   -0.003412  1 .order   -0.003459   -0.004497   -0.002421
  (g-gl).g = 0.544E-02      g.g   = 0.546E-02  gl.gl    = 0.498E-02
 g(Force)  = 0.546E-02   g(Stress)= 0.000E+00 ortho     = 0.145E-03
 gamma     =   1.09234
 trial     =   0.80084
 opt step  =   2.35586  (harmonic =   1.73462) maximal distance =0.02646707
 next E    =  -300.679608   (d E  =  -0.00542)


--------------------------------------------------------------------------------------------------------


  
 reached required accuracy - stopping structural energy minimisation
 writing wavefunctions
     LOOP+:  cpu time   48.0204: real time   48.6365
    4ORBIT:  cpu time    0.0000: real time    0.0000
 


 total charge     
 
# of ion       s       p       d       tot
------------------------------------------
    1        0.752   0.938   0.000   1.690
    2        0.751   0.944   0.000   1.694
    3        0.751   0.943   0.000   1.694
    4        0.751   0.945   0.000   1.696
    5        0.754   0.932   0.000   1.686
    6        0.751   0.944   0.000   1.695
    7        0.750   0.945   0.000   1.695
    8        0.750   0.944   0.000   1.694
    9        0.750   0.945   0.000   1.694
   10        0.759   0.931   0.000   1.690
   11        0.762   0.887   0.000   1.649
   12        0.760   0.932   0.000   1.692
   13        0.767   0.898   0.000   1.665
   14        0.767   0.897   0.000   1.664
   15        0.753   0.938   0.000   1.691
   16        0.756   0.928   0.000   1.684
   17        0.750   0.935   0.000   1.686
   18        0.750   0.936   0.000   1.687
   19        0.753   0.941   0.000   1.694
   20        0.754   0.942   0.000   1.696
   21        0.750   0.942   0.000   1.693
   22        0.754   0.942   0.000   1.696
   23        0.751   0.943   0.000   1.694
   24        0.751   0.943   0.000   1.694
   25        0.750   0.942   0.000   1.692
   26        0.751   0.943   0.000   1.694
   27        0.750   0.942   0.000   1.692
   28        0.750   0.945   0.000   1.694
   29        0.750   0.944   0.000   1.694
   30        0.750   0.945   0.000   1.695
   31        0.751   0.944   0.000   1.695
   32        0.754   0.932   0.000   1.686
   33        0.751   0.945   0.000   1.696
   34        0.751   0.943   0.000   1.694
   35        0.751   0.944   0.000   1.694
   36        0.752   0.938   0.000   1.690
   37        0.750   0.942   0.000   1.692
   38        0.751   0.943   0.000   1.694
   39        0.750   0.942   0.000   1.692
   40        0.751   0.943   0.000   1.694
   41        0.751   0.943   0.000   1.694
   42        0.754   0.942   0.000   1.696
   43        0.750   0.942   0.000   1.693
   44        0.754   0.942   0.000   1.696
   45        0.753   0.941   0.000   1.694
   46        0.750   0.936   0.000   1.687
   47        0.750   0.935   0.000   1.686
   48        0.756   0.928   0.000   1.684
   49        0.753   0.938   0.000   1.691
   50        0.767   0.897   0.000   1.664
   51        0.767   0.898   0.000   1.665
   52        0.760   0.932   0.000   1.692
   53        0.762   0.887   0.000   1.649
   54        0.759   0.931   0.000   1.690
   55        0.809   0.882   0.000   1.692
--------------------------------------------------
tot         41.503  51.366   0.000  92.869
 

 total amount of memory used by VASP MPI-rank0   149529. kBytes
=======================================================================

   base      :      30000. kBytes
   nonl-proj :      54318. kBytes
   fftplans  :       5382. kBytes
   grid      :      19496. kBytes
   one-center:        168. kBytes
   wavefun   :      40165. kBytes
 
  
  
 General timing and accounting informations for this job:
 ========================================================
  
                  Total CPU time used (sec):      670.471
                            User time (sec):      661.942
                          System time (sec):        8.529
                         Elapsed time (sec):      679.558
  
                   Maximum memory used (kb):      464072.
                   Average memory used (kb):           0.
  
                          Minor page faults:        38886
                          Major page faults:            0
                 Voluntary context switches:         7704
