<?xml version="1.0" encoding="ISO-8859-1"?>
<modeling>
 <generator>
  <i name="program" type="string">vasp </i>
  <i name="version" type="string">5.4.4.18Apr17-6-g9f103f2a35  </i>
  <i name="subversion" type="string">(build Jun 19 2019 10:34:07) complex            parallel </i>
  <i name="platform" type="string">LB-5.4 </i>
  <i name="date" type="string">2023 05 15 </i>
  <i name="time" type="string">18:43:50 </i>
 </generator>
 <incar>
  <i type="string" name="SYSTEM"> Si</i>
  <i type="string" name="PREC">normal</i>
  <i type="string" name="ALGO"> Normal</i>
  <i type="int" name="ISPIN">     1</i>
  <i name="AMIX">      0.20000000</i>
  <i type="int" name="NELM">   200</i>
  <i type="int" name="IBRION">     2</i>
  <i name="EDIFF">      0.00001000</i>
  <i name="EDIFFG">     -0.05000000</i>
  <i type="int" name="NSW">   100</i>
  <i type="int" name="ISIF">     2</i>
  <i type="int" name="ISYM">     2</i>
  <i name="ENCUT">    550.00000000</i>
  <i name="NELECT">    217.00000000</i>
  <i type="logical" name="LREAL"> F  </i>
  <i type="int" name="ISMEAR">     0</i>
  <i name="SIGMA">      0.05000000</i>
  <i type="logical" name="LWAVE"> T  </i>
  <i type="logical" name="LCHARG"> T  </i>
  <i type="int" name="LORBIT">    10</i>
  <v type="int" name="KPOINT_BSE">    -1     0     0     0</v>
  <i type="int" name="NELM">   200</i>
 </incar>
 <structure name="primitive_cell" >
  <crystal>
   <varray name="basis" >
    <v>       9.97646553       0.00000000       5.75991507 </v>
    <v>       3.32548851       9.40590192       5.75991507 </v>
    <v>       0.00000000       0.00000000      11.51983014 </v>
   </varray>
   <i name="volume">   1080.99386112 </i>
   <varray name="rec_basis" >
    <v>       0.10023590      -0.03543874       0.00000000 </v>
    <v>       0.00000000       0.10631623       0.00000000 </v>
    <v>      -0.05011795      -0.03543874       0.08680684 </v>
   </varray>
  </crystal>
  <varray name="positions" >
   <v>       0.29166667       0.29166667       0.29166667 </v>
   <v>       0.04166667       0.37500000       0.37500000 </v>
   <v>       0.37500000       0.37500000       0.04166667 </v>
   <v>       0.37500000       0.37500000       0.37500000 </v>
   <v>       0.37500000       0.04166667       0.37500000 </v>
   <v>      -0.04166667       0.29166667       0.29166667 </v>
   <v>      -0.37500000       0.29166667      -0.04166667 </v>
   <v>      -0.04166667       0.29166667      -0.37500000 </v>
   <v>      -0.37500000       0.29166667       0.29166667 </v>
   <v>      -0.37500000      -0.04166667       0.29166667 </v>
   <v>      -0.04166667      -0.37500000       0.29166667 </v>
   <v>       0.29166667      -0.04166667       0.29166667 </v>
   <v>       0.29166667      -0.37500000      -0.04166667 </v>
   <v>       0.29166667      -0.04166667      -0.37500000 </v>
   <v>       0.29166667      -0.37500000       0.29166667 </v>
   <v>       0.29166667       0.29166667      -0.04166667 </v>
   <v>       0.29166667       0.29166667      -0.37500000 </v>
   <v>      -0.29166667       0.37500000       0.04166667 </v>
   <v>       0.04166667       0.04166667       0.37500000 </v>
   <v>      -0.29166667       0.04166667       0.04166667 </v>
   <v>       0.04166667       0.04166667      -0.29166667 </v>
   <v>      -0.29166667       0.04166667       0.37500000 </v>
   <v>       0.37500000      -0.29166667       0.04166667 </v>
   <v>       0.04166667       0.37500000       0.04166667 </v>
   <v>       0.04166667       0.37500000      -0.29166667 </v>
   <v>       0.04166667      -0.29166667       0.04166667 </v>
   <v>       0.04166667      -0.29166667       0.37500000 </v>
   <v>       0.37500000       0.04166667       0.04166667 </v>
   <v>       0.37500000       0.04166667      -0.29166667 </v>
   <v>      -0.04166667      -0.04166667      -0.37500000 </v>
   <v>      -0.37500000      -0.37500000      -0.04166667 </v>
   <v>      -0.37500000      -0.04166667      -0.04166667 </v>
   <v>      -0.04166667      -0.37500000      -0.04166667 </v>
   <v>      -0.37500000      -0.04166667      -0.37500000 </v>
   <v>      -0.04166667      -0.37500000      -0.37500000 </v>
   <v>      -0.29166667       0.37500000       0.37500000 </v>
   <v>      -0.29166667       0.37500000      -0.29166667 </v>
   <v>      -0.29166667      -0.29166667       0.37500000 </v>
   <v>       0.37500000      -0.29166667      -0.29166667 </v>
   <v>       0.37500000      -0.29166667       0.37500000 </v>
   <v>       0.37500000       0.37500000      -0.29166667 </v>
   <v>      -0.37500000       0.29166667      -0.37500000 </v>
   <v>      -0.04166667       0.29166667      -0.04166667 </v>
   <v>      -0.37500000      -0.37500000       0.29166667 </v>
   <v>      -0.04166667      -0.04166667      -0.04166667 </v>
   <v>      -0.37500000      -0.37500000      -0.37500000 </v>
   <v>      -0.04166667      -0.04166667       0.29166667 </v>
   <v>       0.29166667      -0.37500000      -0.37500000 </v>
   <v>       0.29166667      -0.04166667      -0.04166667 </v>
   <v>      -0.29166667       0.04166667      -0.29166667 </v>
   <v>       0.04166667       0.04166667       0.04166667 </v>
   <v>      -0.29166667      -0.29166667      -0.29166667 </v>
   <v>      -0.29166667      -0.29166667       0.04166667 </v>
   <v>       0.04166667      -0.29166667      -0.29166667 </v>
  </varray>
 </structure>
 <varray name="primitive_index" >
  <v type="int" >        1 </v>
  <v type="int" >       32 </v>
  <v type="int" >       40 </v>
  <v type="int" >       41 </v>
  <v type="int" >       38 </v>
  <v type="int" >       19 </v>
  <v type="int" >       12 </v>
  <v type="int" >       20 </v>
  <v type="int" >       10 </v>
  <v type="int" >       16 </v>
  <v type="int" >       22 </v>
  <v type="int" >        7 </v>
  <v type="int" >        6 </v>
  <v type="int" >        8 </v>
  <v type="int" >        4 </v>
  <v type="int" >        3 </v>
  <v type="int" >        2 </v>
  <v type="int" >       49 </v>
  <v type="int" >       29 </v>
  <v type="int" >       46 </v>
  <v type="int" >       30 </v>
  <v type="int" >       47 </v>
  <v type="int" >       43 </v>
  <v type="int" >       31 </v>
  <v type="int" >       33 </v>
  <v type="int" >       34 </v>
  <v type="int" >       35 </v>
  <v type="int" >       37 </v>
  <v type="int" >       39 </v>
  <v type="int" >       26 </v>
  <v type="int" >       15 </v>
  <v type="int" >       18 </v>
  <v type="int" >       24 </v>
  <v type="int" >       17 </v>
  <v type="int" >       23 </v>
  <v type="int" >       50 </v>
  <v type="int" >       51 </v>
  <v type="int" >       53 </v>
  <v type="int" >       45 </v>
  <v type="int" >       44 </v>
  <v type="int" >       42 </v>
  <v type="int" >       11 </v>
  <v type="int" >       21 </v>
  <v type="int" >       13 </v>
  <v type="int" >       27 </v>
  <v type="int" >       14 </v>
  <v type="int" >       25 </v>
  <v type="int" >        5 </v>
  <v type="int" >        9 </v>
  <v type="int" >       48 </v>
  <v type="int" >       28 </v>
  <v type="int" >       54 </v>
  <v type="int" >       52 </v>
  <v type="int" >       36 </v>
 </varray>
 <kpoints>
  <generation param="Gamma">
   <v type="int" name="divisions">       4        4        4 </v>
   <v name="usershift">      0.00000000       0.00000000       0.00000000 </v>
   <v name="genvec1">      0.25000000       0.00000000       0.00000000 </v>
   <v name="genvec2">      0.00000000       0.25000000       0.00000000 </v>
   <v name="genvec3">     -0.00000000      -0.00000000       0.25000000 </v>
   <v name="shift">      0.00000000       0.00000000       0.00000000 </v>
  </generation>
  <varray name="kpointlist" >
   <v>       0.00000000       0.00000000       0.00000000 </v>
   <v>       0.25000000       0.00000000       0.00000000 </v>
   <v>       0.50000000       0.00000000       0.00000000 </v>
   <v>       0.25000000       0.25000000       0.00000000 </v>
   <v>       0.50000000       0.25000000       0.00000000 </v>
   <v>      -0.25000000       0.25000000       0.00000000 </v>
   <v>       0.50000000       0.50000000       0.00000000 </v>
   <v>      -0.25000000       0.50000000       0.25000000 </v>
  </varray>
  <varray name="weights" >
   <v>       0.01562500 </v>
   <v>       0.12500000 </v>
   <v>       0.06250000 </v>
   <v>       0.09375000 </v>
   <v>       0.37500000 </v>
   <v>       0.18750000 </v>
   <v>       0.04687500 </v>
   <v>       0.09375000 </v>
  </varray>
 </kpoints>
 <parameters>
  <separator name="general" >
   <i type="string" name="SYSTEM">Si</i>
   <i type="logical" name="LCOMPAT"> F  </i>
  </separator>
  <separator name="electronic" >
   <i type="string" name="PREC">normal</i>
   <i name="ENMAX">    550.00000000</i>
   <i name="ENAUG">    342.92400000</i>
   <i name="EDIFF">      0.00001000</i>
   <i type="int" name="IALGO">    38</i>
   <i type="int" name="IWAVPR">    11</i>
   <i type="int" name="NBANDS">   144</i>
   <i name="NELECT">    217.00000000</i>
   <i type="int" name="TURBO">     0</i>
   <i type="int" name="IRESTART">     0</i>
   <i type="int" name="NREBOOT">     0</i>
   <i type="int" name="NMIN">     0</i>
   <i name="EREF">      0.00000000</i>
   <separator name="electronic smearing" >
    <i type="int" name="ISMEAR">     0</i>
    <i name="SIGMA">      0.05000000</i>
    <i name="KSPACING">      0.50000000</i>
    <i type="logical" name="KGAMMA"> T  </i>
   </separator>
   <separator name="electronic projectors" >
    <i type="logical" name="LREAL"> F  </i>
    <v name="ROPT">      0.00000000      0.00000000</v>
    <i type="int" name="LMAXPAW">  -100</i>
    <i type="int" name="LMAXMIX">     2</i>
    <i type="logical" name="NLSPLINE"> F  </i>
   </separator>
   <separator name="electronic startup" >
    <i type="int" name="ISTART">     1</i>
    <i type="int" name="ICHARG">     0</i>
    <i type="int" name="INIWAV">     1</i>
   </separator>
   <separator name="electronic spin" >
    <i type="int" name="ISPIN">     1</i>
    <i type="logical" name="LNONCOLLINEAR"> F  </i>
    <v name="MAGMOM">      1.00000000      1.00000000      1.00000000      1.00000000      1.00000000      1.00000000      1.00000000      1.00000000      1.00000000      1.00000000      1.00000000      1.00000000      1.00000000      1.00000000      1.00000000      1.00000000      1.00000000      1.00000000      1.00000000      1.00000000
      1.00000000      1.00000000      1.00000000      1.00000000      1.00000000      1.00000000      1.00000000      1.00000000      1.00000000      1.00000000      1.00000000      1.00000000      1.00000000      1.00000000      1.00000000      1.00000000      1.00000000      1.00000000      1.00000000      1.00000000
      1.00000000      1.00000000      1.00000000      1.00000000      1.00000000      1.00000000      1.00000000      1.00000000      1.00000000      1.00000000      1.00000000      1.00000000      1.00000000      1.00000000</v>
    <i name="NUPDOWN">     -1.00000000</i>
    <i type="logical" name="LSORBIT"> F  </i>
    <v name="SAXIS">      0.00000000      0.00000000      1.00000000</v>
    <i type="logical" name="LSPIRAL"> F  </i>
    <v name="QSPIRAL">      0.00000000      0.00000000      0.00000000</v>
    <i type="logical" name="LZEROZ"> F  </i>
   </separator>
   <separator name="electronic exchange-correlation" >
    <i type="logical" name="LASPH"> F  </i>
    <i type="logical" name="LMETAGGA"> F  </i>
   </separator>
   <separator name="electronic convergence" >
    <i type="int" name="NELM">   200</i>
    <i type="int" name="NELMDL">     0</i>
    <i type="int" name="NELMIN">     2</i>
    <i name="ENINI">    550.00000000</i>
    <separator name="electronic convergence detail" >
     <i type="logical" name="LDIAG"> T  </i>
     <i type="logical" name="LSUBROT"> F  </i>
     <i name="WEIMIN">      0.00100000</i>
     <i name="EBREAK">      0.00000002</i>
     <i name="DEPER">      0.30000000</i>
     <i type="int" name="NRMM">     4</i>
     <i name="TIME">      0.40000000</i>
    </separator>
   </separator>
   <separator name="electronic mixer" >
    <i name="AMIX">      0.20000000</i>
    <i name="BMIX">      1.00000000</i>
    <i name="AMIN">      0.10000000</i>
    <i name="AMIX_MAG">      0.80000000</i>
    <i name="BMIX_MAG">      1.00000000</i>
    <separator name="electronic mixer details" >
     <i type="int" name="IMIX">     4</i>
     <i type="logical" name="MIXFIRST"> F  </i>
     <i type="int" name="MAXMIX">   -45</i>
     <i name="WC">    100.00000000</i>
     <i type="int" name="INIMIX">     1</i>
     <i type="int" name="MIXPRE">     1</i>
     <i type="int" name="MREMOVE">     5</i>
    </separator>
   </separator>
   <separator name="electronic dipolcorrection" >
    <i type="logical" name="LDIPOL"> F  </i>
    <i type="logical" name="LMONO"> F  </i>
    <i type="int" name="IDIPOL">     0</i>
    <i name="EPSILON">      1.00000000</i>
    <v name="DIPOL">   -100.00000000   -100.00000000   -100.00000000</v>
    <i name="EFIELD">      0.00000000</i>
   </separator>
  </separator>
  <separator name="grids" >
   <i type="int" name="NGX">    70</i>
   <i type="int" name="NGY">    70</i>
   <i type="int" name="NGZ">    70</i>
   <i type="int" name="NGXF">   140</i>
   <i type="int" name="NGYF">   140</i>
   <i type="int" name="NGZF">   140</i>
   <i type="logical" name="ADDGRID"> F  </i>
  </separator>
  <separator name="ionic" >
   <i type="int" name="NSW">   100</i>
   <i type="int" name="IBRION">     2</i>
   <i type="int" name="MDALGO">     0</i>
   <i type="int" name="ISIF">     2</i>
   <i name="PSTRESS">      0.00000000</i>
   <i name="EDIFFG">     -0.05000000</i>
   <i type="int" name="NFREE">     1</i>
   <i name="POTIM">      0.50000000</i>
   <i name="SMASS">     -3.00000000</i>
   <i name="SCALEE">      1.00000000</i>
  </separator>
  <separator name="ionic md" >
   <i name="TEBEG">      0.00010000</i>
   <i name="TEEND">      0.00010000</i>
   <i type="int" name="NBLOCK">     1</i>
   <i type="int" name="KBLOCK">   100</i>
   <i type="int" name="NPACO">   256</i>
   <i name="APACO">     16.00000000</i>
  </separator>
  <separator name="symmetry" >
   <i type="int" name="ISYM">     2</i>
   <i name="SYMPREC">      0.00001000</i>
  </separator>
  <separator name="dos" >
   <i type="int" name="LORBIT">    10</i>
   <v name="RWIGS">     -1.00000000     -1.00000000</v>
   <i type="int" name="NEDOS">   301</i>
   <i name="EMIN">     10.00000000</i>
   <i name="EMAX">    -10.00000000</i>
   <i name="EFERMI">      0.00000000</i>
  </separator>
  <separator name="writing" >
   <i type="int" name="NWRITE">     2</i>
   <i type="logical" name="LWAVE"> T  </i>
   <i type="logical" name="LDOWNSAMPLE"> F  </i>
   <i type="logical" name="LCHARG"> T  </i>
   <i type="logical" name="LPARD"> F  </i>
   <i type="logical" name="LVTOT"> F  </i>
   <i type="logical" name="LVHAR"> F  </i>
   <i type="logical" name="LELF"> F  </i>
   <i type="logical" name="LOPTICS"> F  </i>
   <v name="STM">      0.00000000      0.00000000      0.00000000      0.00000000      0.00000000      0.00000000      0.00000000</v>
  </separator>
  <separator name="performance" >
   <i type="int" name="NPAR">    24</i>
   <i type="int" name="NSIM">     4</i>
   <i type="int" name="NBLK">    -1</i>
   <i type="logical" name="LPLANE"> T  </i>
   <i type="logical" name="LSCALAPACK"> T  </i>
   <i type="logical" name="LSCAAWARE"> F  </i>
   <i type="logical" name="LSCALU"> F  </i>
   <i type="logical" name="LASYNC"> F  </i>
   <i type="logical" name="LORBITALREAL"> F  </i>
  </separator>
  <separator name="miscellaneous" >
   <i type="int" name="IDIOT">     3</i>
   <i type="int" name="ISPECIAL">     0</i>
   <i type="logical" name="LMUSIC"> F  </i>
   <v name="POMASS">     30.97400000     28.08500000</v>
   <v name="DARWINR">      0.00000000      0.00000000</v>
   <v name="DARWINV">      1.00000000      1.00000000</v>
   <i type="logical" name="LCORR"> T  </i>
  </separator>
  <i type="logical" name="GGA_COMPAT"> T  </i>
  <i type="logical" name="LBERRY"> F  </i>
  <i type="int" name="ICORELEVEL">     0</i>
  <i type="logical" name="LDAU"> F  </i>
  <i type="int" name="I_CONSTRAINED_M">     0</i>
  <separator name="electronic exchange-correlation" >
   <i type="string" name="GGA">--</i>
   <i type="int" name="VOSKOWN">     0</i>
   <i type="logical" name="LHFCALC"> F  </i>
   <i type="string" name="PRECFOCK"></i>
   <i type="logical" name="LSYMGRAD"> F  </i>
   <i type="logical" name="LHFONE"> F  </i>
   <i type="logical" name="LRHFCALC"> F  </i>
   <i type="logical" name="LTHOMAS"> F  </i>
   <i type="logical" name="LMODELHF"> F  </i>
   <i name="ENCUT4O">     -1.00000000</i>
   <i type="int" name="EXXOEP">     0</i>
   <i type="int" name="FOURORBIT">     0</i>
   <i name="AEXX">      0.00000000</i>
   <i name="HFALPHA">      0.00000000</i>
   <i name="MCALPHA">      0.00000000</i>
   <i name="ALDAX">      1.00000000</i>
   <i name="AGGAX">      1.00000000</i>
   <i name="ALDAC">      1.00000000</i>
   <i name="AGGAC">      1.00000000</i>
   <i type="int" name="NKREDX">     1</i>
   <i type="int" name="NKREDY">     1</i>
   <i type="int" name="NKREDZ">     1</i>
   <i type="logical" name="SHIFTRED"> F  </i>
   <i type="logical" name="ODDONLY"> F  </i>
   <i type="logical" name="EVENONLY"> F  </i>
   <i type="int" name="LMAXFOCK">     0</i>
   <i type="int" name="NMAXFOCKAE">     0</i>
   <i type="logical" name="LFOCKAEDFT"> F  </i>
   <i name="HFSCREEN">      0.00000000</i>
   <i name="HFSCREENC">      0.00000000</i>
   <i type="int" name="NBANDSGWLOW">     0</i>
  </separator>
  <separator name="vdW DFT" >
   <i type="logical" name="LUSE_VDW"> F  </i>
   <i name="Zab_VDW">     -0.84910000</i>
   <i name="PARAM1">      0.12340000</i>
   <i name="PARAM2">      1.00000000</i>
   <i name="PARAM3">      0.00000000</i>
  </separator>
  <separator name="model GW" >
   <i type="int" name="MODEL_GW">     0</i>
   <i name="MODEL_EPS0">     12.01104290</i>
   <i name="MODEL_ALPHA">      1.00000000</i>
  </separator>
  <separator name="linear response parameters" >
   <i type="logical" name="LEPSILON"> F  </i>
   <i type="logical" name="LRPA"> F  </i>
   <i type="logical" name="LNABLA"> F  </i>
   <i type="logical" name="LVEL"> F  </i>
   <i type="int" name="KINTER">     0</i>
   <i name="CSHIFT">      0.10000000</i>
   <i name="OMEGAMAX">     -1.00000000</i>
   <i name="DEG_THRESHOLD">      0.00200000</i>
   <i name="RTIME">     -0.10000000</i>
   <i name="WPLASMAI">      0.00000000</i>
   <v name="DFIELD">      0.00000000      0.00000000      0.00000000</v>
   <v name="WPLASMA">      0.00000000      0.00000000      0.00000000      0.00000000      0.00000000      0.00000000      0.00000000      0.00000000      0.00000000</v>
  </separator>
  <separator name="orbital magnetization" >
   <i type="logical" name="NUCIND"> F  </i>
   <v name="MAGPOS">      0.00000000      0.00000000      0.00000000</v>
   <i type="logical" name="LNICSALL"> T  </i>
   <i type="logical" name="ORBITALMAG"> F  </i>
   <i type="logical" name="LMAGBLOCH"> F  </i>
   <i type="logical" name="LCHIMAG"> F  </i>
   <i type="logical" name="LGAUGE"> T  </i>
   <i type="int" name="MAGATOM">     0</i>
   <v name="MAGDIPOL">      0.00000000      0.00000000      0.00000000</v>
   <v name="AVECCONST">      0.00000000      0.00000000      0.00000000</v>
  </separator>
  <separator name="response functions" >
   <i type="logical" name="LADDER"> F  </i>
   <i type="logical" name="LRPAFORCE"> F  </i>
   <i type="logical" name="LFXC"> F  </i>
   <i type="logical" name="LHARTREE"> T  </i>
   <i type="int" name="IBSE">     0</i>
   <v type="int" name="KPOINT">    -1     0     0     0</v>
   <i type="logical" name="LTCTE"> F  </i>
   <i type="logical" name="LTETE"> F  </i>
   <i type="logical" name="LTRIPLET"> F  </i>
   <i type="logical" name="LFXCEPS"> F  </i>
   <i type="logical" name="LFXHEG"> F  </i>
   <i type="int" name="NATURALO">     2</i>
   <i type="logical" name="L2ORDER"> F  </i>
   <i type="logical" name="LMP2LT"> F  </i>
   <i type="logical" name="LUSEW"> F  </i>
   <i name="ENCUTGW">     -2.00000000</i>
   <i name="ENCUTGWSOFT">     -2.00000000</i>
   <i name="ENCUTLF">     -1.00000000</i>
   <i type="int" name="LMAXMP2">    -1</i>
   <i name="SCISSOR">      0.00000000</i>
   <i type="int" name="NOMEGA">     0</i>
   <i type="int" name="NOMEGAR">     0</i>
   <i type="int" name="NBANDSGW">    -1</i>
   <i type="int" name="NBANDSO">    -1</i>
   <i type="int" name="NBANDSV">    -1</i>
   <i type="int" name="NELM">   200</i>
   <i type="int" name="NELMHF">     1</i>
   <i type="int" name="DIM">     3</i>
   <i type="int" name="ANTIRES">     0</i>
   <i name="OMEGAMAX">    -30.00000000</i>
   <i name="OMEGAMIN">    -30.00000000</i>
   <i name="OMEGATL">   -200.00000000</i>
   <i type="int" name="OMEGAGRID">   140</i>
   <i name="CSHIFT">     -0.10000000</i>
   <i type="logical" name="SELFENERGY"> F  </i>
   <i type="logical" name="LSPECTRAL"> F  </i>
   <i type="logical" name="LSPECTRALGW"> F  </i>
   <i type="logical" name="LSINGLES"> F  </i>
   <i type="logical" name="LFERMIGW"> F  </i>
   <i type="logical" name="ODDONLYGW"> F  </i>
   <i type="logical" name="EVENONLYGW"> F  </i>
   <i type="int" name="NKREDLFX">     1</i>
   <i type="int" name="NKREDLFY">     1</i>
   <i type="int" name="NKREDLFZ">     1</i>
   <i type="int" name="MAXMEM">  2800</i>
   <i type="int" name="TELESCOPE">     0</i>
   <i type="int" name="TAUPAR">     1</i>
   <i type="int" name="OMEGAPAR">    -1</i>
   <i name="LAMBDA">      1.00000000</i>
  </separator>
  <separator name="External order field" >
   <i name="OFIELD_KAPPA">      0.00000000</i>
   <v name="OFIELD_K">      0.00000000      0.00000000      0.00000000</v>
   <i name="OFIELD_Q6_NEAR">      0.00000000</i>
   <i name="OFIELD_Q6_FAR">      0.00000000</i>
   <i name="OFIELD_A">      0.00000000</i>
  </separator>
 </parameters>
 <atominfo>
  <atoms>      54 </atoms>
  <types>       2 </types>
  <array name="atoms" >
   <dimension dim="1">ion</dimension>
   <field type="string">element</field>
   <field type="int">atomtype</field>
   <set>
    <rc><c>P </c><c>   1</c></rc>
    <rc><c>Si</c><c>   2</c></rc>
    <rc><c>Si</c><c>   2</c></rc>
    <rc><c>Si</c><c>   2</c></rc>
    <rc><c>Si</c><c>   2</c></rc>
    <rc><c>Si</c><c>   2</c></rc>
    <rc><c>Si</c><c>   2</c></rc>
    <rc><c>Si</c><c>   2</c></rc>
    <rc><c>Si</c><c>   2</c></rc>
    <rc><c>Si</c><c>   2</c></rc>
    <rc><c>Si</c><c>   2</c></rc>
    <rc><c>Si</c><c>   2</c></rc>
    <rc><c>Si</c><c>   2</c></rc>
    <rc><c>Si</c><c>   2</c></rc>
    <rc><c>Si</c><c>   2</c></rc>
    <rc><c>Si</c><c>   2</c></rc>
    <rc><c>Si</c><c>   2</c></rc>
    <rc><c>Si</c><c>   2</c></rc>
    <rc><c>Si</c><c>   2</c></rc>
    <rc><c>Si</c><c>   2</c></rc>
    <rc><c>Si</c><c>   2</c></rc>
    <rc><c>Si</c><c>   2</c></rc>
    <rc><c>Si</c><c>   2</c></rc>
    <rc><c>Si</c><c>   2</c></rc>
    <rc><c>Si</c><c>   2</c></rc>
    <rc><c>Si</c><c>   2</c></rc>
    <rc><c>Si</c><c>   2</c></rc>
    <rc><c>Si</c><c>   2</c></rc>
    <rc><c>Si</c><c>   2</c></rc>
    <rc><c>Si</c><c>   2</c></rc>
    <rc><c>Si</c><c>   2</c></rc>
    <rc><c>Si</c><c>   2</c></rc>
    <rc><c>Si</c><c>   2</c></rc>
    <rc><c>Si</c><c>   2</c></rc>
    <rc><c>Si</c><c>   2</c></rc>
    <rc><c>Si</c><c>   2</c></rc>
    <rc><c>Si</c><c>   2</c></rc>
    <rc><c>Si</c><c>   2</c></rc>
    <rc><c>Si</c><c>   2</c></rc>
    <rc><c>Si</c><c>   2</c></rc>
    <rc><c>Si</c><c>   2</c></rc>
    <rc><c>Si</c><c>   2</c></rc>
    <rc><c>Si</c><c>   2</c></rc>
    <rc><c>Si</c><c>   2</c></rc>
    <rc><c>Si</c><c>   2</c></rc>
    <rc><c>Si</c><c>   2</c></rc>
    <rc><c>Si</c><c>   2</c></rc>
    <rc><c>Si</c><c>   2</c></rc>
    <rc><c>Si</c><c>   2</c></rc>
    <rc><c>Si</c><c>   2</c></rc>
    <rc><c>Si</c><c>   2</c></rc>
    <rc><c>Si</c><c>   2</c></rc>
    <rc><c>Si</c><c>   2</c></rc>
    <rc><c>Si</c><c>   2</c></rc>
   </set>
  </array>
  <array name="atomtypes" >
   <dimension dim="1">type</dimension>
   <field type="int">atomspertype</field>
   <field type="string">element</field>
   <field>mass</field>
   <field>valence</field>
   <field type="string">pseudopotential</field>
   <set>
    <rc><c>   1</c><c>P </c><c>     30.97400000</c><c>      5.00000000</c><c>  PAW_PBE P 06Sep2000                   </c></rc>
    <rc><c>  53</c><c>Si</c><c>     28.08500000</c><c>      4.00000000</c><c>  PAW_PBE Si 05Jan2001                  </c></rc>
   </set>
  </array>
 </atominfo>
 <structure name="initialpos" >
  <crystal>
   <varray name="basis" >
    <v>       9.97646553       0.00000000       5.75991507 </v>
    <v>       3.32548851       9.40590192       5.75991507 </v>
    <v>       0.00000000       0.00000000      11.51983014 </v>
   </varray>
   <i name="volume">   1080.99386112 </i>
   <varray name="rec_basis" >
    <v>       0.10023590      -0.03543874       0.00000000 </v>
    <v>       0.00000000       0.10631623       0.00000000 </v>
    <v>      -0.05011795      -0.03543874       0.08680684 </v>
   </varray>
  </crystal>
  <varray name="positions" >
   <v>       0.29166667       0.29166667       0.29166667 </v>
   <v>       0.29166667       0.29166667       0.62500000 </v>
   <v>       0.29166667       0.29166667       0.95833333 </v>
   <v>       0.29166667       0.62500000       0.29166667 </v>
   <v>       0.29166667       0.62500000       0.62500000 </v>
   <v>       0.29166667       0.62500000       0.95833333 </v>
   <v>       0.29166667       0.95833333       0.29166667 </v>
   <v>       0.29166667       0.95833333       0.62500000 </v>
   <v>       0.29166667       0.95833333       0.95833333 </v>
   <v>       0.62500000       0.29166667       0.29166667 </v>
   <v>       0.62500000       0.29166667       0.62500000 </v>
   <v>       0.62500000       0.29166667       0.95833333 </v>
   <v>       0.62500000       0.62500000       0.29166667 </v>
   <v>       0.62500000       0.62500000       0.62500000 </v>
   <v>       0.62500000       0.62500000       0.95833333 </v>
   <v>       0.62500000       0.95833333       0.29166667 </v>
   <v>       0.62500000       0.95833333       0.62500000 </v>
   <v>       0.62500000       0.95833333       0.95833333 </v>
   <v>       0.95833333       0.29166667       0.29166667 </v>
   <v>       0.95833333       0.29166667       0.62500000 </v>
   <v>       0.95833333       0.29166667       0.95833333 </v>
   <v>       0.95833333       0.62500000       0.29166667 </v>
   <v>       0.95833333       0.62500000       0.62500000 </v>
   <v>       0.95833333       0.62500000       0.95833333 </v>
   <v>       0.95833333       0.95833333       0.29166667 </v>
   <v>       0.95833333       0.95833333       0.62500000 </v>
   <v>       0.95833333       0.95833333       0.95833333 </v>
   <v>       0.04166667       0.04166667       0.04166667 </v>
   <v>       0.04166667       0.04166667       0.37500000 </v>
   <v>       0.04166667       0.04166667       0.70833333 </v>
   <v>       0.04166667       0.37500000       0.04166667 </v>
   <v>       0.04166667       0.37500000       0.37500000 </v>
   <v>       0.04166667       0.37500000       0.70833333 </v>
   <v>       0.04166667       0.70833333       0.04166667 </v>
   <v>       0.04166667       0.70833333       0.37500000 </v>
   <v>       0.04166667       0.70833333       0.70833333 </v>
   <v>       0.37500000       0.04166667       0.04166667 </v>
   <v>       0.37500000       0.04166667       0.37500000 </v>
   <v>       0.37500000       0.04166667       0.70833333 </v>
   <v>       0.37500000       0.37500000       0.04166667 </v>
   <v>       0.37500000       0.37500000       0.37500000 </v>
   <v>       0.37500000       0.37500000       0.70833333 </v>
   <v>       0.37500000       0.70833333       0.04166667 </v>
   <v>       0.37500000       0.70833333       0.37500000 </v>
   <v>       0.37500000       0.70833333       0.70833333 </v>
   <v>       0.70833333       0.04166667       0.04166667 </v>
   <v>       0.70833333       0.04166667       0.37500000 </v>
   <v>       0.70833333       0.04166667       0.70833333 </v>
   <v>       0.70833333       0.37500000       0.04166667 </v>
   <v>       0.70833333       0.37500000       0.37500000 </v>
   <v>       0.70833333       0.37500000       0.70833333 </v>
   <v>       0.70833333       0.70833333       0.04166667 </v>
   <v>       0.70833333       0.70833333       0.37500000 </v>
   <v>       0.70833333       0.70833333       0.70833333 </v>
  </varray>
 </structure>
 <calculation>
  <scstep>
   <time name="dav">    3.29    3.33</time>
   <time name="total">    3.59    3.64</time>
   <energy>
    <i name="alphaZ">     93.56316191 </i>
    <i name="ewald">  -6229.80980546 </i>
    <i name="hartreedc">   -414.70860909 </i>
    <i name="XCdc">   -472.68932589 </i>
    <i name="pawpsdc">  23370.47003202 </i>
    <i name="pawaedc"> -22435.75202357 </i>
    <i name="eentropy">     -0.01632989 </i>
    <i name="bandstr">    157.85799128 </i>
    <i name="atom">   5638.56506835 </i>
    <i name="e_fr_energy">   -292.51984034 </i>
    <i name="e_wo_entrp">   -292.50351045 </i>
    <i name="e_0_energy">   -292.51167540 </i>
   </energy>
  </scstep>
  <scstep>
   <time name="dav">    3.62    3.65</time>
   <time name="total">    4.27    4.31</time>
   <energy>
    <i name="alphaZ">     93.56316191 </i>
    <i name="ewald">  -6229.80980546 </i>
    <i name="hartreedc">   -414.70804592 </i>
    <i name="XCdc">   -472.68933209 </i>
    <i name="pawpsdc">  23370.48914121 </i>
    <i name="pawaedc"> -22435.77113083 </i>
    <i name="eentropy">     -0.01632857 </i>
    <i name="bandstr">    157.85743127 </i>
    <i name="atom">   5638.56506835 </i>
    <i name="e_fr_energy">   -292.51984012 </i>
    <i name="e_wo_entrp">   -292.50351155 </i>
    <i name="e_0_energy">   -292.51167584 </i>
   </energy>
  </scstep>
  <structure>
   <crystal>
    <varray name="basis" >
     <v>       9.97646553       0.00000000       5.75991507 </v>
     <v>       3.32548851       9.40590192       5.75991507 </v>
     <v>       0.00000000       0.00000000      11.51983014 </v>
    </varray>
    <i name="volume">   1080.99386112 </i>
    <varray name="rec_basis" >
     <v>       0.10023590      -0.03543874       0.00000000 </v>
     <v>       0.00000000       0.10631623       0.00000000 </v>
     <v>      -0.05011795      -0.03543874       0.08680684 </v>
    </varray>
   </crystal>
   <varray name="positions" >
    <v>       0.29166667       0.29166667       0.29166667 </v>
    <v>       0.29166667       0.29166667       0.62500000 </v>
    <v>       0.29166667       0.29166667       0.95833333 </v>
    <v>       0.29166667       0.62500000       0.29166667 </v>
    <v>       0.29166667       0.62500000       0.62500000 </v>
    <v>       0.29166667       0.62500000       0.95833333 </v>
    <v>       0.29166667       0.95833333       0.29166667 </v>
    <v>       0.29166667       0.95833333       0.62500000 </v>
    <v>       0.29166667       0.95833333       0.95833333 </v>
    <v>       0.62500000       0.29166667       0.29166667 </v>
    <v>       0.62500000       0.29166667       0.62500000 </v>
    <v>       0.62500000       0.29166667       0.95833333 </v>
    <v>       0.62500000       0.62500000       0.29166667 </v>
    <v>       0.62500000       0.62500000       0.62500000 </v>
    <v>       0.62500000       0.62500000       0.95833333 </v>
    <v>       0.62500000       0.95833333       0.29166667 </v>
    <v>       0.62500000       0.95833333       0.62500000 </v>
    <v>       0.62500000       0.95833333       0.95833333 </v>
    <v>       0.95833333       0.29166667       0.29166667 </v>
    <v>       0.95833333       0.29166667       0.62500000 </v>
    <v>       0.95833333       0.29166667       0.95833333 </v>
    <v>       0.95833333       0.62500000       0.29166667 </v>
    <v>       0.95833333       0.62500000       0.62500000 </v>
    <v>       0.95833333       0.62500000       0.95833333 </v>
    <v>       0.95833333       0.95833333       0.29166667 </v>
    <v>       0.95833333       0.95833333       0.62500000 </v>
    <v>       0.95833333       0.95833333       0.95833333 </v>
    <v>       0.04166667       0.04166667       0.04166667 </v>
    <v>       0.04166667       0.04166667       0.37500000 </v>
    <v>       0.04166667       0.04166667       0.70833333 </v>
    <v>       0.04166667       0.37500000       0.04166667 </v>
    <v>       0.04166667       0.37500000       0.37500000 </v>
    <v>       0.04166667       0.37500000       0.70833333 </v>
    <v>       0.04166667       0.70833333       0.04166667 </v>
    <v>       0.04166667       0.70833333       0.37500000 </v>
    <v>       0.04166667       0.70833333       0.70833333 </v>
    <v>       0.37500000       0.04166667       0.04166667 </v>
    <v>       0.37500000       0.04166667       0.37500000 </v>
    <v>       0.37500000       0.04166667       0.70833333 </v>
    <v>       0.37500000       0.37500000       0.04166667 </v>
    <v>       0.37500000       0.37500000       0.37500000 </v>
    <v>       0.37500000       0.37500000       0.70833333 </v>
    <v>       0.37500000       0.70833333       0.04166667 </v>
    <v>       0.37500000       0.70833333       0.37500000 </v>
    <v>       0.37500000       0.70833333       0.70833333 </v>
    <v>       0.70833333       0.04166667       0.04166667 </v>
    <v>       0.70833333       0.04166667       0.37500000 </v>
    <v>       0.70833333       0.04166667       0.70833333 </v>
    <v>       0.70833333       0.37500000       0.04166667 </v>
    <v>       0.70833333       0.37500000       0.37500000 </v>
    <v>       0.70833333       0.37500000       0.70833333 </v>
    <v>       0.70833333       0.70833333       0.04166667 </v>
    <v>       0.70833333       0.70833333       0.37500000 </v>
    <v>       0.70833333       0.70833333       0.70833333 </v>
   </varray>
  </structure>
  <varray name="forces" >
   <v>      -0.00000000       0.00000000       0.00000000 </v>
   <v>      -0.18596797      -0.13149921      -0.05888676 </v>
   <v>      -0.18596797      -0.13149921       0.05888676 </v>
   <v>      -0.10998313       0.08341838      -0.19049637 </v>
   <v>      -0.03338719       0.01180415       0.00000000 </v>
   <v>      -0.10998313       0.08341838       0.19049637 </v>
   <v>      -0.07598484       0.17958005      -0.13160961 </v>
   <v>      -0.07598484       0.17958005       0.13160961 </v>
   <v>      -0.04049099       0.01431573       0.00000000 </v>
   <v>       0.04198656      -0.13149921      -0.19049637 </v>
   <v>      -0.00000000      -0.03541246       0.00000000 </v>
   <v>       0.04198656      -0.13149921       0.19049637 </v>
   <v>       0.01669359       0.01180415      -0.02891415 </v>
   <v>       0.01669359       0.01180415       0.02891415 </v>
   <v>       0.00225877       0.00159719       0.00000000 </v>
   <v>       0.15196969       0.17958005       0.00000000 </v>
   <v>       0.00112939      -0.00159719       0.00195616 </v>
   <v>       0.00112939      -0.00159719      -0.00195616 </v>
   <v>       0.14398141      -0.13149921      -0.13160961 </v>
   <v>       0.14398141      -0.13149921       0.13160961 </v>
   <v>       0.00000000      -0.04294718       0.00000000 </v>
   <v>       0.21996626       0.08341838       0.00000000 </v>
   <v>      -0.00112939       0.00159719       0.00195616 </v>
   <v>      -0.00112939       0.00159719      -0.00195616 </v>
   <v>       0.02024550       0.01431573      -0.03506623 </v>
   <v>      -0.00225877      -0.00159719       0.00000000 </v>
   <v>       0.02024550       0.01431573       0.03506623 </v>
   <v>      -0.00000000       0.00000000       0.00000000 </v>
   <v>      -0.02458366      -0.01738328       0.02958777 </v>
   <v>      -0.02458366      -0.01738328      -0.02958777 </v>
   <v>      -0.00375058       0.04154159      -0.00649619 </v>
   <v>      -0.00869801       0.00307521       0.00000000 </v>
   <v>      -0.00375058       0.04154159       0.00649619 </v>
   <v>      -0.02083309      -0.00677504      -0.03608396 </v>
   <v>      -0.02083309      -0.00677504       0.03608396 </v>
   <v>      -0.00742508       0.00262516       0.00000000 </v>
   <v>       0.03791559      -0.01738328      -0.00649619 </v>
   <v>      -0.00000000      -0.00922564       0.00000000 </v>
   <v>       0.03791559      -0.01738328       0.00649619 </v>
   <v>       0.00434901       0.00307521      -0.00753270 </v>
   <v>       0.00434901       0.00307521       0.00753270 </v>
   <v>       0.17441562       0.12333047       0.00000000 </v>
   <v>       0.04166617      -0.00677504       0.00000000 </v>
   <v>       0.08720781      -0.12333047       0.15104836 </v>
   <v>       0.08720781      -0.12333047      -0.15104836 </v>
   <v>      -0.01333193      -0.01738328      -0.03608396 </v>
   <v>      -0.01333193      -0.01738328       0.03608396 </v>
   <v>      -0.00000000      -0.00787549       0.00000000 </v>
   <v>       0.00750116       0.04154159       0.00000000 </v>
   <v>      -0.08720781       0.12333047       0.15104836 </v>
   <v>      -0.08720781       0.12333047      -0.15104836 </v>
   <v>       0.00371254       0.00262516      -0.00643031 </v>
   <v>      -0.17441562      -0.12333047       0.00000000 </v>
   <v>       0.00371254       0.00262516       0.00643031 </v>
  </varray>
  <varray name="stress" >
   <v>      14.97053975       0.00000000      -0.00000000 </v>
   <v>       0.00000000      14.97053980      -0.00000000 </v>
   <v>       0.00000000       0.00000000      14.97053981 </v>
  </varray>
  <energy>
   <i name="e_fr_energy">   -292.51984012 </i>
   <i name="e_wo_entrp">   -292.51167584 </i>
   <i name="e_0_energy">     -0.01632857 </i>
  </energy>
  <time name="totalsc">   21.37   22.25</time>
 </calculation>
 <calculation>
  <scstep>
   <time name="dav">    5.43    5.49</time>
   <time name="total">    6.29    6.36</time>
   <energy>
    <i name="alphaZ">     93.56316191 </i>
    <i name="ewald">  -6229.69631433 </i>
    <i name="hartreedc">   -414.82284159 </i>
    <i name="XCdc">   -472.68899810 </i>
    <i name="pawpsdc">  23370.50280459 </i>
    <i name="pawaedc"> -22435.78478997 </i>
    <i name="eentropy">     -0.01636028 </i>
    <i name="bandstr">    157.83496988 </i>
    <i name="atom">   5638.56506835 </i>
    <i name="e_fr_energy">   -292.54329954 </i>
    <i name="e_wo_entrp">   -292.52693926 </i>
    <i name="e_0_energy">   -292.53511940 </i>
   </energy>
  </scstep>
  <scstep>
   <time name="dav">    4.87    4.93</time>
   <time name="total">    5.72    5.79</time>
   <energy>
    <i name="e_fr_energy">   -292.54614961 </i>
    <i name="e_wo_entrp">   -292.52976687 </i>
    <i name="e_0_energy">   -292.53795824 </i>
   </energy>
  </scstep>
  <scstep>
   <time name="dav">    4.36    4.40</time>
   <time name="total">    4.87    4.91</time>
   <energy>
    <i name="e_fr_energy">   -292.54578591 </i>
    <i name="e_wo_entrp">   -292.52939667 </i>
    <i name="e_0_energy">   -292.53759129 </i>
   </energy>
  </scstep>
  <scstep>
   <time name="dav">    4.74    4.79</time>
   <time name="total">    5.13    5.18</time>
   <energy>
    <i name="e_fr_energy">   -292.54565050 </i>
    <i name="e_wo_entrp">   -292.52925955 </i>
    <i name="e_0_energy">   -292.53745502 </i>
   </energy>
  </scstep>
  <scstep>
   <time name="dav">    4.02    4.06</time>
   <time name="total">    4.89    4.94</time>
   <energy>
    <i name="e_fr_energy">   -292.54565578 </i>
    <i name="e_wo_entrp">   -292.52926602 </i>
    <i name="e_0_energy">   -292.53746090 </i>
   </energy>
  </scstep>
  <scstep>
   <time name="dav">    5.52    5.59</time>
   <time name="total">    5.95    6.02</time>
   <energy>
    <i name="alphaZ">     93.56316191 </i>
    <i name="ewald">  -6229.69631433 </i>
    <i name="hartreedc">   -414.83705460 </i>
    <i name="XCdc">   -472.68939187 </i>
    <i name="pawpsdc">  23371.52304225 </i>
    <i name="pawaedc"> -22436.80514825 </i>
    <i name="eentropy">     -0.01638923 </i>
    <i name="bandstr">    157.84736962 </i>
    <i name="atom">   5638.56506835 </i>
    <i name="e_fr_energy">   -292.54565614 </i>
    <i name="e_wo_entrp">   -292.52926691 </i>
    <i name="e_0_energy">   -292.53746153 </i>
   </energy>
  </scstep>
  <structure>
   <crystal>
    <varray name="basis" >
     <v>       9.97646553       0.00000000       5.75991507 </v>
     <v>       3.32548851       9.40590192       5.75991507 </v>
     <v>       0.00000000       0.00000000      11.51983014 </v>
    </varray>
    <i name="volume">   1080.99386112 </i>
    <varray name="rec_basis" >
     <v>       0.10023590      -0.03543874       0.00000000 </v>
     <v>       0.00000000       0.10631623       0.00000000 </v>
     <v>      -0.05011795      -0.03543874       0.08680684 </v>
    </varray>
   </crystal>
   <varray name="positions" >
    <v>       0.29166667       0.29166667       0.29166667 </v>
    <v>       0.29099221       0.29099221       0.62542785 </v>
    <v>       0.29099221       0.29099221       0.95925440 </v>
    <v>       0.29099221       0.62542785       0.29099221 </v>
    <v>       0.29148504       0.62506054       0.62506054 </v>
    <v>       0.29099221       0.62542785       0.95925440 </v>
    <v>       0.29099221       0.95925440       0.29099221 </v>
    <v>       0.29099221       0.95925440       0.62542785 </v>
    <v>       0.29144639       0.95840676       0.95840676 </v>
    <v>       0.62542785       0.29099221       0.29099221 </v>
    <v>       0.62506054       0.29148504       0.62506054 </v>
    <v>       0.62542785       0.29099221       0.95925440 </v>
    <v>       0.62506054       0.62506054       0.29148504 </v>
    <v>       0.62506054       0.62506054       0.62506054 </v>
    <v>       0.62500819       0.62500819       0.95832514 </v>
    <v>       0.62542785       0.95925440       0.29099221 </v>
    <v>       0.62500819       0.95832514       0.62500819 </v>
    <v>       0.62500819       0.95832514       0.95832514 </v>
    <v>       0.95925440       0.29099221       0.29099221 </v>
    <v>       0.95925440       0.29099221       0.62542785 </v>
    <v>       0.95840676       0.29144639       0.95840676 </v>
    <v>       0.95925440       0.62542785       0.29099221 </v>
    <v>       0.95832514       0.62500819       0.62500819 </v>
    <v>       0.95832514       0.62500819       0.95832514 </v>
    <v>       0.95840676       0.95840676       0.29144639 </v>
    <v>       0.95832514       0.95832514       0.62500819 </v>
    <v>       0.95840676       0.95840676       0.95840676 </v>
    <v>       0.04166667       0.04166667       0.04166667 </v>
    <v>       0.04157751       0.04157751       0.37521307 </v>
    <v>       0.04157751       0.04157751       0.70829858 </v>
    <v>       0.04157751       0.37521307       0.04157751 </v>
    <v>       0.04161935       0.37501577       0.37501577 </v>
    <v>       0.04157751       0.37521307       0.70829858 </v>
    <v>       0.04157751       0.70829858       0.04157751 </v>
    <v>       0.04157751       0.70829858       0.37521307 </v>
    <v>       0.04162627       0.70834680       0.70834680 </v>
    <v>       0.37521307       0.04157751       0.04157751 </v>
    <v>       0.37501577       0.04161935       0.37501577 </v>
    <v>       0.37521307       0.04157751       0.70829858 </v>
    <v>       0.37501577       0.37501577       0.04161935 </v>
    <v>       0.37501577       0.37501577       0.37501577 </v>
    <v>       0.37563256       0.37563256       0.70770077 </v>
    <v>       0.37521307       0.70829858       0.04157751 </v>
    <v>       0.37563256       0.70770077       0.37563256 </v>
    <v>       0.37563256       0.70770077       0.70770077 </v>
    <v>       0.70829858       0.04157751       0.04157751 </v>
    <v>       0.70829858       0.04157751       0.37521307 </v>
    <v>       0.70834680       0.04162627       0.70834680 </v>
    <v>       0.70829858       0.37521307       0.04157751 </v>
    <v>       0.70770077       0.37563256       0.37563256 </v>
    <v>       0.70770077       0.37563256       0.70770077 </v>
    <v>       0.70834680       0.70834680       0.04162627 </v>
    <v>       0.70770077       0.70770077       0.37563256 </v>
    <v>       0.70834680       0.70834680       0.70834680 </v>
   </varray>
  </structure>
  <varray name="forces" >
   <v>       0.00000000       0.00000000      -0.00000000 </v>
   <v>      -0.03263172      -0.02307411       0.01794730 </v>
   <v>      -0.03263172      -0.02307411      -0.01794730 </v>
   <v>      -0.01113492       0.03772802      -0.01928625 </v>
   <v>      -0.03046391       0.01077062      -0.00000000 </v>
   <v>      -0.01113492       0.03772802       0.01928625 </v>
   <v>      -0.02149680       0.00842020      -0.03723355 </v>
   <v>      -0.02149680       0.00842020       0.03723355 </v>
   <v>      -0.00140349       0.00049621      -0.00000000 </v>
   <v>       0.03185868      -0.02307411      -0.01928625 </v>
   <v>       0.00000000      -0.03231185      -0.00000000 </v>
   <v>       0.03185868      -0.02307411       0.01928625 </v>
   <v>       0.01523195       0.01077062      -0.02638252 </v>
   <v>       0.01523195       0.01077062       0.02638252 </v>
   <v>       0.00974503       0.00689078      -0.00000000 </v>
   <v>       0.04299360       0.00842020       0.00000000 </v>
   <v>       0.00487252      -0.00689078       0.00843944 </v>
   <v>       0.00487252      -0.00689078      -0.00843944 </v>
   <v>       0.00077304      -0.02307411      -0.03723355 </v>
   <v>       0.00077304      -0.02307411       0.03723355 </v>
   <v>       0.00000000      -0.00148863      -0.00000000 </v>
   <v>       0.02226984       0.03772802       0.00000000 </v>
   <v>      -0.00487252       0.00689078       0.00843944 </v>
   <v>      -0.00487252       0.00689078      -0.00843944 </v>
   <v>       0.00070175       0.00049621      -0.00121546 </v>
   <v>      -0.00974503      -0.00689078      -0.00000000 </v>
   <v>       0.00070175       0.00049621       0.00121546 </v>
   <v>       0.00000000       0.00000000      -0.00000000 </v>
   <v>      -0.04514920      -0.03192531      -0.01095004 </v>
   <v>      -0.04514920      -0.03192531       0.01095004 </v>
   <v>      -0.02573560       0.02298464      -0.04457537 </v>
   <v>       0.01928865      -0.00681957      -0.00000000 </v>
   <v>      -0.02573560       0.02298464       0.04457537 </v>
   <v>      -0.01941360       0.04086597      -0.03362534 </v>
   <v>      -0.01941360       0.04086597       0.03362534 </v>
   <v>      -0.01181304       0.00417654      -0.00000000 </v>
   <v>       0.01309159      -0.03192531      -0.04457537 </v>
   <v>       0.00000000       0.02045870      -0.00000000 </v>
   <v>       0.01309159      -0.03192531       0.04457537 </v>
   <v>      -0.00964433      -0.00681957       0.01670446 </v>
   <v>      -0.00964433      -0.00681957      -0.01670446 </v>
   <v>      -0.01292678      -0.00914062      -0.00000000 </v>
   <v>       0.03882720       0.04086597      -0.00000000 </v>
   <v>      -0.00646339       0.00914062      -0.01119492 </v>
   <v>      -0.00646339       0.00914062       0.01119492 </v>
   <v>       0.03205761      -0.03192531      -0.03362534 </v>
   <v>       0.03205761      -0.03192531       0.03362534 </v>
   <v>       0.00000000      -0.01252962      -0.00000000 </v>
   <v>       0.05147121       0.02298464      -0.00000000 </v>
   <v>       0.00646339      -0.00914062      -0.01119492 </v>
   <v>       0.00646339      -0.00914062       0.01119492 </v>
   <v>       0.00590652       0.00417654      -0.01023040 </v>
   <v>       0.01292678       0.00914062      -0.00000000 </v>
   <v>       0.00590652       0.00417654       0.01023040 </v>
  </varray>
  <varray name="stress" >
   <v>      14.95161132       0.00000000       0.00000000 </v>
   <v>      -0.00000000      14.95161136      -0.00000000 </v>
   <v>      -0.00000000      -0.00000000      14.95161137 </v>
  </varray>
  <energy>
   <i name="e_fr_energy">   -292.54565614 </i>
   <i name="e_wo_entrp">   -292.53746153 </i>
   <i name="e_0_energy">     -0.01638923 </i>
  </energy>
  <time name="totalsc">   41.60   42.05</time>
 </calculation>
 <calculation>
  <scstep>
   <time name="dav">    3.75    3.78</time>
   <time name="total">    5.33    5.39</time>
   <energy>
    <i name="alphaZ">     93.56316191 </i>
    <i name="ewald">  -6229.67570496 </i>
    <i name="hartreedc">   -414.85321581 </i>
    <i name="XCdc">   -472.68935733 </i>
    <i name="pawpsdc">  23371.12764392 </i>
    <i name="pawaedc"> -22436.40979685 </i>
    <i name="eentropy">     -0.01638671 </i>
    <i name="bandstr">    157.84270122 </i>
    <i name="atom">   5638.56506835 </i>
    <i name="e_fr_energy">   -292.54588626 </i>
    <i name="e_wo_entrp">   -292.52949955 </i>
    <i name="e_0_energy">   -292.53769291 </i>
   </energy>
  </scstep>
  <scstep>
   <time name="dav">    4.20    4.23</time>
   <time name="total">    4.70    4.74</time>
   <energy>
    <i name="e_fr_energy">   -292.54592675 </i>
    <i name="e_wo_entrp">   -292.52953867 </i>
    <i name="e_0_energy">   -292.53773271 </i>
   </energy>
  </scstep>
  <scstep>
   <time name="dav">    3.12    3.15</time>
   <time name="total">    3.22    3.25</time>
   <energy>
    <i name="alphaZ">     93.56316191 </i>
    <i name="ewald">  -6229.67570496 </i>
    <i name="hartreedc">   -414.85672222 </i>
    <i name="XCdc">   -472.68928755 </i>
    <i name="pawpsdc">  23371.18476892 </i>
    <i name="pawaedc"> -22436.46701761 </i>
    <i name="eentropy">     -0.01638868 </i>
    <i name="bandstr">    157.84619811 </i>
    <i name="atom">   5638.56506835 </i>
    <i name="e_fr_energy">   -292.54592373 </i>
    <i name="e_wo_entrp">   -292.52953505 </i>
    <i name="e_0_energy">   -292.53772939 </i>
   </energy>
  </scstep>
  <structure>
   <crystal>
    <varray name="basis" >
     <v>       9.97646553       0.00000000       5.75991507 </v>
     <v>       3.32548851       9.40590192       5.75991507 </v>
     <v>       0.00000000       0.00000000      11.51983014 </v>
    </varray>
    <i name="volume">   1080.99386112 </i>
    <varray name="rec_basis" >
     <v>       0.10023590      -0.03543874       0.00000000 </v>
     <v>       0.00000000       0.10631623       0.00000000 </v>
     <v>      -0.05011795      -0.03543874       0.08680684 </v>
    </varray>
   </crystal>
   <varray name="positions" >
    <v>       0.29166667       0.29166667       0.29166667 </v>
    <v>       0.29091745       0.29091745       0.62547527 </v>
    <v>       0.29091745       0.29091745       0.95935649 </v>
    <v>       0.29091745       0.62547527       0.29091745 </v>
    <v>       0.29146490       0.62506725       0.62506725 </v>
    <v>       0.29091745       0.62547527       0.95935649 </v>
    <v>       0.29091745       0.95935649       0.29091745 </v>
    <v>       0.29091745       0.95935649       0.62547527 </v>
    <v>       0.29142198       0.95841490       0.95841490 </v>
    <v>       0.62547527       0.29091745       0.29091745 </v>
    <v>       0.62506725       0.29146490       0.62506725 </v>
    <v>       0.62547527       0.29091745       0.95935649 </v>
    <v>       0.62506725       0.62506725       0.29146490 </v>
    <v>       0.62506725       0.62506725       0.62506725 </v>
    <v>       0.62500910       0.62500910       0.95832423 </v>
    <v>       0.62547527       0.95935649       0.29091745 </v>
    <v>       0.62500910       0.95832423       0.62500910 </v>
    <v>       0.62500910       0.95832423       0.95832423 </v>
    <v>       0.95935649       0.29091745       0.29091745 </v>
    <v>       0.95935649       0.29091745       0.62547527 </v>
    <v>       0.95841490       0.29142198       0.95841490 </v>
    <v>       0.95935649       0.62547527       0.29091745 </v>
    <v>       0.95832423       0.62500910       0.62500910 </v>
    <v>       0.95832423       0.62500910       0.95832423 </v>
    <v>       0.95841490       0.95841490       0.29142198 </v>
    <v>       0.95832423       0.95832423       0.62500910 </v>
    <v>       0.95841490       0.95841490       0.95841490 </v>
    <v>       0.04166667       0.04166667       0.04166667 </v>
    <v>       0.04156763       0.04156763       0.37523668 </v>
    <v>       0.04156763       0.04156763       0.70829473 </v>
    <v>       0.04156763       0.37523668       0.04156763 </v>
    <v>       0.04161410       0.37501752       0.37501752 </v>
    <v>       0.04156763       0.37523668       0.70829473 </v>
    <v>       0.04156763       0.70829473       0.04156763 </v>
    <v>       0.04156763       0.70829473       0.37523668 </v>
    <v>       0.04162180       0.70834829       0.70834829 </v>
    <v>       0.37523668       0.04156763       0.04156763 </v>
    <v>       0.37501752       0.04161410       0.37501752 </v>
    <v>       0.37523668       0.04156763       0.70829473 </v>
    <v>       0.37501752       0.37501752       0.04161410 </v>
    <v>       0.37501752       0.37501752       0.37501752 </v>
    <v>       0.37570267       0.37570267       0.70763066 </v>
    <v>       0.37523668       0.70829473       0.04156763 </v>
    <v>       0.37570267       0.70763066       0.37570267 </v>
    <v>       0.37570267       0.70763066       0.70763066 </v>
    <v>       0.70829473       0.04156763       0.04156763 </v>
    <v>       0.70829473       0.04156763       0.37523668 </v>
    <v>       0.70834829       0.04162180       0.70834829 </v>
    <v>       0.70829473       0.37523668       0.04156763 </v>
    <v>       0.70763066       0.37570267       0.37570267 </v>
    <v>       0.70763066       0.37570267       0.70763066 </v>
    <v>       0.70834829       0.70834829       0.04162180 </v>
    <v>       0.70763066       0.70763066       0.37570267 </v>
    <v>       0.70834829       0.70834829       0.70834829 </v>
   </varray>
  </structure>
  <varray name="forces" >
   <v>      -0.00000000      -0.00000000       0.00000000 </v>
   <v>      -0.01619580      -0.01145216       0.02584800 </v>
   <v>      -0.01619580      -0.01145216      -0.02584800 </v>
   <v>      -0.00063622       0.03255696      -0.00110197 </v>
   <v>      -0.02948257       0.01042366       0.00000000 </v>
   <v>      -0.00063622       0.03255696       0.00110197 </v>
   <v>      -0.01555957      -0.00965264      -0.02694997 </v>
   <v>      -0.01555957      -0.00965264       0.02694997 </v>
   <v>       0.00314759      -0.00111284       0.00000000 </v>
   <v>       0.03048292      -0.01145216      -0.00110197 </v>
   <v>      -0.00000000      -0.03127099       0.00000000 </v>
   <v>       0.03048292      -0.01145216       0.00110197 </v>
   <v>       0.01474129       0.01042366      -0.02553266 </v>
   <v>       0.01474129       0.01042366       0.02553266 </v>
   <v>       0.01054271       0.00745482       0.00000000 </v>
   <v>       0.03111914      -0.00965264      -0.00000000 </v>
   <v>       0.00527135      -0.00745482       0.00913025 </v>
   <v>       0.00527135      -0.00745482      -0.00913025 </v>
   <v>      -0.01428712      -0.01145216      -0.02694997 </v>
   <v>      -0.01428712      -0.01145216       0.02694997 </v>
   <v>      -0.00000000       0.00333852       0.00000000 </v>
   <v>       0.00127245       0.03255696       0.00000000 </v>
   <v>      -0.00527135       0.00745482       0.00913025 </v>
   <v>      -0.00527135       0.00745482      -0.00913025 </v>
   <v>      -0.00157379      -0.00111284       0.00272589 </v>
   <v>      -0.01054271      -0.00745482       0.00000000 </v>
   <v>      -0.00157379      -0.00111284      -0.00272589 </v>
   <v>      -0.00000000      -0.00000000       0.00000000 </v>
   <v>      -0.04740862      -0.03352295      -0.01570551 </v>
   <v>      -0.04740862      -0.03352295       0.01570551 </v>
   <v>      -0.02823810       0.02069946      -0.04890982 </v>
   <v>       0.02297718      -0.00812366      -0.00000000 </v>
   <v>      -0.02823810       0.02069946       0.04890982 </v>
   <v>      -0.01917052       0.04634645      -0.03320431 </v>
   <v>      -0.01917052       0.04634645       0.03320431 </v>
   <v>      -0.01247776       0.00441155       0.00000000 </v>
   <v>       0.01010294      -0.03352295      -0.04890982 </v>
   <v>      -0.00000000       0.02437098      -0.00000000 </v>
   <v>       0.01010294      -0.03352295       0.04890982 </v>
   <v>      -0.01148859      -0.00812366       0.01989882 </v>
   <v>      -0.01148859      -0.00812366      -0.01989882 </v>
   <v>      -0.03279384      -0.02318874       0.00000000 </v>
   <v>       0.03834104       0.04634645       0.00000000 </v>
   <v>      -0.01639692       0.02318874      -0.02840029 </v>
   <v>      -0.01639692       0.02318874       0.02840029 </v>
   <v>       0.03730568      -0.03352295      -0.03320431 </v>
   <v>       0.03730568      -0.03352295       0.03320431 </v>
   <v>      -0.00000000      -0.01323466       0.00000000 </v>
   <v>       0.05647620       0.02069946       0.00000000 </v>
   <v>       0.01639692      -0.02318874      -0.02840029 </v>
   <v>       0.01639692      -0.02318874       0.02840029 </v>
   <v>       0.00623888       0.00441155      -0.01080605 </v>
   <v>       0.03279384       0.02318874       0.00000000 </v>
   <v>       0.00623888       0.00441155       0.01080605 </v>
  </varray>
  <varray name="stress" >
   <v>      14.95756965       0.00000000       0.00000000 </v>
   <v>       0.00000000      14.95756969       0.00000000 </v>
   <v>       0.00000000       0.00000000      14.95756970 </v>
  </varray>
  <energy>
   <i name="e_fr_energy">   -292.54592373 </i>
   <i name="e_wo_entrp">   -292.53772939 </i>
   <i name="e_0_energy">     -0.01638868 </i>
  </energy>
  <time name="totalsc">   21.87   22.08</time>
 </calculation>
 <calculation>
  <scstep>
   <time name="dav">    3.61    3.64</time>
   <time name="total">    3.87    3.91</time>
   <energy>
    <i name="alphaZ">     93.56316191 </i>
    <i name="ewald">  -6229.73784941 </i>
    <i name="hartreedc">   -414.80230844 </i>
    <i name="XCdc">   -472.68943308 </i>
    <i name="pawpsdc">  23370.96301587 </i>
    <i name="pawaedc"> -22436.24535177 </i>
    <i name="eentropy">     -0.01638594 </i>
    <i name="bandstr">    157.85166783 </i>
    <i name="atom">   5638.56506835 </i>
    <i name="e_fr_energy">   -292.54841468 </i>
    <i name="e_wo_entrp">   -292.53202873 </i>
    <i name="e_0_energy">   -292.54022171 </i>
   </energy>
  </scstep>
  <scstep>
   <time name="dav">    4.60    4.64</time>
   <time name="total">    5.42    5.48</time>
   <energy>
    <i name="e_fr_energy">   -292.54868165 </i>
    <i name="e_wo_entrp">   -292.53229292 </i>
    <i name="e_0_energy">   -292.54048728 </i>
   </energy>
  </scstep>
  <scstep>
   <time name="dav">    4.68    4.73</time>
   <time name="total">    5.69    5.75</time>
   <energy>
    <i name="e_fr_energy">   -292.54863858 </i>
    <i name="e_wo_entrp">   -292.53224738 </i>
    <i name="e_0_energy">   -292.54044298 </i>
   </energy>
  </scstep>
  <scstep>
   <time name="dav">    4.65    4.70</time>
   <time name="total">    5.66    5.72</time>
   <energy>
    <i name="e_fr_energy">   -292.54861877 </i>
    <i name="e_wo_entrp">   -292.53222576 </i>
    <i name="e_0_energy">   -292.54042227 </i>
   </energy>
  </scstep>
  <scstep>
   <time name="dav">    3.57    3.60</time>
   <time name="total">    3.66    3.70</time>
   <energy>
    <i name="alphaZ">     93.56316191 </i>
    <i name="ewald">  -6229.73784941 </i>
    <i name="hartreedc">   -414.79689026 </i>
    <i name="XCdc">   -472.69015661 </i>
    <i name="pawpsdc">  23370.02274534 </i>
    <i name="pawaedc"> -22435.30443875 </i>
    <i name="eentropy">     -0.01639165 </i>
    <i name="bandstr">    157.84613295 </i>
    <i name="atom">   5638.56506835 </i>
    <i name="e_fr_energy">   -292.54861812 </i>
    <i name="e_wo_entrp">   -292.53222647 </i>
    <i name="e_0_energy">   -292.54042230 </i>
   </energy>
  </scstep>
  <structure>
   <crystal>
    <varray name="basis" >
     <v>       9.97646553       0.00000000       5.75991507 </v>
     <v>       3.32548851       9.40590192       5.75991507 </v>
     <v>       0.00000000       0.00000000      11.51983014 </v>
    </varray>
    <i name="volume">   1080.99386112 </i>
    <varray name="rec_basis" >
     <v>       0.10023590      -0.03543874       0.00000000 </v>
     <v>       0.00000000       0.10631623       0.00000000 </v>
     <v>      -0.05011795      -0.03543874       0.08680684 </v>
    </varray>
   </crystal>
   <varray name="positions" >
    <v>       0.29166667       0.29166667       0.29166667 </v>
    <v>       0.29080749       0.29080749       0.62567763 </v>
    <v>       0.29080749       0.29080749       0.95937405 </v>
    <v>       0.29080749       0.62567763       0.29080749 </v>
    <v>       0.29128752       0.62512638       0.62512638 </v>
    <v>       0.29080749       0.62567763       0.95937405 </v>
    <v>       0.29080749       0.95937405       0.29080749 </v>
    <v>       0.29080749       0.95937405       0.62567763 </v>
    <v>       0.29142318       0.95841450       0.95841450 </v>
    <v>       0.62567763       0.29080749       0.29080749 </v>
    <v>       0.62512638       0.29128752       0.62512638 </v>
    <v>       0.62567763       0.29080749       0.95937405 </v>
    <v>       0.62512638       0.62512638       0.29128752 </v>
    <v>       0.62512638       0.62512638       0.62512638 </v>
    <v>       0.62504879       0.62504879       0.95828454 </v>
    <v>       0.62567763       0.95937405       0.29080749 </v>
    <v>       0.62504879       0.95828454       0.62504879 </v>
    <v>       0.62504879       0.95828454       0.95828454 </v>
    <v>       0.95937405       0.29080749       0.29080749 </v>
    <v>       0.95937405       0.29080749       0.62567763 </v>
    <v>       0.95841450       0.29142318       0.95841450 </v>
    <v>       0.95937405       0.62567763       0.29080749 </v>
    <v>       0.95828454       0.62504879       0.62504879 </v>
    <v>       0.95828454       0.62504879       0.95828454 </v>
    <v>       0.95841450       0.95841450       0.29142318 </v>
    <v>       0.95828454       0.95828454       0.62504879 </v>
    <v>       0.95841450       0.95841450       0.95841450 </v>
    <v>       0.04166667       0.04166667       0.04166667 </v>
    <v>       0.04138528       0.04138528       0.37536097 </v>
    <v>       0.04138528       0.04138528       0.70853514 </v>
    <v>       0.04138528       0.37536097       0.04138528 </v>
    <v>       0.04173837       0.37497610       0.37497610 </v>
    <v>       0.04138528       0.37536097       0.70853514 </v>
    <v>       0.04138528       0.70853514       0.04138528 </v>
    <v>       0.04138528       0.70853514       0.37536097 </v>
    <v>       0.04154942       0.70837242       0.70837242 </v>
    <v>       0.37536097       0.04138528       0.04138528 </v>
    <v>       0.37497610       0.04173837       0.37497610 </v>
    <v>       0.37536097       0.04138528       0.70853514 </v>
    <v>       0.37497610       0.37497610       0.04173837 </v>
    <v>       0.37497610       0.37497610       0.37497610 </v>
    <v>       0.37562792       0.37562792       0.70770541 </v>
    <v>       0.37536097       0.70853514       0.04138528 </v>
    <v>       0.37562792       0.70770541       0.37562792 </v>
    <v>       0.37562792       0.70770541       0.70770541 </v>
    <v>       0.70853514       0.04138528       0.04138528 </v>
    <v>       0.70853514       0.04138528       0.37536097 </v>
    <v>       0.70837242       0.04154942       0.70837242 </v>
    <v>       0.70853514       0.37536097       0.04138528 </v>
    <v>       0.70770541       0.37562792       0.37562792 </v>
    <v>       0.70770541       0.37562792       0.70770541 </v>
    <v>       0.70837242       0.70837242       0.04154942 </v>
    <v>       0.70770541       0.70770541       0.37562792 </v>
    <v>       0.70837242       0.70837242       0.70837242 </v>
   </varray>
  </structure>
  <varray name="forces" >
   <v>      -0.00000000       0.00000000      -0.00000000 </v>
   <v>      -0.00937919      -0.00663209       0.01149331 </v>
   <v>      -0.00937919      -0.00663209      -0.01149331 </v>
   <v>      -0.00137176       0.01601634      -0.00237597 </v>
   <v>      -0.00768969       0.00271872      -0.00000000 </v>
   <v>      -0.00137176       0.01601634       0.00237597 </v>
   <v>      -0.00800743      -0.00275215      -0.01386927 </v>
   <v>      -0.00800743      -0.00275215       0.01386927 </v>
   <v>      -0.00474381       0.00167719      -0.00000000 </v>
   <v>       0.01464309      -0.00663209      -0.00237597 </v>
   <v>      -0.00000000      -0.00815615      -0.00000000 </v>
   <v>       0.01464309      -0.00663209       0.00237597 </v>
   <v>       0.00384484       0.00271872      -0.00665947 </v>
   <v>       0.00384484       0.00271872       0.00665947 </v>
   <v>       0.01396367       0.00987381       0.00000000 </v>
   <v>       0.01601486      -0.00275215      -0.00000000 </v>
   <v>       0.00698184      -0.00987381       0.01209289 </v>
   <v>       0.00698184      -0.00987381      -0.01209289 </v>
   <v>      -0.00526390      -0.00663209      -0.01386927 </v>
   <v>      -0.00526390      -0.00663209       0.01386927 </v>
   <v>      -0.00000000      -0.00503157      -0.00000000 </v>
   <v>       0.00274353       0.01601634      -0.00000000 </v>
   <v>      -0.00698184       0.00987381       0.01209289 </v>
   <v>      -0.00698184       0.00987381      -0.01209289 </v>
   <v>       0.00237191       0.00167719      -0.00410826 </v>
   <v>      -0.01396367      -0.00987381       0.00000000 </v>
   <v>       0.00237191       0.00167719       0.00410826 </v>
   <v>      -0.00000000       0.00000000      -0.00000000 </v>
   <v>      -0.02066062      -0.01460927      -0.00801975 </v>
   <v>      -0.02066062      -0.01460927       0.00801975 </v>
   <v>      -0.01264541       0.00806117      -0.02190250 </v>
   <v>       0.00361590      -0.00127841      -0.00000000 </v>
   <v>      -0.01264541       0.00806117       0.02190250 </v>
   <v>      -0.00801521       0.02115736      -0.01388275 </v>
   <v>      -0.00801521       0.02115736       0.01388275 </v>
   <v>      -0.01243530       0.00439654       0.00000000 </v>
   <v>       0.00338501      -0.01460927      -0.02190250 </v>
   <v>      -0.00000000       0.00383524      -0.00000000 </v>
   <v>       0.00338501      -0.01460927       0.02190250 </v>
   <v>      -0.00180795      -0.00127841       0.00313146 </v>
   <v>      -0.00180795      -0.00127841      -0.00313146 </v>
   <v>      -0.01956992      -0.01383802      -0.00000000 </v>
   <v>       0.01603042       0.02115736      -0.00000000 </v>
   <v>      -0.00978496       0.01383802      -0.01694804 </v>
   <v>      -0.00978496       0.01383802       0.01694804 </v>
   <v>       0.01727562      -0.01460927      -0.01388275 </v>
   <v>       0.01727562      -0.01460927       0.01388275 </v>
   <v>       0.00000000      -0.01318963       0.00000000 </v>
   <v>       0.02529083       0.00806117      -0.00000000 </v>
   <v>       0.00978496      -0.01383802      -0.01694804 </v>
   <v>       0.00978496      -0.01383802       0.01694804 </v>
   <v>       0.00621765       0.00439654      -0.01076929 </v>
   <v>       0.01956992       0.01383802       0.00000000 </v>
   <v>       0.00621765       0.00439654       0.01076929 </v>
  </varray>
  <varray name="stress" >
   <v>      14.92334138       0.00000000       0.00000000 </v>
   <v>       0.00000000      14.92334143      -0.00000000 </v>
   <v>      -0.00000000       0.00000000      14.92334144 </v>
  </varray>
  <energy>
   <i name="e_fr_energy">   -292.54861812 </i>
   <i name="e_wo_entrp">   -292.54042230 </i>
   <i name="e_0_energy">     -0.01639165 </i>
  </energy>
  <time name="totalsc">   33.58   34.94</time>
  <eigenvalues>
   <array>
    <dimension dim="1">band</dimension>
    <dimension dim="2">kpoint</dimension>
    <dimension dim="3">spin</dimension>
    <field>eigene</field>
    <field>occ</field>
    <set>
     <set comment="spin 1">
      <set comment="kpoint 1">
       <r>   -6.6699    1.0000 </r>
       <r>   -5.8308    1.0000 </r>
       <r>   -4.7793    1.0000 </r>
       <r>   -4.7793    1.0000 </r>
       <r>   -4.7793    1.0000 </r>
       <r>   -4.7425    1.0000 </r>
       <r>   -4.7425    1.0000 </r>
       <r>   -4.7425    1.0000 </r>
       <r>   -4.7295    1.0000 </r>
       <r>   -4.3976    1.0000 </r>
       <r>   -4.2463    1.0000 </r>
       <r>   -4.2463    1.0000 </r>
       <r>   -4.2463    1.0000 </r>
       <r>   -4.2114    1.0000 </r>
       <r>   -4.2114    1.0000 </r>
       <r>   -3.4325    1.0000 </r>
       <r>   -2.9567    1.0000 </r>
       <r>   -2.9567    1.0000 </r>
       <r>   -2.9567    1.0000 </r>
       <r>   -2.8735    1.0000 </r>
       <r>   -2.8735    1.0000 </r>
       <r>   -2.8735    1.0000 </r>
       <r>   -2.8340    1.0000 </r>
       <r>   -2.8340    1.0000 </r>
       <r>   -2.8317    1.0000 </r>
       <r>   -2.8317    1.0000 </r>
       <r>   -2.8317    1.0000 </r>
       <r>   -1.4272    1.0000 </r>
       <r>   -1.0744    1.0000 </r>
       <r>   -1.0744    1.0000 </r>
       <r>   -1.0744    1.0000 </r>
       <r>   -0.9372    1.0000 </r>
       <r>   -0.9372    1.0000 </r>
       <r>   -0.9372    1.0000 </r>
       <r>   -0.9365    1.0000 </r>
       <r>   -0.9365    1.0000 </r>
       <r>   -0.9172    1.0000 </r>
       <r>   -0.9172    1.0000 </r>
       <r>   -0.9172    1.0000 </r>
       <r>    0.2647    1.0000 </r>
       <r>    0.3446    1.0000 </r>
       <r>    0.3446    1.0000 </r>
       <r>    0.3446    1.0000 </r>
       <r>    0.4967    1.0000 </r>
       <r>    0.4967    1.0000 </r>
       <r>    0.4967    1.0000 </r>
       <r>    0.5134    1.0000 </r>
       <r>    0.7328    1.0000 </r>
       <r>    0.7722    1.0000 </r>
       <r>    0.7722    1.0000 </r>
       <r>    0.7722    1.0000 </r>
       <r>    0.8134    1.0000 </r>
       <r>    0.8134    1.0000 </r>
       <r>    1.2033    1.0000 </r>
       <r>    1.2033    1.0000 </r>
       <r>    1.2033    1.0000 </r>
       <r>    1.3940    1.0000 </r>
       <r>    1.3940    1.0000 </r>
       <r>    1.4328    1.0000 </r>
       <r>    1.4368    1.0000 </r>
       <r>    1.4368    1.0000 </r>
       <r>    1.4368    1.0000 </r>
       <r>    1.4429    1.0000 </r>
       <r>    1.4429    1.0000 </r>
       <r>    1.4429    1.0000 </r>
       <r>    2.9949    1.0000 </r>
       <r>    2.9949    1.0000 </r>
       <r>    2.9949    1.0000 </r>
       <r>    3.3943    1.0000 </r>
       <r>    3.3943    1.0000 </r>
       <r>    3.3943    1.0000 </r>
       <r>    3.4143    1.0000 </r>
       <r>    3.4143    1.0000 </r>
       <r>    3.4143    1.0000 </r>
       <r>    3.4286    1.0000 </r>
       <r>    3.4286    1.0000 </r>
       <r>    3.4286    1.0000 </r>
       <r>    3.6223    1.0000 </r>
       <r>    3.6223    1.0000 </r>
       <r>    3.6223    1.0000 </r>
       <r>    3.6956    1.0000 </r>
       <r>    3.6956    1.0000 </r>
       <r>    3.6956    1.0000 </r>
       <r>    3.7165    1.0000 </r>
       <r>    3.7243    1.0000 </r>
       <r>    3.7243    1.0000 </r>
       <r>    3.7498    1.0000 </r>
       <r>    3.7498    1.0000 </r>
       <r>    3.7498    1.0000 </r>
       <r>    4.5843    1.0000 </r>
       <r>    4.5843    1.0000 </r>
       <r>    4.5843    1.0000 </r>
       <r>    4.8061    1.0000 </r>
       <r>    4.8061    1.0000 </r>
       <r>    4.8120    1.0000 </r>
       <r>    4.8120    1.0000 </r>
       <r>    4.8120    1.0000 </r>
       <r>    4.8421    1.0000 </r>
       <r>    4.8422    1.0000 </r>
       <r>    4.8422    1.0000 </r>
       <r>    4.8467    1.0000 </r>
       <r>    4.8467    1.0000 </r>
       <r>    4.8488    1.0000 </r>
       <r>    4.8488    1.0000 </r>
       <r>    4.8488    1.0000 </r>
       <r>    5.7864    1.0000 </r>
       <r>    5.7864    1.0000 </r>
       <r>    5.7864    1.0000 </r>
       <r>    6.2894    1.0000 </r>
       <r>    6.5027    0.8858 </r>
       <r>    6.5027    0.8858 </r>
       <r>    6.5027    0.8858 </r>
       <r>    6.5522    0.4232 </r>
       <r>    6.5522    0.4232 </r>
       <r>    6.9138    0.0000 </r>
       <r>    7.2902    0.0000 </r>
       <r>    7.2902    0.0000 </r>
       <r>    7.2902    0.0000 </r>
       <r>    7.3624    0.0000 </r>
       <r>    7.3624    0.0000 </r>
       <r>    7.3818    0.0000 </r>
       <r>    7.3818    0.0000 </r>
       <r>    7.3818    0.0000 </r>
       <r>    7.4178    0.0000 </r>
       <r>    7.4178    0.0000 </r>
       <r>    7.4178    0.0000 </r>
       <r>    7.4920    0.0000 </r>
       <r>    7.5689    0.0000 </r>
       <r>    7.5689    0.0000 </r>
       <r>    7.5689    0.0000 </r>
       <r>    7.6024    0.0000 </r>
       <r>    7.6096    0.0000 </r>
       <r>    7.6096    0.0000 </r>
       <r>    7.6096    0.0000 </r>
       <r>    7.7969    0.0000 </r>
       <r>    7.8039    0.0000 </r>
       <r>    7.8039    0.0000 </r>
       <r>    7.8039    0.0000 </r>
       <r>    7.8143    0.0000 </r>
       <r>    7.8143    0.0000 </r>
       <r>    8.3345    0.0000 </r>
       <r>    8.3345    0.0000 </r>
       <r>    8.3345    0.0000 </r>
       <r>    9.1156    0.0000 </r>
      </set>
      <set comment="kpoint 2">
       <r>   -6.6480    1.0000 </r>
       <r>   -5.8072    1.0000 </r>
       <r>   -5.2423    1.0000 </r>
       <r>   -4.8870    1.0000 </r>
       <r>   -4.8870    1.0000 </r>
       <r>   -4.7382    1.0000 </r>
       <r>   -4.6189    1.0000 </r>
       <r>   -4.6189    1.0000 </r>
       <r>   -4.5406    1.0000 </r>
       <r>   -4.4645    1.0000 </r>
       <r>   -4.4645    1.0000 </r>
       <r>   -4.2023    1.0000 </r>
       <r>   -3.8927    1.0000 </r>
       <r>   -3.6975    1.0000 </r>
       <r>   -3.6975    1.0000 </r>
       <r>   -3.6057    1.0000 </r>
       <r>   -3.4705    1.0000 </r>
       <r>   -3.4705    1.0000 </r>
       <r>   -3.1252    1.0000 </r>
       <r>   -2.9100    1.0000 </r>
       <r>   -2.9100    1.0000 </r>
       <r>   -2.8686    1.0000 </r>
       <r>   -2.8319    1.0000 </r>
       <r>   -2.8319    1.0000 </r>
       <r>   -2.6906    1.0000 </r>
       <r>   -2.5965    1.0000 </r>
       <r>   -2.5965    1.0000 </r>
       <r>   -1.5098    1.0000 </r>
       <r>   -1.2501    1.0000 </r>
       <r>   -1.2501    1.0000 </r>
       <r>   -1.1995    1.0000 </r>
       <r>   -1.0522    1.0000 </r>
       <r>   -1.0522    1.0000 </r>
       <r>   -0.9737    1.0000 </r>
       <r>   -0.9652    1.0000 </r>
       <r>   -0.9652    1.0000 </r>
       <r>   -0.6936    1.0000 </r>
       <r>   -0.5457    1.0000 </r>
       <r>   -0.5096    1.0000 </r>
       <r>   -0.5096    1.0000 </r>
       <r>   -0.1159    1.0000 </r>
       <r>   -0.0078    1.0000 </r>
       <r>   -0.0078    1.0000 </r>
       <r>    0.0833    1.0000 </r>
       <r>    0.0833    1.0000 </r>
       <r>    0.1032    1.0000 </r>
       <r>    0.8581    1.0000 </r>
       <r>    0.8796    1.0000 </r>
       <r>    0.8796    1.0000 </r>
       <r>    1.2651    1.0000 </r>
       <r>    1.2904    1.0000 </r>
       <r>    1.2904    1.0000 </r>
       <r>    1.4195    1.0000 </r>
       <r>    1.4562    1.0000 </r>
       <r>    1.4562    1.0000 </r>
       <r>    1.5907    1.0000 </r>
       <r>    1.5907    1.0000 </r>
       <r>    1.6152    1.0000 </r>
       <r>    1.6185    1.0000 </r>
       <r>    1.6291    1.0000 </r>
       <r>    1.6291    1.0000 </r>
       <r>    1.7377    1.0000 </r>
       <r>    1.8069    1.0000 </r>
       <r>    1.8069    1.0000 </r>
       <r>    1.8960    1.0000 </r>
       <r>    2.7037    1.0000 </r>
       <r>    2.8222    1.0000 </r>
       <r>    2.8222    1.0000 </r>
       <r>    3.0697    1.0000 </r>
       <r>    3.0697    1.0000 </r>
       <r>    3.1391    1.0000 </r>
       <r>    3.2672    1.0000 </r>
       <r>    3.3424    1.0000 </r>
       <r>    3.3424    1.0000 </r>
       <r>    3.4008    1.0000 </r>
       <r>    3.4008    1.0000 </r>
       <r>    3.4025    1.0000 </r>
       <r>    3.4344    1.0000 </r>
       <r>    3.4344    1.0000 </r>
       <r>    3.4379    1.0000 </r>
       <r>    3.4684    1.0000 </r>
       <r>    3.4804    1.0000 </r>
       <r>    3.4804    1.0000 </r>
       <r>    3.6398    1.0000 </r>
       <r>    3.6398    1.0000 </r>
       <r>    3.6958    1.0000 </r>
       <r>    3.8704    1.0000 </r>
       <r>    3.9703    1.0000 </r>
       <r>    3.9703    1.0000 </r>
       <r>    4.0440    1.0000 </r>
       <r>    4.0440    1.0000 </r>
       <r>    4.1125    1.0000 </r>
       <r>    4.4190    1.0000 </r>
       <r>    4.4190    1.0000 </r>
       <r>    4.4543    1.0000 </r>
       <r>    4.5138    1.0000 </r>
       <r>    4.5444    1.0000 </r>
       <r>    4.5444    1.0000 </r>
       <r>    4.6409    1.0000 </r>
       <r>    4.6409    1.0000 </r>
       <r>    4.7968    1.0000 </r>
       <r>    4.7968    1.0000 </r>
       <r>    4.8388    1.0000 </r>
       <r>    4.9381    1.0000 </r>
       <r>    5.0400    1.0000 </r>
       <r>    5.0400    1.0000 </r>
       <r>    5.6457    1.0000 </r>
       <r>    5.6457    1.0000 </r>
       <r>    6.5437    0.5183 </r>
       <r>    6.6792    0.0001 </r>
       <r>    6.6792    0.0001 </r>
       <r>    6.8117    0.0000 </r>
       <r>    6.9990    0.0000 </r>
       <r>    6.9990    0.0000 </r>
       <r>    7.0380    0.0000 </r>
       <r>    7.0747    0.0000 </r>
       <r>    7.0747    0.0000 </r>
       <r>    7.3080    0.0000 </r>
       <r>    7.5009    0.0000 </r>
       <r>    7.6608    0.0000 </r>
       <r>    7.6608    0.0000 </r>
       <r>    7.7268    0.0000 </r>
       <r>    7.8098    0.0000 </r>
       <r>    7.8098    0.0000 </r>
       <r>    7.8278    0.0000 </r>
       <r>    7.8766    0.0000 </r>
       <r>    7.9035    0.0000 </r>
       <r>    7.9035    0.0000 </r>
       <r>    7.9611    0.0000 </r>
       <r>    7.9611    0.0000 </r>
       <r>    7.9857    0.0000 </r>
       <r>    8.0099    0.0000 </r>
       <r>    8.0294    0.0000 </r>
       <r>    8.0294    0.0000 </r>
       <r>    8.0981    0.0000 </r>
       <r>    8.1219    0.0000 </r>
       <r>    8.1219    0.0000 </r>
       <r>    8.3772    0.0000 </r>
       <r>    8.5341    0.0000 </r>
       <r>    8.5341    0.0000 </r>
       <r>    8.5598    0.0000 </r>
       <r>    8.5991    0.0000 </r>
       <r>    8.5991    0.0000 </r>
       <r>    8.9601    0.0000 </r>
      </set>
      <set comment="kpoint 3">
       <r>   -6.6246    1.0000 </r>
       <r>   -5.7541    1.0000 </r>
       <r>   -5.4795    1.0000 </r>
       <r>   -4.8654    1.0000 </r>
       <r>   -4.8654    1.0000 </r>
       <r>   -4.8083    1.0000 </r>
       <r>   -4.8083    1.0000 </r>
       <r>   -4.8022    1.0000 </r>
       <r>   -4.4100    1.0000 </r>
       <r>   -4.0574    1.0000 </r>
       <r>   -4.0447    1.0000 </r>
       <r>   -4.0447    1.0000 </r>
       <r>   -4.0144    1.0000 </r>
       <r>   -4.0144    1.0000 </r>
       <r>   -3.8306    1.0000 </r>
       <r>   -3.4124    1.0000 </r>
       <r>   -3.1074    1.0000 </r>
       <r>   -3.0940    1.0000 </r>
       <r>   -3.0940    1.0000 </r>
       <r>   -3.0503    1.0000 </r>
       <r>   -3.0503    1.0000 </r>
       <r>   -2.9638    1.0000 </r>
       <r>   -2.8943    1.0000 </r>
       <r>   -2.8943    1.0000 </r>
       <r>   -2.8637    1.0000 </r>
       <r>   -2.8262    1.0000 </r>
       <r>   -2.8262    1.0000 </r>
       <r>   -1.4487    1.0000 </r>
       <r>   -1.2077    1.0000 </r>
       <r>   -1.1070    1.0000 </r>
       <r>   -1.1070    1.0000 </r>
       <r>   -1.0085    1.0000 </r>
       <r>   -1.0041    1.0000 </r>
[...]
        <r>  0.0000  0.0045  0.0000 </r>
       </set>
       <set comment="band 138">
        <r>  0.0000  0.0004  0.0000 </r>
        <r>  0.0011  0.0018  0.0000 </r>
        <r>  0.0011  0.0018  0.0000 </r>
        <r>  0.0014  0.0011  0.0000 </r>
        <r>  0.0024  0.0033  0.0000 </r>
        <r>  0.0011  0.0018  0.0000 </r>
        <r>  0.0014  0.0011  0.0000 </r>
        <r>  0.0011  0.0018  0.0000 </r>
        <r>  0.0001  0.0025  0.0000 </r>
        <r>  0.0011  0.0018  0.0000 </r>
        <r>  0.0024  0.0033  0.0000 </r>
        <r>  0.0014  0.0011  0.0000 </r>
        <r>  0.0024  0.0033  0.0000 </r>
        <r>  0.0024  0.0033  0.0000 </r>
        <r>  0.0003  0.0053  0.0000 </r>
        <r>  0.0011  0.0018  0.0000 </r>
        <r>  0.0000  0.0046  0.0000 </r>
        <r>  0.0003  0.0053  0.0000 </r>
        <r>  0.0011  0.0018  0.0000 </r>
        <r>  0.0014  0.0011  0.0000 </r>
        <r>  0.0001  0.0025  0.0000 </r>
        <r>  0.0011  0.0018  0.0000 </r>
        <r>  0.0003  0.0053  0.0000 </r>
        <r>  0.0000  0.0046  0.0000 </r>
        <r>  0.0001  0.0025  0.0000 </r>
        <r>  0.0003  0.0053  0.0000 </r>
        <r>  0.0001  0.0025  0.0000 </r>
        <r>  0.0009  0.0000  0.0000 </r>
        <r>  0.0019  0.0027  0.0000 </r>
        <r>  0.0019  0.0027  0.0000 </r>
        <r>  0.0008  0.0049  0.0000 </r>
        <r>  0.0001  0.0014  0.0000 </r>
        <r>  0.0019  0.0027  0.0000 </r>
        <r>  0.0008  0.0049  0.0000 </r>
        <r>  0.0019  0.0027  0.0000 </r>
        <r>  0.0001  0.0032  0.0000 </r>
        <r>  0.0019  0.0027  0.0000 </r>
        <r>  0.0001  0.0014  0.0000 </r>
        <r>  0.0008  0.0049  0.0000 </r>
        <r>  0.0001  0.0014  0.0000 </r>
        <r>  0.0001  0.0014  0.0000 </r>
        <r>  0.0006  0.0020  0.0000 </r>
        <r>  0.0019  0.0027  0.0000 </r>
        <r>  0.0021  0.0010  0.0000 </r>
        <r>  0.0006  0.0020  0.0000 </r>
        <r>  0.0019  0.0027  0.0000 </r>
        <r>  0.0008  0.0049  0.0000 </r>
        <r>  0.0001  0.0032  0.0000 </r>
        <r>  0.0019  0.0027  0.0000 </r>
        <r>  0.0006  0.0020  0.0000 </r>
        <r>  0.0021  0.0010  0.0000 </r>
        <r>  0.0001  0.0032  0.0000 </r>
        <r>  0.0006  0.0020  0.0000 </r>
        <r>  0.0001  0.0032  0.0000 </r>
       </set>
       <set comment="band 139">
        <r>  0.0000  0.0006  0.0000 </r>
        <r>  0.0007  0.0027  0.0000 </r>
        <r>  0.0007  0.0027  0.0000 </r>
        <r>  0.0014  0.0030  0.0000 </r>
        <r>  0.0017  0.0009  0.0000 </r>
        <r>  0.0007  0.0027  0.0000 </r>
        <r>  0.0014  0.0030  0.0000 </r>
        <r>  0.0007  0.0027  0.0000 </r>
        <r>  0.0003  0.0017  0.0000 </r>
        <r>  0.0007  0.0027  0.0000 </r>
        <r>  0.0017  0.0009  0.0000 </r>
        <r>  0.0014  0.0030  0.0000 </r>
        <r>  0.0017  0.0009  0.0000 </r>
        <r>  0.0017  0.0009  0.0000 </r>
        <r>  0.0000  0.0019  0.0000 </r>
        <r>  0.0007  0.0027  0.0000 </r>
        <r>  0.0000  0.0103  0.0000 </r>
        <r>  0.0000  0.0019  0.0000 </r>
        <r>  0.0007  0.0027  0.0000 </r>
        <r>  0.0014  0.0030  0.0000 </r>
        <r>  0.0003  0.0017  0.0000 </r>
        <r>  0.0007  0.0027  0.0000 </r>
        <r>  0.0000  0.0019  0.0000 </r>
        <r>  0.0000  0.0103  0.0000 </r>
        <r>  0.0003  0.0017  0.0000 </r>
        <r>  0.0000  0.0019  0.0000 </r>
        <r>  0.0003  0.0017  0.0000 </r>
        <r>  0.0000  0.0046  0.0000 </r>
        <r>  0.0001  0.0026  0.0000 </r>
        <r>  0.0001  0.0026  0.0000 </r>
        <r>  0.0003  0.0009  0.0000 </r>
        <r>  0.0000  0.0065  0.0000 </r>
        <r>  0.0001  0.0026  0.0000 </r>
        <r>  0.0003  0.0009  0.0000 </r>
        <r>  0.0001  0.0026  0.0000 </r>
        <r>  0.0007  0.0020  0.0000 </r>
        <r>  0.0001  0.0026  0.0000 </r>
        <r>  0.0000  0.0065  0.0000 </r>
        <r>  0.0003  0.0009  0.0000 </r>
        <r>  0.0000  0.0065  0.0000 </r>
        <r>  0.0000  0.0065  0.0000 </r>
        <r>  0.0019  0.0047  0.0000 </r>
        <r>  0.0001  0.0026  0.0000 </r>
        <r>  0.0009  0.0013  0.0000 </r>
        <r>  0.0019  0.0047  0.0000 </r>
        <r>  0.0001  0.0026  0.0000 </r>
        <r>  0.0003  0.0009  0.0000 </r>
        <r>  0.0007  0.0020  0.0000 </r>
        <r>  0.0001  0.0026  0.0000 </r>
        <r>  0.0019  0.0047  0.0000 </r>
        <r>  0.0009  0.0013  0.0000 </r>
        <r>  0.0007  0.0020  0.0000 </r>
        <r>  0.0019  0.0047  0.0000 </r>
        <r>  0.0007  0.0020  0.0000 </r>
       </set>
       <set comment="band 140">
        <r>  0.0001  0.0000  0.0000 </r>
        <r>  0.0002  0.0037  0.0000 </r>
        <r>  0.0002  0.0037  0.0000 </r>
        <r>  0.0001  0.0044  0.0000 </r>
        <r>  0.0000  0.0031  0.0000 </r>
        <r>  0.0002  0.0037  0.0000 </r>
        <r>  0.0001  0.0044  0.0000 </r>
        <r>  0.0002  0.0037  0.0000 </r>
        <r>  0.0000  0.0045  0.0000 </r>
        <r>  0.0002  0.0037  0.0000 </r>
        <r>  0.0000  0.0031  0.0000 </r>
        <r>  0.0001  0.0044  0.0000 </r>
        <r>  0.0000  0.0031  0.0000 </r>
        <r>  0.0000  0.0031  0.0000 </r>
        <r>  0.0002  0.0029  0.0000 </r>
        <r>  0.0002  0.0037  0.0000 </r>
        <r>  0.0008  0.0001  0.0000 </r>
        <r>  0.0002  0.0029  0.0000 </r>
        <r>  0.0002  0.0037  0.0000 </r>
        <r>  0.0001  0.0044  0.0000 </r>
        <r>  0.0000  0.0045  0.0000 </r>
        <r>  0.0002  0.0037  0.0000 </r>
        <r>  0.0002  0.0029  0.0000 </r>
        <r>  0.0008  0.0001  0.0000 </r>
        <r>  0.0000  0.0045  0.0000 </r>
        <r>  0.0002  0.0029  0.0000 </r>
        <r>  0.0000  0.0045  0.0000 </r>
        <r>  0.0000  0.0023  0.0000 </r>
        <r>  0.0007  0.0019  0.0000 </r>
        <r>  0.0007  0.0019  0.0000 </r>
        <r>  0.0010  0.0033  0.0000 </r>
        <r>  0.0001  0.0030  0.0000 </r>
        <r>  0.0007  0.0019  0.0000 </r>
        <r>  0.0010  0.0033  0.0000 </r>
        <r>  0.0007  0.0019  0.0000 </r>
        <r>  0.0000  0.0042  0.0000 </r>
        <r>  0.0007  0.0019  0.0000 </r>
        <r>  0.0001  0.0030  0.0000 </r>
        <r>  0.0010  0.0033  0.0000 </r>
        <r>  0.0001  0.0030  0.0000 </r>
        <r>  0.0001  0.0030  0.0000 </r>
        <r>  0.0002  0.0026  0.0000 </r>
        <r>  0.0007  0.0019  0.0000 </r>
        <r>  0.0000  0.0032  0.0000 </r>
        <r>  0.0002  0.0026  0.0000 </r>
        <r>  0.0007  0.0019  0.0000 </r>
        <r>  0.0010  0.0033  0.0000 </r>
        <r>  0.0000  0.0042  0.0000 </r>
        <r>  0.0007  0.0019  0.0000 </r>
        <r>  0.0002  0.0026  0.0000 </r>
        <r>  0.0000  0.0032  0.0000 </r>
        <r>  0.0000  0.0042  0.0000 </r>
        <r>  0.0002  0.0026  0.0000 </r>
        <r>  0.0000  0.0042  0.0000 </r>
       </set>
       <set comment="band 141">
        <r>  0.0000  0.0038  0.0000 </r>
        <r>  0.0017  0.0030  0.0000 </r>
        <r>  0.0017  0.0030  0.0000 </r>
        <r>  0.0000  0.0027  0.0000 </r>
        <r>  0.0003  0.0039  0.0000 </r>
        <r>  0.0017  0.0030  0.0000 </r>
        <r>  0.0000  0.0027  0.0000 </r>
        <r>  0.0017  0.0030  0.0000 </r>
        <r>  0.0000  0.0107  0.0000 </r>
        <r>  0.0017  0.0030  0.0000 </r>
        <r>  0.0003  0.0039  0.0000 </r>
        <r>  0.0000  0.0027  0.0000 </r>
        <r>  0.0003  0.0039  0.0000 </r>
        <r>  0.0003  0.0039  0.0000 </r>
        <r>  0.0000  0.0005  0.0000 </r>
        <r>  0.0017  0.0030  0.0000 </r>
        <r>  0.0003  0.0039  0.0000 </r>
        <r>  0.0000  0.0005  0.0000 </r>
        <r>  0.0017  0.0030  0.0000 </r>
        <r>  0.0000  0.0027  0.0000 </r>
        <r>  0.0000  0.0107  0.0000 </r>
        <r>  0.0017  0.0030  0.0000 </r>
        <r>  0.0000  0.0005  0.0000 </r>
        <r>  0.0003  0.0039  0.0000 </r>
        <r>  0.0000  0.0107  0.0000 </r>
        <r>  0.0000  0.0005  0.0000 </r>
        <r>  0.0000  0.0107  0.0000 </r>
        <r>  0.0000  0.0060  0.0000 </r>
        <r>  0.0004  0.0021  0.0000 </r>
        <r>  0.0004  0.0021  0.0000 </r>
        <r>  0.0032  0.0071  0.0000 </r>
        <r>  0.0001  0.0071  0.0000 </r>
        <r>  0.0004  0.0021  0.0000 </r>
        <r>  0.0032  0.0071  0.0000 </r>
        <r>  0.0004  0.0021  0.0000 </r>
        <r>  0.0016  0.0021  0.0000 </r>
        <r>  0.0004  0.0021  0.0000 </r>
        <r>  0.0001  0.0071  0.0000 </r>
        <r>  0.0032  0.0071  0.0000 </r>
        <r>  0.0001  0.0071  0.0000 </r>
        <r>  0.0001  0.0071  0.0000 </r>
        <r>  0.0011  0.0026  0.0000 </r>
        <r>  0.0004  0.0021  0.0000 </r>
        <r>  0.0000  0.0014  0.0000 </r>
        <r>  0.0011  0.0026  0.0000 </r>
        <r>  0.0004  0.0021  0.0000 </r>
        <r>  0.0032  0.0071  0.0000 </r>
        <r>  0.0016  0.0021  0.0000 </r>
        <r>  0.0004  0.0021  0.0000 </r>
        <r>  0.0011  0.0026  0.0000 </r>
        <r>  0.0000  0.0014  0.0000 </r>
        <r>  0.0016  0.0021  0.0000 </r>
        <r>  0.0011  0.0026  0.0000 </r>
        <r>  0.0016  0.0021  0.0000 </r>
       </set>
       <set comment="band 142">
        <r>  0.0000  0.0017  0.0000 </r>
        <r>  0.0006  0.0032  0.0000 </r>
        <r>  0.0006  0.0032  0.0000 </r>
        <r>  0.0003  0.0040  0.0000 </r>
        <r>  0.0000  0.0089  0.0000 </r>
        <r>  0.0006  0.0032  0.0000 </r>
        <r>  0.0003  0.0040  0.0000 </r>
        <r>  0.0006  0.0032  0.0000 </r>
        <r>  0.0028  0.0067  0.0000 </r>
        <r>  0.0006  0.0032  0.0000 </r>
        <r>  0.0000  0.0089  0.0000 </r>
        <r>  0.0003  0.0040  0.0000 </r>
        <r>  0.0000  0.0089  0.0000 </r>
        <r>  0.0000  0.0089  0.0000 </r>
        <r>  0.0000  0.0013  0.0000 </r>
        <r>  0.0006  0.0032  0.0000 </r>
        <r>  0.0000  0.0052  0.0000 </r>
        <r>  0.0000  0.0013  0.0000 </r>
        <r>  0.0006  0.0032  0.0000 </r>
        <r>  0.0003  0.0040  0.0000 </r>
        <r>  0.0028  0.0067  0.0000 </r>
        <r>  0.0006  0.0032  0.0000 </r>
        <r>  0.0000  0.0013  0.0000 </r>
        <r>  0.0000  0.0052  0.0000 </r>
        <r>  0.0028  0.0067  0.0000 </r>
        <r>  0.0000  0.0013  0.0000 </r>
        <r>  0.0028  0.0067  0.0000 </r>
        <r>  0.0000  0.0038  0.0000 </r>
        <r>  0.0009  0.0014  0.0000 </r>
        <r>  0.0008  0.0014  0.0000 </r>
        <r>  0.0001  0.0085  0.0000 </r>
        <r>  0.0004  0.0029  0.0000 </r>
        <r>  0.0008  0.0014  0.0000 </r>
        <r>  0.0001  0.0085  0.0000 </r>
        <r>  0.0008  0.0014  0.0000 </r>
        <r>  0.0000  0.0034  0.0000 </r>
        <r>  0.0008  0.0014  0.0000 </r>
        <r>  0.0004  0.0029  0.0000 </r>
        <r>  0.0001  0.0085  0.0000 </r>
        <r>  0.0004  0.0029  0.0000 </r>
        <r>  0.0004  0.0029  0.0000 </r>
        <r>  0.0050  0.0025  0.0000 </r>
        <r>  0.0008  0.0014  0.0000 </r>
        <r>  0.0001  0.0023  0.0000 </r>
        <r>  0.0050  0.0025  0.0000 </r>
        <r>  0.0009  0.0014  0.0000 </r>
        <r>  0.0001  0.0085  0.0000 </r>
        <r>  0.0000  0.0034  0.0000 </r>
        <r>  0.0009  0.0014  0.0000 </r>
        <r>  0.0050  0.0025  0.0000 </r>
        <r>  0.0001  0.0023  0.0000 </r>
        <r>  0.0000  0.0034  0.0000 </r>
        <r>  0.0050  0.0025  0.0000 </r>
        <r>  0.0000  0.0034  0.0000 </r>
       </set>
       <set comment="band 143">
        <r>  0.0023  0.0000  0.0000 </r>
        <r>  0.0020  0.0047  0.0000 </r>
        <r>  0.0020  0.0047  0.0000 </r>
        <r>  0.0010  0.0010  0.0000 </r>
        <r>  0.0020  0.0042  0.0000 </r>
        <r>  0.0020  0.0047  0.0000 </r>
        <r>  0.0010  0.0010  0.0000 </r>
        <r>  0.0020  0.0047  0.0000 </r>
        <r>  0.0018  0.0005  0.0000 </r>
        <r>  0.0020  0.0047  0.0000 </r>
        <r>  0.0020  0.0042  0.0000 </r>
        <r>  0.0010  0.0010  0.0000 </r>
        <r>  0.0020  0.0042  0.0000 </r>
        <r>  0.0020  0.0042  0.0000 </r>
        <r>  0.0004  0.0015  0.0000 </r>
        <r>  0.0020  0.0047  0.0000 </r>
        <r>  0.0048  0.0000  0.0000 </r>
        <r>  0.0004  0.0015  0.0000 </r>
        <r>  0.0020  0.0047  0.0000 </r>
        <r>  0.0010  0.0010  0.0000 </r>
        <r>  0.0018  0.0005  0.0000 </r>
        <r>  0.0020  0.0047  0.0000 </r>
        <r>  0.0004  0.0015  0.0000 </r>
        <r>  0.0048  0.0000  0.0000 </r>
        <r>  0.0018  0.0005  0.0000 </r>
        <r>  0.0004  0.0015  0.0000 </r>
        <r>  0.0018  0.0005  0.0000 </r>
        <r>  0.0000  0.0002  0.0000 </r>
        <r>  0.0000  0.0049  0.0000 </r>
        <r>  0.0000  0.0049  0.0000 </r>
        <r>  0.0019  0.0050  0.0000 </r>
        <r>  0.0000  0.0024  0.0000 </r>
        <r>  0.0000  0.0049  0.0000 </r>
        <r>  0.0019  0.0050  0.0000 </r>
        <r>  0.0000  0.0049  0.0000 </r>
        <r>  0.0000  0.0040  0.0000 </r>
        <r>  0.0000  0.0049  0.0000 </r>
        <r>  0.0000  0.0024  0.0000 </r>
        <r>  0.0019  0.0050  0.0000 </r>
        <r>  0.0000  0.0024  0.0000 </r>
        <r>  0.0000  0.0024  0.0000 </r>
        <r>  0.0002  0.0156  0.0000 </r>
        <r>  0.0000  0.0049  0.0000 </r>
        <r>  0.0000  0.0002  0.0000 </r>
        <r>  0.0002  0.0156  0.0000 </r>
        <r>  0.0000  0.0049  0.0000 </r>
        <r>  0.0019  0.0050  0.0000 </r>
        <r>  0.0000  0.0040  0.0000 </r>
        <r>  0.0000  0.0049  0.0000 </r>
        <r>  0.0002  0.0156  0.0000 </r>
        <r>  0.0000  0.0002  0.0000 </r>
        <r>  0.0000  0.0040  0.0000 </r>
        <r>  0.0002  0.0156  0.0000 </r>
        <r>  0.0000  0.0040  0.0000 </r>
       </set>
       <set comment="band 144">
        <r>  0.0000  0.0000  0.0000 </r>
        <r>  0.0005  0.0071  0.0000 </r>
        <r>  0.0005  0.0071  0.0000 </r>
        <r>  0.0012  0.0034  0.0000 </r>
        <r>  0.0010  0.0024  0.0000 </r>
        <r>  0.0005  0.0071  0.0000 </r>
        <r>  0.0012  0.0034  0.0000 </r>
        <r>  0.0005  0.0071  0.0000 </r>
        <r>  0.0019  0.0030  0.0000 </r>
        <r>  0.0005  0.0071  0.0000 </r>
        <r>  0.0011  0.0024  0.0000 </r>
        <r>  0.0011  0.0034  0.0000 </r>
        <r>  0.0010  0.0024  0.0000 </r>
        <r>  0.0011  0.0024  0.0000 </r>
        <r>  0.0005  0.0062  0.0000 </r>
        <r>  0.0005  0.0071  0.0000 </r>
        <r>  0.0000  0.0002  0.0000 </r>
        <r>  0.0005  0.0062  0.0000 </r>
        <r>  0.0005  0.0071  0.0000 </r>
        <r>  0.0011  0.0034  0.0000 </r>
        <r>  0.0019  0.0030  0.0000 </r>
        <r>  0.0005  0.0071  0.0000 </r>
        <r>  0.0005  0.0062  0.0000 </r>
        <r>  0.0000  0.0002  0.0000 </r>
        <r>  0.0019  0.0030  0.0000 </r>
        <r>  0.0005  0.0062  0.0000 </r>
        <r>  0.0019  0.0030  0.0000 </r>
        <r>  0.0021  0.0000  0.0000 </r>
        <r>  0.0003  0.0069  0.0000 </r>
        <r>  0.0003  0.0069  0.0000 </r>
        <r>  0.0005  0.0026  0.0000 </r>
        <r>  0.0010  0.0037  0.0000 </r>
        <r>  0.0003  0.0069  0.0000 </r>
        <r>  0.0005  0.0026  0.0000 </r>
        <r>  0.0003  0.0069  0.0000 </r>
        <r>  0.0008  0.0032  0.0000 </r>
        <r>  0.0003  0.0069  0.0000 </r>
        <r>  0.0010  0.0037  0.0000 </r>
        <r>  0.0005  0.0026  0.0000 </r>
        <r>  0.0010  0.0037  0.0000 </r>
        <r>  0.0010  0.0037  0.0000 </r>
        <r>  0.0001  0.0066  0.0000 </r>
        <r>  0.0003  0.0069  0.0000 </r>
        <r>  0.0037  0.0000  0.0000 </r>
        <r>  0.0001  0.0066  0.0000 </r>
        <r>  0.0003  0.0069  0.0000 </r>
        <r>  0.0005  0.0026  0.0000 </r>
        <r>  0.0008  0.0031  0.0000 </r>
        <r>  0.0003  0.0069  0.0000 </r>
        <r>  0.0001  0.0066  0.0000 </r>
        <r>  0.0037  0.0000  0.0000 </r>
        <r>  0.0008  0.0032  0.0000 </r>
        <r>  0.0001  0.0066  0.0000 </r>
        <r>  0.0008  0.0031  0.0000 </r>
       </set>
      </set>
     </set>
    </set>
   </array>
  </projected>
 </calculation>
 <structure name="finalpos" >
  <crystal>
   <varray name="basis" >
    <v>       9.97646553       0.00000000       5.75991507 </v>
    <v>       3.32548851       9.40590192       5.75991507 </v>
    <v>       0.00000000       0.00000000      11.51983014 </v>
   </varray>
   <i name="volume">   1080.99386112 </i>
   <varray name="rec_basis" >
    <v>       0.10023590      -0.03543874       0.00000000 </v>
    <v>       0.00000000       0.10631623       0.00000000 </v>
    <v>      -0.05011795      -0.03543874       0.08680684 </v>
   </varray>
  </crystal>
  <varray name="positions" >
   <v>       0.29166667       0.29166667       0.29166667 </v>
   <v>       0.29080749       0.29080749       0.62567763 </v>
   <v>       0.29080749       0.29080749       0.95937405 </v>
   <v>       0.29080749       0.62567763       0.29080749 </v>
   <v>       0.29128752       0.62512638       0.62512638 </v>
   <v>       0.29080749       0.62567763       0.95937405 </v>
   <v>       0.29080749       0.95937405       0.29080749 </v>
   <v>       0.29080749       0.95937405       0.62567763 </v>
   <v>       0.29142318       0.95841450       0.95841450 </v>
   <v>       0.62567763       0.29080749       0.29080749 </v>
   <v>       0.62512638       0.29128752       0.62512638 </v>
   <v>       0.62567763       0.29080749       0.95937405 </v>
   <v>       0.62512638       0.62512638       0.29128752 </v>
   <v>       0.62512638       0.62512638       0.62512638 </v>
   <v>       0.62504879       0.62504879       0.95828454 </v>
   <v>       0.62567763       0.95937405       0.29080749 </v>
   <v>       0.62504879       0.95828454       0.62504879 </v>
   <v>       0.62504879       0.95828454       0.95828454 </v>
   <v>       0.95937405       0.29080749       0.29080749 </v>
   <v>       0.95937405       0.29080749       0.62567763 </v>
   <v>       0.95841450       0.29142318       0.95841450 </v>
   <v>       0.95937405       0.62567763       0.29080749 </v>
   <v>       0.95828454       0.62504879       0.62504879 </v>
   <v>       0.95828454       0.62504879       0.95828454 </v>
   <v>       0.95841450       0.95841450       0.29142318 </v>
   <v>       0.95828454       0.95828454       0.62504879 </v>
   <v>       0.95841450       0.95841450       0.95841450 </v>
   <v>       0.04166667       0.04166667       0.04166667 </v>
   <v>       0.04138528       0.04138528       0.37536097 </v>
   <v>       0.04138528       0.04138528       0.70853514 </v>
   <v>       0.04138528       0.37536097       0.04138528 </v>
   <v>       0.04173837       0.37497610       0.37497610 </v>
   <v>       0.04138528       0.37536097       0.70853514 </v>
   <v>       0.04138528       0.70853514       0.04138528 </v>
   <v>       0.04138528       0.70853514       0.37536097 </v>
   <v>       0.04154942       0.70837242       0.70837242 </v>
   <v>       0.37536097       0.04138528       0.04138528 </v>
   <v>       0.37497610       0.04173837       0.37497610 </v>
   <v>       0.37536097       0.04138528       0.70853514 </v>
   <v>       0.37497610       0.37497610       0.04173837 </v>
   <v>       0.37497610       0.37497610       0.37497610 </v>
   <v>       0.37562792       0.37562792       0.70770541 </v>
   <v>       0.37536097       0.70853514       0.04138528 </v>
   <v>       0.37562792       0.70770541       0.37562792 </v>
   <v>       0.37562792       0.70770541       0.70770541 </v>
   <v>       0.70853514       0.04138528       0.04138528 </v>
   <v>       0.70853514       0.04138528       0.37536097 </v>
   <v>       0.70837242       0.04154942       0.70837242 </v>
   <v>       0.70853514       0.37536097       0.04138528 </v>
   <v>       0.70770541       0.37562792       0.37562792 </v>
   <v>       0.70770541       0.37562792       0.70770541 </v>
   <v>       0.70837242       0.70837242       0.04154942 </v>
   <v>       0.70770541       0.70770541       0.37562792 </v>
   <v>       0.70837242       0.70837242       0.70837242 </v>
  </varray>
 </structure>
</modeling>
