 vasp.6.3.0 20Jan22 (build Mar 07 2022 09:35:52) complex                        
  
 executed on             LinuxIFC date 2025.10.02  15:45:36
 running on   64 total cores
 distrk:  each k-point on   64 cores,    1 groups
 distr:  one band on NCORE=   1 cores,   64 groups


--------------------------------------------------------------------------------------------------------


 INCAR:
   ALGO = Normal
   AMIX = 0.2
   EDIFF = 1e-05
   EDIFFG = -0.05
   ENCUT = 550
   IBRION = 2
   ISIF = 2
   ISMEAR = 0
   ISPIN = 1
   ISYM = 2
   LCHARG = .FALSE.
   LORBIT = 11
   LREAL = .FALSE.
   LVTOT = True
   LWAVE = .FALSE.
   NELECT = 385.0
   NELM = 200
   NSW = 100
   SIGMA = 0.05
   SYSTEM = SiO2

 POTCAR:    PAW_PBE Si 05Jan2001                  
 POTCAR:    PAW_PBE P 06Sep2000                   
 POTCAR:    PAW_PBE O 08Apr2002                   
 WARNING: For LVTOT=.TRUE., VASP.5.x writes the TOTAL local potential to the
     file LOCPOT. If you want only the Hartree contributions, use LVHAR=.TRUE.
     instead. 

 -----------------------------------------------------------------------------
|                                                                             |
|           W    W    AA    RRRRR   N    N  II  N    N   GGGG   !!!           |
|           W    W   A  A   R    R  NN   N  II  NN   N  G    G  !!!           |
|           W    W  A    A  R    R  N N  N  II  N N  N  G       !!!           |
|           W WW W  AAAAAA  RRRRR   N  N N  II  N  N N  G  GGG   !            |
|           WW  WW  A    A  R   R   N   NN  II  N   NN  G    G                |
|           W    W  A    A  R    R  N    N  II  N    N   GGGG   !!!           |
|                                                                             |
|     For optimal performance we recommend to set                             |
|       NCORE = 2 up to number-of-cores-per-socket                            |
|     NCORE specifies how many cores store one orbital (NPAR=cpu/NCORE).      |
|     This setting can greatly improve the performance of VASP for DFT.       |
|     The default, NCORE=1 might be grossly inefficient on modern             |
|     multi-core architectures or massively parallel machines. Do your        |
|     own testing! More info at https://www.vasp.at/wiki/index.php/NCORE      |
|     Unfortunately you need to use the default for GW and RPA                |
|     calculations (for HF NCORE is supported but not extensively tested      |
|     yet).                                                                   |
|                                                                             |
 -----------------------------------------------------------------------------

 POTCAR:    PAW_PBE Si 05Jan2001                  
   VRHFIN =Si: s2p2                                                                                 
   LEXCH  = PE                                                                                      
   EATOM  =   103.0669 eV,    7.5752 Ry                                                             
                                                                                                    
   TITEL  = PAW_PBE Si 05Jan2001                                                                    
   LULTRA =        F    use ultrasoft PP ?                                                          
   IUNSCR =        1    unscreen: 0-lin 1-nonlin 2-no                                               
   RPACOR =    1.500    partial core radius                                                         
   POMASS =   28.085; ZVAL   =    4.000    mass and valenz                                          
   RCORE  =    1.900    outmost cutoff radius                                                       
   RWIGS  =    2.480; RWIGS  =    1.312    wigner-seitz radius (au A)                               
   ENMAX  =  245.345; ENMIN  =  184.009 eV                                                          
   ICORE  =        2    local potential                                                             
   LCOR   =        T    correct aug charges                                                         
   LPAW   =        T    paw PP                                                                      
   EAUG   =  322.069                                                                                
   DEXC   =    0.000                                                                                
   RMAX   =    1.950    core radius for proj-oper                                                   
   RAUG   =    1.300    factor for augmentation sphere                                              
   RDEP   =    1.993    radius for radial grids                                                     
   RDEPT  =    1.837    core radius for aug-charge                                                  
                                                                                                    
   Atomic configuration                                                                             
    6 entries                                                                                       
     n  l   j            E        occ.                                                              
     1  0  0.50     -1785.8828   2.0000                                                             
     2  0  0.50      -139.4969   2.0000                                                             
     2  1  1.50       -95.5546   6.0000                                                             
     3  0  0.50       -10.8127   2.0000                                                             
     3  1  0.50        -4.0811   2.0000                                                             
     3  2  1.50        -4.0817   0.0000                                                             
   Description                                                                                      
     l       E           TYP  RCUT    TYP  RCUT                                                     
     0    -10.8127223     23  1.900                                                                 
     0     -7.6451159     23  1.900                                                                 
     1     -4.0811372     23  1.900                                                                 
     1      2.4879257     23  1.900                                                                 
     2     -4.0817478      7  1.900                                                                 
  local pseudopotential read in
  partial core-charges read in
  partial kinetic energy density read in
  atomic valenz-charges read in
  non local Contribution for L=           0  read in
    real space projection operators read in
  non local Contribution for L=           0  read in
    real space projection operators read in
  non local Contribution for L=           1  read in
    real space projection operators read in
  non local Contribution for L=           1  read in
    real space projection operators read in
    PAW grid and wavefunctions read in
 
   number of l-projection  operators is LMAX  =           4
   number of lm-projection operators is LMMAX =           8
 
 POTCAR:    PAW_PBE P 06Sep2000                   
   VRHFIN =P : s2p3                                                                                 
   LEXCH  = PE                                                                                      
   EATOM  =   176.0430 eV,   12.9388 Ry                                                             
                                                                                                    
   TITEL  = PAW_PBE P 06Sep2000                                                                     
   LULTRA =        F    use ultrasoft PP ?                                                          
   IUNSCR =        1    unscreen: 0-lin 1-nonlin 2-no                                               
   RPACOR =    1.500    partial core radius                                                         
   POMASS =   30.974; ZVAL   =    5.000    mass and valenz                                          
   RCORE  =    1.900    outmost cutoff radius                                                       
   RWIGS  =    2.330; RWIGS  =    1.233    wigner-seitz radius (au A)                               
   ENMAX  =  255.040; ENMIN  =  191.280 eV                                                          
   ICORE  =        2    local potential                                                             
   LCOR   =        T    correct aug charges                                                         
   LPAW   =        T    paw PP                                                                      
   EAUG   =  342.924                                                                                
   DEXC   =    0.000                                                                                
   RMAX   =    1.935    core radius for proj-oper                                                   
   RAUG   =    1.300    factor for augmentation sphere                                              
   RDEP   =    1.931    radius for radial grids                                                     
   RDEPT  =    1.794    core radius for aug-charge                                                  
                                                                                                    
   Atomic configuration                                                                             
    6 entries                                                                                       
     n  l   j            E        occ.                                                              
     1  0  0.50     -2084.0982   2.0000                                                             
     2  0  0.50      -173.9859   2.0000                                                             
     2  1  1.50      -124.4865   6.0000                                                             
     3  0  0.50       -13.9692   2.0000                                                             
     3  1  0.50        -5.5067   3.0000                                                             
     3  2  1.50        -5.4423   0.0000                                                             
   Description                                                                                      
     l       E           TYP  RCUT    TYP  RCUT                                                     
     0    -13.9691527     23  1.900                                                                 
     0    -11.7794650     23  1.900                                                                 
     1     -5.5066937     23  1.900                                                                 
     1     -0.2556953     23  1.900                                                                 
     2     -5.4423304     23  1.900                                                                 
  local pseudopotential read in
  partial core-charges read in
  partial kinetic energy density read in
  atomic valenz-charges read in
  non local Contribution for L=           0  read in
    real space projection operators read in
  non local Contribution for L=           0  read in
    real space projection operators read in
  non local Contribution for L=           1  read in
    real space projection operators read in
  non local Contribution for L=           1  read in
    real space projection operators read in
    PAW grid and wavefunctions read in
 
   number of l-projection  operators is LMAX  =           4
   number of lm-projection operators is LMMAX =           8
 
 POTCAR:    PAW_PBE O 08Apr2002                   
   VRHFIN =O: s2p4                                                                                  
   LEXCH  = PE                                                                                      
   EATOM  =   432.3788 eV,   31.7789 Ry                                                             
                                                                                                    
   TITEL  = PAW_PBE O 08Apr2002                                                                     
   LULTRA =        F    use ultrasoft PP ?                                                          
   IUNSCR =        1    unscreen: 0-lin 1-nonlin 2-no                                               
   RPACOR =    1.200    partial core radius                                                         
   POMASS =   16.000; ZVAL   =    6.000    mass and valenz                                          
   RCORE  =    1.520    outmost cutoff radius                                                       
   RWIGS  =    1.550; RWIGS  =    0.820    wigner-seitz radius (au A)                               
   ENMAX  =  400.000; ENMIN  =  300.000 eV                                                          
   ICORE  =        2    local potential                                                             
   LCOR   =        T    correct aug charges                                                         
   LPAW   =        T    paw PP                                                                      
   EAUG   =  605.392                                                                                
   DEXC   =    0.000                                                                                
   RMAX   =    1.553    core radius for proj-oper                                                   
   RAUG   =    1.300    factor for augmentation sphere                                              
   RDEP   =    1.550    radius for radial grids                                                     
   RDEPT  =    1.329    core radius for aug-charge                                                  
                                                                                                    
   Atomic configuration                                                                             
    4 entries                                                                                       
     n  l   j            E        occ.                                                              
     1  0  0.50      -514.6923   2.0000                                                             
     2  0  0.50       -23.9615   2.0000                                                             
     2  1  0.50        -9.0305   4.0000                                                             
     3  2  1.50        -9.5241   0.0000                                                             
   Description                                                                                      
     l       E           TYP  RCUT    TYP  RCUT                                                     
     0    -23.9615318     23  1.200                                                                 
     0     -9.5240782     23  1.200                                                                 
     1     -9.0304911     23  1.520                                                                 
     1      8.1634956     23  1.520                                                                 
     2     -9.5240782      7  1.500                                                                 
  local pseudopotential read in
  partial core-charges read in
  partial kinetic energy density read in
  kinetic energy density of atom read in
  atomic valenz-charges read in
  non local Contribution for L=           0  read in
    real space projection operators read in
  non local Contribution for L=           0  read in
    real space projection operators read in
  non local Contribution for L=           1  read in
    real space projection operators read in
  non local Contribution for L=           1  read in
    real space projection operators read in
    PAW grid and wavefunctions read in
 
   number of l-projection  operators is LMAX  =           4
   number of lm-projection operators is LMMAX =           8
 
 -----------------------------------------------------------------------------
|                                                                             |
|               ----> ADVICE to this user running VASP <----                  |
|                                                                             |
|     You have a (more or less) 'large supercell' and for larger cells it     |
|     might be more efficient to use real-space projection operators.         |
|     Therefore, try LREAL= Auto in the INCAR file.                           |
|     Mind: For very accurate calculation, you might also keep the            |
|     reciprocal projection scheme (i.e. LREAL=.FALSE.).                      |
|                                                                             |
 -----------------------------------------------------------------------------

  PAW_PBE Si 05Jan2001                  :
 energy of atom  1       EATOM= -103.0669
 kinetic energy error for atom=    0.0004 (will be added to EATOM!!)
  PAW_PBE P 06Sep2000                   :
 energy of atom  2       EATOM= -176.0430
 kinetic energy error for atom=    0.0008 (will be added to EATOM!!)
  PAW_PBE O 08Apr2002                   :
 energy of atom  3       EATOM= -432.3788
 kinetic energy error for atom=    0.0194 (will be added to EATOM!!)
 
 
 POSCAR: Si23 P1 O48
  positions in direct lattice
  velocities in cartesian coordinates
 exchange correlation table for  LEXCH =        8
   RHO(1)=    0.500       N(1)  =     2000
   RHO(2)=  100.500       N(2)  =     4000

 VTST: version 4.2, (08/11/21)

 CHAIN: initializing optimizer
 
 OPT: Using VASP Conjugate-Gradient optimizer
 CHAIN: Read ICHAIN            0
 
 POSCAR: Si23 P1 O48
  positions in direct lattice
  velocities in cartesian coordinates
 


--------------------------------------------------------------------------------------------------------


 ion  position               nearest neighbor table
   1  0.266  0.266  0.500-  65 1.61  34 1.61  50 1.62  25 1.62  12 3.06  19 3.06  17 3.06   8 3.06

   2  0.266  0.766  0.000-  68 1.61  35 1.61  51 1.62  28 1.62  15 3.06  16 3.06  11 3.06  18 3.06

   3  0.266  0.766  0.500-  67 1.61  36 1.61  52 1.62  27 1.62  14 3.06  17 3.06  10 3.06  19 3.06

   4  0.766  0.266  0.000-  70 1.61  37 1.61  53 1.62  30 1.62   9 3.06  22 3.06  20 3.06  13 3.06

   5  0.766  0.266  0.500-  69 1.61  38 1.61  54 1.62  29 1.62   8 3.06  23 3.06  21 3.06  12 3.06

   6  0.766  0.766  0.000-  72 1.61  39 1.61  55 1.62  32 1.62  11 3.06  20 3.06  15 3.06  22 3.06

   7  0.766  0.766  0.500-  71 1.61  40 1.61  56 1.62  31 1.62  10 3.06  21 3.06  14 3.06  23 3.06

   8  0.000  0.234  0.333-  25 1.61  61 1.61  41 1.62  69 1.62   5 3.06   1 3.06  18 3.06  20 3.06

   9  0.000  0.234  0.833-  26 1.61  62 1.61  42 1.62  70 1.62   4 3.06  19 3.06  21 3.06
  10  0.000  0.734  0.333-  27 1.61  63 1.61  43 1.62  71 1.62   7 3.06   3 3.06  16 3.06  22 3.06

  11  0.000  0.734  0.833-  28 1.61  64 1.61  44 1.62  72 1.62   6 3.06   2 3.06  17 3.06  23 3.06

  12  0.500  0.234  0.333-  29 1.61  57 1.61  45 1.62  65 1.62   1 3.06   5 3.06  16 3.06  22 3.06

  13  0.500  0.234  0.833-  30 1.61  58 1.61  46 1.62  66 1.62   4 3.06  17 3.06  23 3.06
  14  0.500  0.734  0.333-  31 1.61  59 1.61  47 1.62  67 1.62   3 3.06   7 3.06  18 3.06  20 3.06

  15  0.500  0.734  0.833-  32 1.61  60 1.61  48 1.62  68 1.62   2 3.06   6 3.06  19 3.06  21 3.06

  16  0.234  0.000  0.167-  49 1.61  43 1.61  35 1.62  57 1.62   2 3.06  10 3.06  12 3.06
  17  0.234  0.000  0.667-  50 1.61  44 1.61  36 1.62  58 1.62   3 3.06   1 3.06  11 3.06  13 3.06

  18  0.234  0.500  0.167-  51 1.61  41 1.61  33 1.62  59 1.62   2 3.06   8 3.06  14 3.06
  19  0.234  0.500  0.667-  52 1.61  42 1.61  34 1.62  60 1.62   1 3.06   3 3.06   9 3.06  15 3.06

  20  0.734  0.000  0.167-  53 1.61  47 1.61  39 1.62  61 1.62   6 3.06   4 3.06   8 3.06  14 3.06

  21  0.734  0.000  0.667-  54 1.61  48 1.61  40 1.62  62 1.62   7 3.06   5 3.06   9 3.06  15 3.06

  22  0.734  0.500  0.167-  55 1.61  45 1.61  37 1.62  63 1.62   4 3.06   6 3.06  10 3.06  12 3.06

  23  0.734  0.500  0.667-  56 1.61  46 1.61  38 1.62  64 1.62   5 3.06   7 3.06  11 3.06  13 3.06

  24  0.266  0.266  0.000-  66 1.61  33 1.61  49 1.62  26 1.62
  25  0.135  0.207  0.392-   8 1.61   1 1.62
  26  0.135  0.207  0.892-   9 1.61  24 1.62
  27  0.135  0.707  0.392-  10 1.61   3 1.62
  28  0.135  0.707  0.892-  11 1.61   2 1.62
  29  0.635  0.207  0.392-  12 1.61   5 1.62
  30  0.635  0.207  0.892-  13 1.61   4 1.62
  31  0.635  0.707  0.392-  14 1.61   7 1.62
  32  0.635  0.707  0.892-  15 1.61   6 1.62
  33  0.293  0.428  0.059-  24 1.61  18 1.62
  34  0.293  0.428  0.559-   1 1.61  19 1.62
  35  0.293  0.928  0.059-   2 1.61  16 1.62
  36  0.293  0.928  0.559-   3 1.61  17 1.62
  37  0.793  0.428  0.059-   4 1.61  22 1.62
  38  0.793  0.428  0.559-   5 1.61  23 1.62
  39  0.793  0.928  0.059-   6 1.61  20 1.62
  40  0.793  0.928  0.559-   7 1.61  21 1.62
  41  0.072  0.365  0.226-  18 1.61   8 1.62
  42  0.072  0.365  0.726-  19 1.61   9 1.62
  43  0.072  0.865  0.226-  16 1.61  10 1.62
  44  0.072  0.865  0.726-  17 1.61  11 1.62
  45  0.572  0.365  0.226-  22 1.61  12 1.62
  46  0.572  0.365  0.726-  23 1.61  13 1.62
  47  0.572  0.865  0.226-  20 1.61  14 1.62
  48  0.572  0.865  0.726-  21 1.61  15 1.62
  49  0.207  0.135  0.108-  16 1.61  24 1.62
  50  0.207  0.135  0.608-  17 1.61   1 1.62
  51  0.207  0.635  0.108-  18 1.61   2 1.62
  52  0.207  0.635  0.608-  19 1.61   3 1.62
  53  0.707  0.135  0.108-  20 1.61   4 1.62
  54  0.707  0.135  0.608-  21 1.61   5 1.62
  55  0.707  0.635  0.108-  22 1.61   6 1.62
  56  0.707  0.635  0.608-  23 1.61   7 1.62
  57  0.365  0.072  0.274-  12 1.61  16 1.62
  58  0.365  0.072  0.774-  13 1.61  17 1.62
  59  0.365  0.572  0.274-  14 1.61  18 1.62
  60  0.365  0.572  0.774-  15 1.61  19 1.62
  61  0.865  0.072  0.274-   8 1.61  20 1.62
  62  0.865  0.072  0.774-   9 1.61  21 1.62
  63  0.865  0.572  0.274-  10 1.61  22 1.62
  64  0.865  0.572  0.774-  11 1.61  23 1.62
  65  0.428  0.293  0.441-   1 1.61  12 1.62
  66  0.428  0.293  0.941-  24 1.61  13 1.62
  67  0.428  0.793  0.441-   3 1.61  14 1.62
  68  0.428  0.793  0.941-   2 1.61  15 1.62
  69  0.928  0.293  0.441-   5 1.61   8 1.62
  70  0.928  0.293  0.941-   4 1.61   9 1.62
  71  0.928  0.793  0.441-   7 1.61  10 1.62
  72  0.928  0.793  0.941-   6 1.61  11 1.62
 
  LATTYP: Found a hexagonal cell.
 ALAT       =     9.8299323535
 C/A-ratio  =     1.1050536148
  
  Lattice vectors:
  
 A1 = (   4.9149661767,  -8.5129711356,   0.0000000000)
 A2 = (   4.9149661767,   8.5129711356,   0.0000000000)
 A3 = (   0.0000000000,   0.0000000000,  10.8626022800)


Analysis of symmetry for initial positions (statically):
=====================================================================
 Subroutine PRICEL returns:
 Original cell was already a primitive cell.
 

 Routine SETGRP: Setting up the symmetry group for a 
 hexagonal supercell.


 Subroutine GETGRP returns: Found  2 space group operations
 (whereof  2 operations were pure point group operations)
 out of a pool of 24 trial point group operations.


The static configuration has the point symmetry C_2 .


Analysis of symmetry for dynamics (positions and initial velocities):
=====================================================================
 Subroutine PRICEL returns:
 Original cell was already a primitive cell.
 

 Routine SETGRP: Setting up the symmetry group for a 
 hexagonal supercell.


 Subroutine GETGRP returns: Found  2 space group operations
 (whereof  2 operations were pure point group operations)
 out of a pool of 24 trial point group operations.


The dynamic configuration has the point symmetry C_2 .


 Subroutine INISYM returns: Found  2 space group operations
 (whereof  2 operations are pure point group operations),
 and found     1 'primitive' translations


----------------------------------------------------------------------------------------

                                     Primitive cell                                     

  volume of cell :     909.0035

  direct lattice vectors                    reciprocal lattice vectors
     4.914966177 -8.512971136  0.000000000     0.101730100 -0.058733901  0.000000000
     4.914966177  8.512971136  0.000000000     0.101730100  0.058733901  0.000000000
     0.000000000  0.000000000 10.862602280     0.000000000  0.000000000  0.092058972

  length of vectors
     9.829932353  9.829932353 10.862602280     0.117467801  0.117467801  0.092058972

  position of ions in fractional coordinates (direct lattice)
     0.265544295  0.265544295  0.500000000
     0.265544295  0.765544295  0.000000000
     0.265544295  0.765544295  0.500000000
     0.765544295  0.265544295  0.000000000
     0.765544295  0.265544295  0.500000000
     0.765544295  0.765544295  0.000000000
     0.765544295  0.765544295  0.500000000
     1.000000000  0.234455705  0.333333333
     1.000000000  0.234455705  0.833333333
     1.000000000  0.734455705  0.333333333
     1.000000000  0.734455705  0.833333333
     0.500000000  0.234455705  0.333333333
     0.500000000  0.234455705  0.833333333
     0.500000000  0.734455705  0.333333333
     0.500000000  0.734455705  0.833333333
     0.234455705  1.000000000  0.166666667
     0.234455705  1.000000000  0.666666667
     0.234455705  0.500000000  0.166666667
     0.234455705  0.500000000  0.666666667
     0.734455705  1.000000000  0.166666667
     0.734455705  1.000000000  0.666666667
     0.734455705  0.500000000  0.166666667
     0.734455705  0.500000000  0.666666667
     0.265544295  0.265544295  0.000000000
     0.134611555  0.206697145  0.392445490
     0.134611555  0.206697145  0.892445490
     0.134611555  0.706697145  0.392445490
     0.134611555  0.706697145  0.892445490
     0.634611555  0.206697145  0.392445490
     0.634611555  0.206697145  0.892445490
     0.634611555  0.706697145  0.392445490
     0.634611555  0.706697145  0.892445490
     0.293302855  0.427914410  0.059112157
     0.293302855  0.427914410  0.559112157
     0.293302855  0.927914410  0.059112157
     0.293302855  0.927914410  0.559112157
     0.793302855  0.427914410  0.059112157
     0.793302855  0.427914410  0.559112157
     0.793302855  0.927914410  0.059112157
     0.793302855  0.927914410  0.559112157
     0.072085590  0.365388445  0.225778823
     0.072085590  0.365388445  0.725778823
     0.072085590  0.865388445  0.225778823
     0.072085590  0.865388445  0.725778823
     0.572085590  0.365388445  0.225778823
     0.572085590  0.365388445  0.725778823
     0.572085590  0.865388445  0.225778823
     0.572085590  0.865388445  0.725778823
     0.206697145  0.134611555  0.107554510
     0.206697145  0.134611555  0.607554510
     0.206697145  0.634611555  0.107554510
     0.206697145  0.634611555  0.607554510
     0.706697145  0.134611555  0.107554510
     0.706697145  0.134611555  0.607554510
     0.706697145  0.634611555  0.107554510
     0.706697145  0.634611555  0.607554510
     0.365388445  0.072085590  0.274221177
     0.365388445  0.072085590  0.774221177
     0.365388445  0.572085590  0.274221177
     0.365388445  0.572085590  0.774221177
     0.865388445  0.072085590  0.274221177
     0.865388445  0.072085590  0.774221177
     0.865388445  0.572085590  0.274221177
     0.865388445  0.572085590  0.774221177
     0.427914410  0.293302855  0.440887843
     0.427914410  0.293302855  0.940887843
     0.427914410  0.793302855  0.440887843
     0.427914410  0.793302855  0.940887843
     0.927914410  0.293302855  0.440887843
     0.927914410  0.293302855  0.940887843
     0.927914410  0.793302855  0.440887843
     0.927914410  0.793302855  0.940887843

  ion indices of the primitive-cell ions
   primitive index   ion index
                 1           1
                 2           2
                 3           3
                 4           4
                 5           5
                 6           6
                 7           7
                 8           8
                 9           9
                10          10
                11          11
                12          12
                13          13
                14          14
                15          15
                16          16
                17          17
                18          18
                19          19
                20          20
                21          21
                22          22
                23          23
                24          24
                25          25
                26          26
                27          27
                28          28
                29          29
                30          30
                31          31
                32          32
                33          33
                34          34
                35          35
                36          36
                37          37
                38          38
                39          39
                40          40
                41          41
                42          42
                43          43
                44          44
                45          45
                46          46
                47          47
                48          48
                49          49
                50          50
                51          51
                52          52
                53          53
                54          54
                55          55
                56          56
                57          57
                58          58
                59          59
                60          60
                61          61
                62          62
                63          63
                64          64
                65          65
                66          66
                67          67
                68          68
                69          69
                70          70
                71          71
                72          72

----------------------------------------------------------------------------------------

 
 
 KPOINTS: pymatgen with grid density = 1000 / numb

Automatic generation of k-mesh.
 Grid dimensions read from file:
 generate k-points for:    2    2    2

 Generating k-lattice:

  Cartesian coordinates                     Fractional coordinates (reciprocal lattice)
     0.050865050 -0.029366950  0.000000000     0.500000000 -0.000000000  0.000000000
     0.050865050  0.029366950  0.000000000    -0.000000000  0.500000000  0.000000000
     0.000000000  0.000000000  0.046029486     0.000000000  0.000000000  0.500000000

  Length of vectors
     0.058733901  0.058733901  0.046029486

  Shift w.r.t. Gamma in fractional coordinates (k-lattice)
     0.000000000  0.000000000  0.000000000

 
 Subroutine IBZKPT returns following result:
 ===========================================
 
 Found      6 irreducible k-points:
 
 Following reciprocal coordinates:
            Coordinates               Weight
  0.000000  0.000000  0.000000      1.000000
  0.500000  0.000000  0.000000      2.000000
  0.500000  0.500000  0.000000      1.000000
  0.000000  0.000000  0.500000      1.000000
  0.500000  0.000000  0.500000      2.000000
  0.500000  0.500000  0.500000      1.000000
 
 Following cartesian coordinates:
            Coordinates               Weight
  0.000000  0.000000  0.000000      1.000000
  0.050865 -0.029367  0.000000      2.000000
  0.101730  0.000000  0.000000      1.000000
  0.000000  0.000000  0.046029      1.000000
  0.050865 -0.029367  0.046029      2.000000
  0.101730  0.000000  0.046029      1.000000
 


--------------------------------------------------------------------------------------------------------




 Dimension of arrays:
   k-points           NKPTS =      6   k-points in BZ     NKDIM =      6   number of bands    NBANDS=    256
   number of dos      NEDOS =    301   number of ions     NIONS =     72
   non local maximal  LDIM  =      4   non local SUM 2l+1 LMDIM =      8
   total plane-waves  NPLWV = 200704
   max r-space proj   IRMAX =      1   max aug-charges    IRDMAX=   7581
   dimension x,y,z NGX =    56 NGY =   56 NGZ =   64
   dimension x,y,z NGXF=   112 NGYF=  112 NGZF=  128
   support grid    NGXF=   112 NGYF=  112 NGZF=  128
   ions per type =              23   1  48
   NGX,Y,Z   is equivalent  to a cutoff of   9.47,  9.47,  9.79 a.u.
   NGXF,Y,Z  is equivalent  to a cutoff of  18.94, 18.94, 19.59 a.u.

 SYSTEM =  SiO2                                    
 POSCAR =  Si23 P1 O48                             

 Startparameter for this run:
   NWRITE =      2    write-flag & timer
   PREC   = normal    normal or accurate (medium, high low for compatibility)
   ISTART =      0    job   : 0-new  1-cont  2-samecut
   ICHARG =      2    charge: 1-file 2-atom 10-const
   ISPIN  =      1    spin polarized calculation?
   LNONCOLLINEAR =      F non collinear calculations
   LSORBIT =      F    spin-orbit coupling
   INIWAV =      1    electr: 0-lowe 1-rand  2-diag
   LASPH  =      F    aspherical Exc in radial PAW
 Electronic Relaxation 1
   ENCUT  =  550.0 eV  40.42 Ry    6.36 a.u.  18.80 18.80 20.77*2*pi/ulx,y,z
   ENINI  =  550.0     initial cutoff
   ENAUG  =  605.4 eV  augmentation charge cutoff
   NELM   =    200;   NELMIN=  2; NELMDL= -5     # of ELM steps 
   EDIFF  = 0.1E-04   stopping-criterion for ELM
   LREAL  =      F    real-space projection
   NLSPLINE    = F    spline interpolate recip. space projectors
   LCOMPAT=      F    compatible to vasp.4.4
   GGA_COMPAT  = T    GGA compatible to vasp.4.4-vasp.4.6
   LMAXPAW     = -100 max onsite density
   LMAXMIX     =    2 max onsite mixed and CHGCAR
   VOSKOWN=      0    Vosko Wilk Nusair interpolation
   ROPT   =    0.00000   0.00000   0.00000
 Ionic relaxation
   EDIFFG = -.5E-01   stopping-criterion for IOM
   NSW    =    100    number of steps for IOM
   NBLOCK =      1;   KBLOCK =    100    inner block; outer block 
   IBRION =      2    ionic relax: 0-MD 1-quasi-New 2-CG
   NFREE  =      1    steps in history (QN), initial steepest desc. (CG)
   ISIF   =      2    stress and relaxation
   IWAVPR =     11    prediction:  0-non 1-charg 2-wave 3-comb
   ISYM   =      2    0-nonsym 1-usesym 2-fastsym
   LCORR  =      T    Harris-Foulkes like correction to forces

   POTIM  = 0.5000    time-step for ionic-motion
   TEIN   =    0.0    initial temperature
   TEBEG  =    0.0;   TEEND  =   0.0 temperature during run
   SMASS  =  -3.00    Nose mass-parameter (am)
   estimated Nose-frequenzy (Omega)   =  0.10E-29 period in steps = 0.13E+47 mass=  -0.221E-26a.u.
   SCALEE = 1.0000    scale energy and forces
   NPACO  =    256;   APACO  = 10.0  distance and # of slots for P.C.
   PSTRESS=    0.0 pullay stress

  Mass of Ions in am
   POMASS =  28.09 30.97 16.00
  Ionic Valenz
   ZVAL   =   4.00  5.00  6.00
  Atomic Wigner-Seitz radii
   RWIGS  =  -1.00 -1.00 -1.00
  virtual crystal weights 
   VCA    =   1.00  1.00  1.00
   NELECT =     385.0000    total number of electrons
   NUPDOWN=      -1.0000    fix difference up-down

 DOS related values:
   EMIN   =  10.00;   EMAX   =-10.00  energy-range for DOS
   EFERMI =   0.00
   ISMEAR =     0;   SIGMA  =   0.05  broadening in eV -4-tet -1-fermi 0-gaus

 Electronic relaxation 2 (details)
   IALGO  =     38    algorithm
   LDIAG  =      T    sub-space diagonalisation (order eigenvalues)
   LSUBROT=      F    optimize rotation matrix (better conditioning)
   TURBO    =      0    0=normal 1=particle mesh
   IRESTART =      0    0=no restart 2=restart with 2 vectors
   NREBOOT  =      0    no. of reboots
   NMIN     =      0    reboot dimension
   EREF     =   0.00    reference energy to select bands
   IMIX   =      4    mixing-type and parameters
     AMIX     =   0.20;   BMIX     =  1.00
     AMIX_MAG =   0.80;   BMIX_MAG =  1.00
     AMIN     =   0.10
     WC   =   100.;   INIMIX=   1;  MIXPRE=   1;  MAXMIX= -45

 Intra band minimization:
   WEIMIN = 0.0010     energy-eigenvalue tresh-hold
   EBREAK =  0.98E-08  absolut break condition
   DEPER  =   0.30     relativ break condition  

   TIME   =   0.40     timestep for ELM

  volume/ion in A,a.u.               =      12.63        85.20
  Fermi-wavevector in a.u.,A,eV,Ry     =   1.229438  2.323301 20.565440  1.511517
  Thomas-Fermi vector in A             =   2.364325
 
 Write flags
   LWAVE        =      F    write WAVECAR
   LDOWNSAMPLE  =      F    k-point downsampling of WAVECAR
   LCHARG       =      F    write CHGCAR
   LVTOT        =      T    write LOCPOT, total local potential
   LVHAR        =      F    write LOCPOT, Hartree potential only
   LELF         =      F    write electronic localiz. function (ELF)
   LORBIT       =     11    0 simple, 1 ext, 2 COOP (PROOUT), +10 PAW based schemes


 Dipole corrections
   LMONO  =      F    monopole corrections only (constant potential shift)
   LDIPOL =      F    correct potential (dipole corrections)
   IDIPOL =      0    1-x, 2-y, 3-z, 4-all directions 
   EPSILON=  1.0000000 bulk dielectric constant

 Exchange correlation treatment:
   GGA     =    --    GGA type
   LEXCH   =     8    internal setting for exchange type
   LIBXC   =     F    Libxc                    
   VOSKOWN =     0    Vosko Wilk Nusair interpolation
   LHFCALC =     F    Hartree Fock is set to
   LHFONE  =     F    Hartree Fock one center treatment
   AEXX    =    0.0000 exact exchange contribution

 Linear response parameters
   LEPSILON=     F    determine dielectric tensor
   LRPA    =     F    only Hartree local field effects (RPA)
   LNABLA  =     F    use nabla operator in PAW spheres
   LVEL    =     F    velocity operator in full k-point grid
   CSHIFT  =0.1000    complex shift for real part using Kramers Kronig
   OMEGAMAX=  -1.0    maximum frequency
   DEG_THRESHOLD= 0.2000000E-02 threshold for treating states as degnerate
   RTIME   =   -0.100 relaxation time in fs
  (WPLASMAI=    0.000 imaginary part of plasma frequency in eV, 0.658/RTIME)
   DFIELD  = 0.0000000 0.0000000 0.0000000 field for delta impulse in time
 
  Optional k-point grid parameters
   LKPOINTS_OPT  =     F    use optional k-point grid
   KPOINTS_OPT_MODE=     1    mode for optional k-point grid
 
 Orbital magnetization related:
   ORBITALMAG=     F  switch on orbital magnetization
   LCHIMAG   =     F  perturbation theory with respect to B field
   DQ        =  0.001000  dq finite difference perturbation B field
   LLRAUG    =     F  two centre corrections for induced B field



--------------------------------------------------------------------------------------------------------


 conjugate gradient relaxation of ions
 charge density and potential will be updated during run
 non-spin polarized calculation
 Variant of blocked Davidson
 Davidson routine will perform the subspace rotation
 perform sub-space diagonalisation
    after iterative eigenvector-optimisation
 modified Broyden-mixing scheme, WC =      100.0
 initial mixing is a Kerker type mixing with AMIX =  0.2000 and BMIX =      1.0000
 Hartree-type preconditioning will be used
 using additional bands           63
 reciprocal scheme for non local part
 use partial core corrections
 calculate Harris-corrections to forces 
   (improved forces if not selfconsistent)
 use gradient corrections 
 use of overlap-Matrix (Vanderbilt PP)
 Gauss-broadening in eV      SIGMA  =   0.05


--------------------------------------------------------------------------------------------------------


  energy-cutoff  :      550.00
  volume of cell :      909.00
      direct lattice vectors                 reciprocal lattice vectors
     4.914966177 -8.512971136  0.000000000     0.101730100 -0.058733901  0.000000000
     4.914966177  8.512971136  0.000000000     0.101730100  0.058733901  0.000000000
     0.000000000  0.000000000 10.862602280     0.000000000  0.000000000  0.092058972

  length of vectors
     9.829932353  9.829932353 10.862602280     0.117467801  0.117467801  0.092058972


 
 k-points in units of 2pi/SCALE and weight: pymatgen with grid density = 1000 / numb
   0.00000000  0.00000000  0.00000000       0.125
   0.05086505 -0.02936695  0.00000000       0.250
   0.10173010  0.00000000  0.00000000       0.125
   0.00000000  0.00000000  0.04602949       0.125
   0.05086505 -0.02936695  0.04602949       0.250
   0.10173010  0.00000000  0.04602949       0.125
 
 k-points in reciprocal lattice and weights: pymatgen with grid density = 1000 / numb
   0.00000000  0.00000000  0.00000000       0.125
   0.50000000  0.00000000  0.00000000       0.250
   0.50000000  0.50000000  0.00000000       0.125
   0.00000000  0.00000000  0.50000000       0.125
   0.50000000  0.00000000  0.50000000       0.250
   0.50000000  0.50000000  0.50000000       0.125
 
 position of ions in fractional coordinates (direct lattice) 
   0.26554429  0.26554429  0.50000000
   0.26554429  0.76554429  0.00000000
   0.26554429  0.76554429  0.50000000
   0.76554429  0.26554429  0.00000000
   0.76554429  0.26554429  0.50000000
   0.76554429  0.76554429  0.00000000
   0.76554429  0.76554429  0.50000000
   0.00000000  0.23445571  0.33333333
   0.00000000  0.23445571  0.83333333
   0.00000000  0.73445571  0.33333333
   0.00000000  0.73445571  0.83333333
   0.50000000  0.23445571  0.33333333
   0.50000000  0.23445571  0.83333333
   0.50000000  0.73445571  0.33333333
   0.50000000  0.73445571  0.83333333
   0.23445571  0.00000000  0.16666667
   0.23445571  0.00000000  0.66666667
   0.23445571  0.50000000  0.16666667
   0.23445571  0.50000000  0.66666667
   0.73445571  0.00000000  0.16666667
   0.73445571  0.00000000  0.66666667
   0.73445571  0.50000000  0.16666667
   0.73445571  0.50000000  0.66666667
   0.26554429  0.26554429  0.00000000
   0.13461155  0.20669714  0.39244549
   0.13461155  0.20669714  0.89244549
   0.13461155  0.70669714  0.39244549
   0.13461155  0.70669714  0.89244549
   0.63461155  0.20669714  0.39244549
   0.63461155  0.20669714  0.89244549
   0.63461155  0.70669714  0.39244549
   0.63461155  0.70669714  0.89244549
   0.29330286  0.42791441  0.05911216
   0.29330286  0.42791441  0.55911216
   0.29330286  0.92791441  0.05911216
   0.29330286  0.92791441  0.55911216
   0.79330286  0.42791441  0.05911216
   0.79330286  0.42791441  0.55911216
   0.79330286  0.92791441  0.05911216
   0.79330286  0.92791441  0.55911216
   0.07208559  0.36538845  0.22577882
   0.07208559  0.36538845  0.72577882
   0.07208559  0.86538845  0.22577882
   0.07208559  0.86538845  0.72577882
   0.57208559  0.36538845  0.22577882
   0.57208559  0.36538845  0.72577882
   0.57208559  0.86538845  0.22577882
   0.57208559  0.86538845  0.72577882
   0.20669714  0.13461155  0.10755451
   0.20669714  0.13461155  0.60755451
   0.20669714  0.63461155  0.10755451
   0.20669714  0.63461155  0.60755451
   0.70669714  0.13461155  0.10755451
   0.70669714  0.13461155  0.60755451
   0.70669714  0.63461155  0.10755451
   0.70669714  0.63461155  0.60755451
   0.36538845  0.07208559  0.27422118
   0.36538845  0.07208559  0.77422118
   0.36538845  0.57208559  0.27422118
   0.36538845  0.57208559  0.77422118
   0.86538845  0.07208559  0.27422118
   0.86538845  0.07208559  0.77422118
   0.86538845  0.57208559  0.27422118
   0.86538845  0.57208559  0.77422118
   0.42791441  0.29330286  0.44088784
   0.42791441  0.29330286  0.94088784
   0.42791441  0.79330286  0.44088784
   0.42791441  0.79330286  0.94088784
   0.92791441  0.29330286  0.44088784
   0.92791441  0.29330286  0.94088784
   0.92791441  0.79330286  0.44088784
   0.92791441  0.79330286  0.94088784
 
 position of ions in cartesian coordinates  (Angst):
   2.61028246 -0.00000000  5.43130114
   5.06776555  4.25648557  0.00000000
   5.06776555  4.25648557  5.43130114
   5.06776555 -4.25648557  0.00000000
   5.06776555 -4.25648557  5.43130114
   7.52524863  0.00000000  0.00000000
   7.52524863  0.00000000  5.43130114
   1.15234186  1.99591465  3.62086743
   1.15234186  1.99591465  9.05216857
   3.60982495  6.25240022  3.62086743
   3.60982495  6.25240022  9.05216857
   3.60982495 -2.26057092  3.62086743
   3.60982495 -2.26057092  9.05216857
   6.06730804  1.99591465  3.62086743
   6.06730804  1.99591465  9.05216857
   1.15234186 -1.99591465  1.81043371
   1.15234186 -1.99591465  7.24173485
   3.60982495  2.26057092  1.81043371
   3.60982495  2.26057092  7.24173485
   3.60982495 -6.25240022  1.81043371
   3.60982495 -6.25240022  7.24173485
   6.06730804 -1.99591465  1.81043371
   6.06730804 -1.99591465  7.24173485
   2.61028246 -0.00000000  0.00000000
   1.67752072  0.61366255  4.26297927
   1.67752072  0.61366255  9.69428041
   4.13500380  4.87014811  4.26297927
   4.13500380  4.87014811  9.69428041
   4.13500380 -3.64282302  4.26297927
   4.13500380 -3.64282302  9.69428041
   6.59248689  0.61366255  4.26297927
   6.59248689  0.61366255  9.69428041
   3.54475846  1.14594428  0.64211185
   3.54475846  1.14594428  6.07341299
   6.00224155  5.40242985  0.64211185
   6.00224155  5.40242985  6.07341299
   6.00224155 -3.11054129  0.64211185
   6.00224155 -3.11054129  6.07341299
   8.45972464  1.14594428  0.64211185
   8.45972464  1.14594428  6.07341299
   2.15017009  2.49687874  2.45254556
   2.15017009  2.49687874  7.88384670
   4.60765317  6.75336431  2.45254556
   4.60765317  6.75336431  7.88384670
   4.60765317 -1.75960683  2.45254556
   4.60765317 -1.75960683  7.88384670
   7.06513626  2.49687874  2.45254556
   7.06513626  2.49687874  7.88384670
   1.67752072 -0.61366255  1.16832187
   1.67752072 -0.61366255  6.59962301
   4.13500380  3.64282302  1.16832187
   4.13500380  3.64282302  6.59962301
   4.13500380 -4.87014811  1.16832187
   4.13500380 -4.87014811  6.59962301
   6.59248689 -0.61366255  1.16832187
   6.59248689 -0.61366255  6.59962301
   2.15017009 -2.49687874  2.97875558
   2.15017009 -2.49687874  8.41005672
   4.60765317  1.75960683  2.97875558
   4.60765317  1.75960683  8.41005672
   4.60765317 -6.75336431  2.97875558
   4.60765317 -6.75336431  8.41005672
   7.06513626 -2.49687874  2.97875558
   7.06513626 -2.49687874  8.41005672
   3.54475846 -1.14594428  4.78918929
   3.54475846 -1.14594428 10.22049043
   6.00224155  3.11054129  4.78918929
   6.00224155  3.11054129 10.22049043
   6.00224155 -5.40242985  4.78918929
   6.00224155 -5.40242985 10.22049043
   8.45972464 -1.14594428  4.78918929
   8.45972464 -1.14594428 10.22049043
 


--------------------------------------------------------------------------------------------------------


 k-point   1 :   0.0000 0.0000 0.0000  plane waves:   26579
 k-point   2 :   0.5000 0.0000 0.0000  plane waves:   26614
 k-point   3 :   0.5000 0.5000 0.0000  plane waves:   26614
 k-point   4 :   0.0000 0.0000 0.5000  plane waves:   26718
 k-point   5 :   0.5000 0.0000 0.5000  plane waves:   26636
 k-point   6 :   0.5000 0.5000 0.5000  plane waves:   26636

 maximum and minimum number of plane-waves per node :     26718    26579

 maximum number of plane-waves:     26718
 maximum index in each direction: 
   IXMAX=   18   IYMAX=   18   IZMAX=   20
   IXMIN=  -19   IYMIN=  -19   IZMIN=  -21


 serial   3D FFT for wavefunctions
 parallel 3D FFT for charge:
    minimum data exchange during FFTs selected (reduces bandwidth)


 total amount of memory used by VASP MPI-rank0   114071. kBytes
=======================================================================

   base      :      30000. kBytes
   nonl-proj :      61636. kBytes
   fftplans  :       1787. kBytes
   grid      :       9934. kBytes
   one-center:        221. kBytes
   wavefun   :      10493. kBytes
 
     INWAV:  cpu time      0.0000: real time      0.0002
 Broyden mixing: mesh for mixing (old mesh)
   NGX = 37   NGY = 37   NGZ = 41
  (NGX  =112   NGY  =112   NGZ  =128)
  gives a total of  56129 points

 initial charge density was supplied:
 charge density of overlapping atoms calculated
 number of electron     385.0000000 magnetization 
 keeping initial charge density in first step


--------------------------------------------------------------------------------------------------------


 Maximum index for augmentation-charges          412 (set IRDMAX)


--------------------------------------------------------------------------------------------------------


 First call to EWALD:  gamma=   0.183
 Maximum number of real-space cells 3x 3x 3
 Maximum number of reciprocal cells 3x 3x 3

    FEWALD:  cpu time      0.0020: real time      0.0020


--------------------------------------- Iteration      1(   1)  ---------------------------------------


    POTLOK:  cpu time      0.0233: real time      0.0239
    SETDIJ:  cpu time      0.0025: real time      0.0025
     EDDAV:  cpu time      3.8402: real time      3.8620
       DOS:  cpu time      0.0018: real time      0.0018
    --------------------------------------------
      LOOP:  cpu time      3.8678: real time      3.8903

 eigenvalue-minimisations  :  3072
 total energy-change (2. order) : 0.2310134E+04  (-0.2102043E+05)
 number of electron     385.0000000 magnetization 
 augmentation part      385.0000000 magnetization 

 Free energy of the ion-electron system (eV)
  ---------------------------------------------------
  alpha Z        PSCENC =       561.29760740
  Ewald energy   TEWEN  =    -15179.19602506
  -Hartree energ DENC   =     -7505.73190397
  -exchange      EXHF   =         0.00000000
  -V(xc)+E(xc)   XCENC  =      1145.24165978
  PAW double counting   =     18800.98231178   -18474.51157198
  entropy T*S    EENTRO =        -0.01514972
  eigenvalues    EBANDS =      -337.75608954
  atomic energy  EATOM  =     23299.82317458
  Solvation  Ediel_sol  =         0.00000000
  ---------------------------------------------------
  free energy    TOTEN  =      2310.13401326 eV

  energy without entropy =     2310.14916298  energy(sigma->0) =     2310.14158812


--------------------------------------------------------------------------------------------------------




--------------------------------------- Iteration      1(   2)  ---------------------------------------


     EDDAV:  cpu time      5.0784: real time      5.1075
       DOS:  cpu time      0.0008: real time      0.0008
    --------------------------------------------
      LOOP:  cpu time      5.0791: real time      5.1082

 eigenvalue-minimisations  :  4224
 total energy-change (2. order) :-0.2806248E+04  (-0.2739305E+04)
 number of electron     385.0000000 magnetization 
 augmentation part      385.0000000 magnetization 

 Free energy of the ion-electron system (eV)
  ---------------------------------------------------
  alpha Z        PSCENC =       561.29760740
  Ewald energy   TEWEN  =    -15179.19602506
  -Hartree energ DENC   =     -7505.73190397
  -exchange      EXHF   =         0.00000000
  -V(xc)+E(xc)   XCENC  =      1145.24165978
  PAW double counting   =     18800.98231178   -18474.51157198
  entropy T*S    EENTRO =        -0.00091231
  eigenvalues    EBANDS =     -3144.01814263
  atomic energy  EATOM  =     23299.82317458
  Solvation  Ediel_sol  =         0.00000000
  ---------------------------------------------------
  free energy    TOTEN  =      -496.11380242 eV

  energy without entropy =     -496.11289011  energy(sigma->0) =     -496.11334627


--------------------------------------------------------------------------------------------------------




--------------------------------------- Iteration      1(   3)  ---------------------------------------


     EDDAV:  cpu time      4.6621: real time      4.6872
       DOS:  cpu time      0.0008: real time      0.0008
    --------------------------------------------
      LOOP:  cpu time      4.6629: real time      4.6880

 eigenvalue-minimisations  :  3840
 total energy-change (2. order) :-0.1405118E+03  (-0.1399716E+03)
 number of electron     385.0000000 magnetization 
 augmentation part      385.0000000 magnetization 

 Free energy of the ion-electron system (eV)
  ---------------------------------------------------
  alpha Z        PSCENC =       561.29760740
  Ewald energy   TEWEN  =    -15179.19602506
  -Hartree energ DENC   =     -7505.73190397
  -exchange      EXHF   =         0.00000000
  -V(xc)+E(xc)   XCENC  =      1145.24165978
  PAW double counting   =     18800.98231178   -18474.51157198
  entropy T*S    EENTRO =        -0.01093724
  eigenvalues    EBANDS =     -3284.51996227
  atomic energy  EATOM  =     23299.82317458
  Solvation  Ediel_sol  =         0.00000000
  ---------------------------------------------------
  free energy    TOTEN  =      -636.62564699 eV

  energy without entropy =     -636.61470975  energy(sigma->0) =     -636.62017837


--------------------------------------------------------------------------------------------------------




--------------------------------------- Iteration      1(   4)  ---------------------------------------


     EDDAV:  cpu time      4.6343: real time      4.6594
       DOS:  cpu time      0.0006: real time      0.0006
    --------------------------------------------
      LOOP:  cpu time      4.6349: real time      4.6600

 eigenvalue-minimisations  :  3840
 total energy-change (2. order) :-0.1556964E+01  (-0.1555281E+01)
 number of electron     385.0000000 magnetization 
 augmentation part      385.0000000 magnetization 

 Free energy of the ion-electron system (eV)
  ---------------------------------------------------
  alpha Z        PSCENC =       561.29760740
  Ewald energy   TEWEN  =    -15179.19602506
  -Hartree energ DENC   =     -7505.73190397
  -exchange      EXHF   =         0.00000000
  -V(xc)+E(xc)   XCENC  =      1145.24165978
  PAW double counting   =     18800.98231178   -18474.51157198
  entropy T*S    EENTRO =        -0.01136581
  eigenvalues    EBANDS =     -3286.07649802
  atomic energy  EATOM  =     23299.82317458
  Solvation  Ediel_sol  =         0.00000000
  ---------------------------------------------------
  free energy    TOTEN  =      -638.18261131 eV

  energy without entropy =     -638.17124550  energy(sigma->0) =     -638.17692841


--------------------------------------------------------------------------------------------------------




--------------------------------------- Iteration      1(   5)  ---------------------------------------


     EDDAV:  cpu time      7.7561: real time      7.7966
       DOS:  cpu time      0.0006: real time      0.0006
    CHARGE:  cpu time      0.0614: real time      0.0619
    MIXING:  cpu time      0.0012: real time      0.0012
    --------------------------------------------
      LOOP:  cpu time      7.8193: real time      7.8604

 eigenvalue-minimisations  :  3712
 total energy-change (2. order) :-0.2399096E-01  (-0.2398701E-01)
 number of electron     385.0000060 magnetization 
 augmentation part       35.3318652 magnetization 

 Broyden mixing:
  rms(total) = 0.72893E+01    rms(broyden)= 0.72885E+01
  rms(prec ) = 0.83842E+01
  weight for this iteration     100.00

 Free energy of the ion-electron system (eV)
  ---------------------------------------------------
  alpha Z        PSCENC =       561.29760740
  Ewald energy   TEWEN  =    -15179.19602506
  -Hartree energ DENC   =     -7505.73190397
  -exchange      EXHF   =         0.00000000
  -V(xc)+E(xc)   XCENC  =      1145.24165978
  PAW double counting   =     18800.98231178   -18474.51157198
  entropy T*S    EENTRO =        -0.01136902
  eigenvalues    EBANDS =     -3286.10048577
  atomic energy  EATOM  =     23299.82317458
  Solvation  Ediel_sol  =         0.00000000
  ---------------------------------------------------
  free energy    TOTEN  =      -638.20660228 eV

  energy without entropy =     -638.19523325  energy(sigma->0) =     -638.20091777


--------------------------------------------------------------------------------------------------------




--------------------------------------- Iteration      1(   6)  ---------------------------------------


    POTLOK:  cpu time      0.0147: real time      0.0150
    SETDIJ:  cpu time      0.0020: real time      0.0020
     EDDAV:  cpu time      4.9138: real time      4.9395
       DOS:  cpu time      0.0008: real time      0.0008
    CHARGE:  cpu time      0.0564: real time      0.0568
    MIXING:  cpu time      0.0007: real time      0.0007
    --------------------------------------------
      LOOP:  cpu time      4.9883: real time      5.0148

 eigenvalue-minimisations  :  3840
 total energy-change (2. order) : 0.5519563E+02  (-0.7489127E+01)
 number of electron     385.0000056 magnetization 
 augmentation part       31.8561034 magnetization 

 Broyden mixing:
  rms(total) = 0.50206E+01    rms(broyden)= 0.50206E+01
  rms(prec ) = 0.55352E+01
  weight for this iteration     100.00

 eigenvalues of (default mixing * dielectric matrix)
  average eigenvalue GAMMA=   2.3405
  2.3405

 Free energy of the ion-electron system (eV)
  ---------------------------------------------------
  alpha Z        PSCENC =       561.29760740
  Ewald energy   TEWEN  =    -15179.19602506
  -Hartree energ DENC   =     -7924.00822667
  -exchange      EXHF   =         0.00000000
  -V(xc)+E(xc)   XCENC  =      1173.45716943
  PAW double counting   =     24866.15290513   -24547.97497489
  entropy T*S    EENTRO =        -0.00932503
  eigenvalues    EBANDS =     -2832.55327509
  atomic energy  EATOM  =     23299.82317458
  Solvation  Ediel_sol  =         0.00000000
  ---------------------------------------------------
  free energy    TOTEN  =      -583.01097021 eV

  energy without entropy =     -583.00164518  energy(sigma->0) =     -583.00630769


--------------------------------------------------------------------------------------------------------




--------------------------------------- Iteration      1(   7)  ---------------------------------------


    POTLOK:  cpu time      0.0134: real time      0.0138
    SETDIJ:  cpu time      0.0021: real time      0.0021
     EDDAV:  cpu time      4.8531: real time      4.8780
       DOS:  cpu time      0.0009: real time      0.0009
    CHARGE:  cpu time      0.0528: real time      0.0532
    MIXING:  cpu time      0.0006: real time      0.0006
    --------------------------------------------
      LOOP:  cpu time      4.9229: real time      4.9485

 eigenvalue-minimisations  :  3840
 total energy-change (2. order) : 0.2061741E+02  (-0.1181985E+02)
 number of electron     385.0000050 magnetization 
 augmentation part       27.5527853 magnetization 

 Broyden mixing:
  rms(total) = 0.23185E+01    rms(broyden)= 0.23180E+01
  rms(prec ) = 0.24007E+01
  weight for this iteration     100.00

 eigenvalues of (default mixing * dielectric matrix)
  average eigenvalue GAMMA=   2.5103
  2.5103  2.5103

 Free energy of the ion-electron system (eV)
  ---------------------------------------------------
  alpha Z        PSCENC =       561.29760740
  Ewald energy   TEWEN  =    -15179.19602506
  -Hartree energ DENC   =     -8476.29021623
  -exchange      EXHF   =         0.00000000
  -V(xc)+E(xc)   XCENC  =      1210.68294832
  PAW double counting   =     42891.38444483   -42583.18015118
  entropy T*S    EENTRO =        -0.01314179
  eigenvalues    EBANDS =     -2286.90220062
  atomic energy  EATOM  =     23299.82317458
  Solvation  Ediel_sol  =         0.00000000
  ---------------------------------------------------
  free energy    TOTEN  =      -562.39355974 eV

  energy without entropy =     -562.38041796  energy(sigma->0) =     -562.38698885


--------------------------------------------------------------------------------------------------------




--------------------------------------- Iteration      1(   8)  ---------------------------------------


    POTLOK:  cpu time      0.0125: real time      0.0129
    SETDIJ:  cpu time      0.0021: real time      0.0021
     EDDAV:  cpu time      4.5000: real time      4.5233
       DOS:  cpu time      0.0008: real time      0.0009
    CHARGE:  cpu time      0.0530: real time      0.0534
    MIXING:  cpu time      0.0006: real time      0.0006
    --------------------------------------------
      LOOP:  cpu time      4.5690: real time      4.5931

 eigenvalue-minimisations  :  3776
 total energy-change (2. order) : 0.9284502E-04  (-0.5713435E+00)
 number of electron     385.0000051 magnetization 
 augmentation part       28.3052390 magnetization 

 Broyden mixing:
  rms(total) = 0.75526E+00    rms(broyden)= 0.75526E+00
  rms(prec ) = 0.83318E+00
  weight for this iteration     100.00

 eigenvalues of (default mixing * dielectric matrix)
  average eigenvalue GAMMA=   2.5014
  4.2327  1.2387  2.0329

 Free energy of the ion-electron system (eV)
  ---------------------------------------------------
  alpha Z        PSCENC =       561.29760740
  Ewald energy   TEWEN  =    -15179.19602506
  -Hartree energ DENC   =     -8440.85910581
  -exchange      EXHF   =         0.00000000
  -V(xc)+E(xc)   XCENC  =      1208.65274216
  PAW double counting   =     55604.75321070   -55294.55356361
  entropy T*S    EENTRO =        -0.01275599
  eigenvalues    EBANDS =     -2322.29875126
  atomic energy  EATOM  =     23299.82317458
  Solvation  Ediel_sol  =         0.00000000
  ---------------------------------------------------
  free energy    TOTEN  =      -562.39346690 eV

  energy without entropy =     -562.38071091  energy(sigma->0) =     -562.38708890


--------------------------------------------------------------------------------------------------------




--------------------------------------- Iteration      1(   9)  ---------------------------------------


    POTLOK:  cpu time      0.0135: real time      0.0138
    SETDIJ:  cpu time      0.0021: real time      0.0021
     EDDAV:  cpu time      4.5084: real time      4.5318
       DOS:  cpu time      0.0009: real time      0.0009
    CHARGE:  cpu time      0.0558: real time      0.0562
    MIXING:  cpu time      0.0008: real time      0.0008
    --------------------------------------------
      LOOP:  cpu time      4.5814: real time      4.6056

 eigenvalue-minimisations  :  3840
 total energy-change (2. order) : 0.1166984E+00  (-0.8637479E-01)
 number of electron     385.0000050 magnetization 
 augmentation part       27.9983926 magnetization 

 Broyden mixing:
  rms(total) = 0.20512E+00    rms(broyden)= 0.20510E+00
  rms(prec ) = 0.22478E+00
  weight for this iteration     100.00

 eigenvalues of (default mixing * dielectric matrix)
  average eigenvalue GAMMA=   2.4868
  4.9072  0.9877  2.0261  2.0261

 Free energy of the ion-electron system (eV)
  ---------------------------------------------------
  alpha Z        PSCENC =       561.29760740
  Ewald energy   TEWEN  =    -15179.19602506
  -Hartree energ DENC   =     -8524.19388369
  -exchange      EXHF   =         0.00000000
  -V(xc)+E(xc)   XCENC  =      1214.59916914
  PAW double counting   =     65006.63256314   -64697.62903849
  entropy T*S    EENTRO =        -0.01310644
  eigenvalues    EBANDS =     -2243.59722905
  atomic energy  EATOM  =     23299.82317458
  Solvation  Ediel_sol  =         0.00000000
  ---------------------------------------------------
  free energy    TOTEN  =      -562.27676848 eV

  energy without entropy =     -562.26366204  energy(sigma->0) =     -562.27021526


--------------------------------------------------------------------------------------------------------




--------------------------------------- Iteration      1(  10)  ---------------------------------------


    POTLOK:  cpu time      0.0130: real time      0.0135
    SETDIJ:  cpu time      0.0020: real time      0.0020
     EDDAV:  cpu time      4.5097: real time      4.5337
       DOS:  cpu time      0.0011: real time      0.0011
    CHARGE:  cpu time      0.0625: real time      0.0629
    MIXING:  cpu time      0.0008: real time      0.0008
    --------------------------------------------
      LOOP:  cpu time      4.5891: real time      4.6139

 eigenvalue-minimisations  :  3840
 total energy-change (2. order) :-0.4988127E-01  (-0.1015911E-01)
 number of electron     385.0000050 magnetization 
 augmentation part       27.9106779 magnetization 

 Broyden mixing:
  rms(total) = 0.21364E+00    rms(broyden)= 0.21364E+00
  rms(prec ) = 0.21796E+00
  weight for this iteration     100.00

 eigenvalues of (default mixing * dielectric matrix)
  average eigenvalue GAMMA=   2.9077
  5.3472  5.0511  1.9756  1.0013  1.1634

 Free energy of the ion-electron system (eV)
  ---------------------------------------------------
  alpha Z        PSCENC =       561.29760740
  Ewald energy   TEWEN  =    -15179.19602506
  -Hartree energ DENC   =     -8548.06267791
  -exchange      EXHF   =         0.00000000
  -V(xc)+E(xc)   XCENC  =      1216.31111409
  PAW double counting   =     66584.98662256   -66276.39331778
  entropy T*S    EENTRO =        -0.01319637
  eigenvalues    EBANDS =     -2221.07995127
  atomic energy  EATOM  =     23299.82317458
  Solvation  Ediel_sol  =         0.00000000
  ---------------------------------------------------
  free energy    TOTEN  =      -562.32664976 eV

  energy without entropy =     -562.31345339  energy(sigma->0) =     -562.32005157


--------------------------------------------------------------------------------------------------------




--------------------------------------- Iteration      1(  11)  ---------------------------------------


    POTLOK:  cpu time      0.0133: real time      0.0136
    SETDIJ:  cpu time      0.0021: real time      0.0021
     EDDAV:  cpu time      4.4804: real time      4.5047
       DOS:  cpu time      0.0009: real time      0.0009
    CHARGE:  cpu time      0.0531: real time      0.0535
    MIXING:  cpu time      0.0007: real time      0.0007
    --------------------------------------------
      LOOP:  cpu time      4.5505: real time      4.5755

 eigenvalue-minimisations  :  3840
 total energy-change (2. order) :-0.1561699E-01  (-0.5236732E-02)
 number of electron     385.0000050 magnetization 
 augmentation part       27.9977861 magnetization 

 Broyden mixing:
  rms(total) = 0.50716E-01    rms(broyden)= 0.50709E-01
  rms(prec ) = 0.52909E-01
  weight for this iteration     100.00

 eigenvalues of (default mixing * dielectric matrix)
  average eigenvalue GAMMA=   2.5719
  5.3170  4.6871  1.9937  1.4126  0.9661  1.0551

 Free energy of the ion-electron system (eV)
  ---------------------------------------------------
  alpha Z        PSCENC =       561.29760740
  Ewald energy   TEWEN  =    -15179.19602506
  -Hartree energ DENC   =     -8543.69058116
  -exchange      EXHF   =         0.00000000
  -V(xc)+E(xc)   XCENC  =      1215.94768324
  PAW double counting   =     63578.37273604   -63269.86494785
  entropy T*S    EENTRO =        -0.01317440
  eigenvalues    EBANDS =     -2225.01873953
  atomic energy  EATOM  =     23299.82317458
  Solvation  Ediel_sol  =         0.00000000
  ---------------------------------------------------
  free energy    TOTEN  =      -562.34226674 eV

  energy without entropy =     -562.32909234  energy(sigma->0) =     -562.33567954


--------------------------------------------------------------------------------------------------------




--------------------------------------- Iteration      1(  12)  ---------------------------------------


    POTLOK:  cpu time      0.0134: real time      0.0137
    SETDIJ:  cpu time      0.0021: real time      0.0021
     EDDAV:  cpu time      4.4886: real time      4.5117
       DOS:  cpu time      0.0006: real time      0.0006
    CHARGE:  cpu time      0.0517: real time      0.0521
    MIXING:  cpu time      0.0008: real time      0.0008
    --------------------------------------------
      LOOP:  cpu time      4.5572: real time      4.5810

 eigenvalue-minimisations  :  3840
 total energy-change (2. order) : 0.9642143E-03  (-0.3866344E-03)
 number of electron     385.0000050 magnetization 
 augmentation part       27.9783517 magnetization 

 Broyden mixing:
  rms(total) = 0.20226E-01    rms(broyden)= 0.20226E-01
  rms(prec ) = 0.20868E-01
  weight for this iteration     100.00

 eigenvalues of (default mixing * dielectric matrix)
  average eigenvalue GAMMA=   2.4252
  5.3487  4.6023  1.9878  1.9878  1.0635  0.9932  0.9932

 Free energy of the ion-electron system (eV)
  ---------------------------------------------------
  alpha Z        PSCENC =       561.29760740
  Ewald energy   TEWEN  =    -15179.19602506
  -Hartree energ DENC   =     -8546.32019675
  -exchange      EXHF   =         0.00000000
  -V(xc)+E(xc)   XCENC  =      1216.13319121
  PAW double counting   =     64002.67186832   -63694.16917235
  entropy T*S    EENTRO =        -0.01324574
  eigenvalues    EBANDS =     -2222.56850413
  atomic energy  EATOM  =     23299.82317458
  Solvation  Ediel_sol  =         0.00000000
  ---------------------------------------------------
  free energy    TOTEN  =      -562.34130253 eV

  energy without entropy =     -562.32805679  energy(sigma->0) =     -562.33467966


--------------------------------------------------------------------------------------------------------




--------------------------------------- Iteration      1(  13)  ---------------------------------------


    POTLOK:  cpu time      0.0150: real time      0.0153
    SETDIJ:  cpu time      0.0021: real time      0.0021
     EDDAV:  cpu time      4.5178: real time      4.5414
       DOS:  cpu time      0.0008: real time      0.0008
    CHARGE:  cpu time      0.0533: real time      0.0537
    MIXING:  cpu time      0.0007: real time      0.0008
    --------------------------------------------
      LOOP:  cpu time      4.5898: real time      4.6141

 eigenvalue-minimisations  :  3840
 total energy-change (2. order) :-0.3363645E-03  (-0.4492048E-04)
 number of electron     385.0000050 magnetization 
 augmentation part       27.9764550 magnetization 

 Broyden mixing:
  rms(total) = 0.12248E-01    rms(broyden)= 0.12248E-01
  rms(prec ) = 0.12629E-01
  weight for this iteration     100.00

 eigenvalues of (default mixing * dielectric matrix)
  average eigenvalue GAMMA=   2.3370
  5.3448  4.5752  1.9528  1.7957  1.7957  0.9514  1.0934  1.1870

 Free energy of the ion-electron system (eV)
  ---------------------------------------------------
  alpha Z        PSCENC =       561.29760740
  Ewald energy   TEWEN  =    -15179.19602506
  -Hartree energ DENC   =     -8546.65573263
  -exchange      EXHF   =         0.00000000
  -V(xc)+E(xc)   XCENC  =      1216.15583288
  PAW double counting   =     64092.23987267   -63783.71028017
  entropy T*S    EENTRO =        -0.01328215
  eigenvalues    EBANDS =     -2222.28280641
  atomic energy  EATOM  =     23299.82317458
  Solvation  Ediel_sol  =         0.00000000
  ---------------------------------------------------
  free energy    TOTEN  =      -562.34163889 eV

  energy without entropy =     -562.32835674  energy(sigma->0) =     -562.33499782


--------------------------------------------------------------------------------------------------------




--------------------------------------- Iteration      1(  14)  ---------------------------------------


    POTLOK:  cpu time      0.0150: real time      0.0153
    SETDIJ:  cpu time      0.0020: real time      0.0021
     EDDAV:  cpu time      4.4994: real time      4.5231
       DOS:  cpu time      0.0007: real time      0.0007
    CHARGE:  cpu time      0.0541: real time      0.0545
    MIXING:  cpu time      0.0008: real time      0.0008
    --------------------------------------------
      LOOP:  cpu time      4.5720: real time      4.5964

 eigenvalue-minimisations  :  3840
 total energy-change (2. order) :-0.1530160E-03  (-0.4818023E-05)
 number of electron     385.0000050 magnetization 
 augmentation part       27.9778977 magnetization 

 Broyden mixing:
  rms(total) = 0.96247E-02    rms(broyden)= 0.96247E-02
  rms(prec ) = 0.10059E-01
  weight for this iteration     100.00

 eigenvalues of (default mixing * dielectric matrix)
  average eigenvalue GAMMA=   2.5737
  5.4923  4.6813  4.6813  2.0458  2.0458  1.1161  1.1161  0.9685  1.0161

 Free energy of the ion-electron system (eV)
  ---------------------------------------------------
  alpha Z        PSCENC =       561.29760740
  Ewald energy   TEWEN  =    -15179.19602506
  -Hartree energ DENC   =     -8546.59717622
  -exchange      EXHF   =         0.00000000
  -V(xc)+E(xc)   XCENC  =      1216.15027195
  PAW double counting   =     64106.69803063   -63798.15493903
  entropy T*S    EENTRO =        -0.01327422
  eigenvalues    EBANDS =     -2222.34946193
  atomic energy  EATOM  =     23299.82317458
  Solvation  Ediel_sol  =         0.00000000
  ---------------------------------------------------
  free energy    TOTEN  =      -562.34179191 eV

  energy without entropy =     -562.32851768  energy(sigma->0) =     -562.33515480


--------------------------------------------------------------------------------------------------------




--------------------------------------- Iteration      1(  15)  ---------------------------------------


    POTLOK:  cpu time      0.0133: real time      0.0137
    SETDIJ:  cpu time      0.0021: real time      0.0021
     EDDAV:  cpu time      4.4679: real time      4.4914
       DOS:  cpu time      0.0011: real time      0.0011
    CHARGE:  cpu time      0.0585: real time      0.0589
    MIXING:  cpu time      0.0008: real time      0.0008
    --------------------------------------------
      LOOP:  cpu time      4.5437: real time      4.5680

 eigenvalue-minimisations  :  3840
 total energy-change (2. order) :-0.1823519E-03  (-0.2918837E-04)
 number of electron     385.0000050 magnetization 
 augmentation part       27.9739422 magnetization 

 Broyden mixing:
  rms(total) = 0.13187E-02    rms(broyden)= 0.13182E-02
  rms(prec ) = 0.14903E-02
  weight for this iteration     100.00

 eigenvalues of (default mixing * dielectric matrix)
  average eigenvalue GAMMA=   2.4273
  5.5050  4.8990  4.8990  1.9571  1.8239  1.1875  1.1875  1.0210  0.9562  0.8364

 Free energy of the ion-electron system (eV)
  ---------------------------------------------------
  alpha Z        PSCENC =       561.29760740
  Ewald energy   TEWEN  =    -15179.19602506
  -Hartree energ DENC   =     -8547.33193941
  -exchange      EXHF   =         0.00000000
  -V(xc)+E(xc)   XCENC  =      1216.19623559
  PAW double counting   =     64193.59225906   -63885.02483620
  entropy T*S    EENTRO =        -0.01328567
  eigenvalues    EBANDS =     -2221.68516455
  atomic energy  EATOM  =     23299.82317458
  Solvation  Ediel_sol  =         0.00000000
  ---------------------------------------------------
  free energy    TOTEN  =      -562.34197426 eV

  energy without entropy =     -562.32868859  energy(sigma->0) =     -562.33533143


--------------------------------------------------------------------------------------------------------




--------------------------------------- Iteration      1(  16)  ---------------------------------------


    POTLOK:  cpu time      0.0131: real time      0.0135
    SETDIJ:  cpu time      0.0020: real time      0.0020
     EDDAV:  cpu time      3.4725: real time      3.4912
       DOS:  cpu time      0.0006: real time      0.0006
    --------------------------------------------
      LOOP:  cpu time      3.4882: real time      3.5073

 eigenvalue-minimisations  :  2688
 total energy-change (2. order) :-0.5469781E-05  (-0.8059122E-06)
 number of electron     385.0000050 magnetization 
 augmentation part       27.9739422 magnetization 

 Free energy of the ion-electron system (eV)
  ---------------------------------------------------
  alpha Z        PSCENC =       561.29760740
  Ewald energy   TEWEN  =    -15179.19602506
  -Hartree energ DENC   =     -8547.36603762
  -exchange      EXHF   =         0.00000000
  -V(xc)+E(xc)   XCENC  =      1216.19820542
  PAW double counting   =     64201.25643391   -63892.68688886
  entropy T*S    EENTRO =        -0.01328969
  eigenvalues    EBANDS =     -2221.65515981
  atomic energy  EATOM  =     23299.82317458
  Solvation  Ediel_sol  =         0.00000000
  ---------------------------------------------------
  free energy    TOTEN  =      -562.34197973 eV

  energy without entropy =     -562.32869004  energy(sigma->0) =     -562.33533489


--------------------------------------------------------------------------------------------------------




 average (electrostatic) potential at core
  the test charge radii are     0.9892  0.9587  0.7215
  (the norm of the test charge is              1.0000)
       1 -86.4041       2 -86.4568       3 -86.3803       4 -86.4568       5 -86.3803
       6 -86.4239       7 -86.3759       8 -86.4275       9 -86.6536      10 -86.3927
      11 -86.4098      12 -86.4212      13 -86.6555      14 -86.4020      15 -86.4172
      16 -86.6536      17 -86.4275      18 -86.6555      19 -86.4212      20 -86.4098
      21 -86.3927      22 -86.4172      23 -86.4020      24 -88.3698      25 -72.3544
      26 -73.4199      27 -72.3159      28 -72.3538      29 -72.3192      30 -72.4337
      31 -72.3139      32 -72.3638      33 -73.4435      34 -72.3360      35 -72.4583
      36 -72.3246      37 -72.3648      38 -72.3146      39 -72.3652      40 -72.3108
      41 -72.4526      42 -72.4249      43 -72.3938      44 -72.3488      45 -72.3792
      46 -72.4086      47 -72.3309      48 -72.3233      49 -73.4199      50 -72.3544
      51 -72.4337      52 -72.3192      53 -72.3538      54 -72.3159      55 -72.3638
      56 -72.3139      57 -72.4249      58 -72.4526      59 -72.4086      60 -72.3792
      61 -72.3488      62 -72.3938      63 -72.3233      64 -72.3309      65 -72.3360
      66 -73.4435      67 -72.3146      68 -72.3648      69 -72.3246      70 -72.4583
      71 -72.3108      72 -72.3652
 
 
 
 E-fermi :   7.1220     XC(G=0):  -9.2125     alpha+bet :-10.2658

 Fermi energy:         7.1219500139

 k-point     1 :       0.0000    0.0000    0.0000
  band No.  band energies     occupation 
      1     -19.3459      2.00000
      2     -18.2059      2.00000
      3     -18.0827      2.00000
      4     -18.0182      2.00000
      5     -17.9452      2.00000
      6     -17.8138      2.00000
      7     -17.8111      2.00000
      8     -17.7369      2.00000
      9     -17.7263      2.00000
     10     -17.5944      2.00000
     11     -17.5668      2.00000
     12     -17.4962      2.00000
     13     -17.3447      2.00000
     14     -17.3037      2.00000
     15     -17.3026      2.00000
     16     -17.2728      2.00000
     17     -17.0657      2.00000
     18     -17.0147      2.00000
     19     -16.9407      2.00000
     20     -16.8404      2.00000
     21     -16.8165      2.00000
     22     -16.7417      2.00000
     23     -16.7316      2.00000
     24     -16.6397      2.00000
     25     -16.5678      2.00000
     26     -16.5491      2.00000
     27     -16.2507      2.00000
     28     -16.2337      2.00000
     29     -16.2158      2.00000
     30     -16.2155      2.00000
     31     -16.2138      2.00000
     32     -16.1862      2.00000
     33     -16.1771      2.00000
     34     -16.1624      2.00000
     35     -16.1581      2.00000
     36     -16.1549      2.00000
     37     -16.1483      2.00000
     38     -16.1413      2.00000
     39     -16.1302      2.00000
     40     -16.1269      2.00000
     41     -16.1235      2.00000
     42     -16.1142      2.00000
     43     -16.1102      2.00000
     44     -16.1014      2.00000
     45     -16.0904      2.00000
     46     -16.0894      2.00000
     47     -16.0739      2.00000
     48     -16.0491      2.00000
     49      -9.4064      2.00000
     50      -7.9839      2.00000
     51      -7.4717      2.00000
     52      -7.4651      2.00000
     53      -7.2651      2.00000
     54      -7.1851      2.00000
[...]
   -.334E+01 -.352E+01 0.224E+01   0.369E+01 0.572E+01 0.475E+00   -.344E+00 -.218E+01 -.270E+01   -.601E-03 -.203E-02 0.605E-03
   0.929E+00 -.400E+01 0.255E+01   -.480E+00 0.374E+01 -.277E+01   -.439E+00 0.267E+00 0.243E+00   0.393E-03 0.477E-03 -.461E-03
   0.268E+01 -.300E+01 -.944E+00   -.257E+01 0.278E+01 0.991E+00   -.859E-01 0.215E+00 -.437E-01   -.152E-02 -.370E-02 -.174E-02
   0.297E-01 -.318E+01 -.464E+00   -.294E+00 0.307E+01 0.685E-01   0.276E+00 0.904E-01 0.383E+00   0.518E-03 0.926E-03 0.154E-02
   -.663E+00 -.511E-01 -.143E+01   0.810E+00 -.978E-01 0.144E+01   -.148E+00 0.129E+00 -.148E-02   0.183E-02 0.277E-02 -.496E-03
   0.280E+01 -.344E-01 0.104E+01   -.213E+01 -.198E+00 -.121E+01   -.677E+00 0.209E+00 0.170E+00   -.450E-03 -.211E-02 0.145E-02
   0.905E+00 -.333E-07 0.370E-06   -.122E+01 0.382E-13 0.977E-14   0.304E+00 -.856E-18 -.125E-16   -.404E-03 -.956E-12 0.101E-11
   0.407E+02 0.570E+02 0.295E+02   -.488E+02 -.743E+02 -.409E+02   0.813E+01 0.173E+02 0.113E+02   -.111E-01 0.997E-02 -.153E-01
   0.710E+02 0.312E+02 0.729E+02   -.836E+02 -.435E+02 -.900E+02   0.126E+02 0.123E+02 0.170E+02   -.552E-03 -.859E-03 0.379E-02
   0.397E+02 0.587E+02 0.339E+02   -.477E+02 -.758E+02 -.453E+02   0.804E+01 0.171E+02 0.114E+02   0.143E-02 0.462E-03 -.239E-02
   0.415E+02 0.584E+02 0.342E+02   -.501E+02 -.754E+02 -.456E+02   0.861E+01 0.170E+02 0.114E+02   -.331E-03 0.186E-02 -.204E-02
   0.412E+02 0.587E+02 0.313E+02   -.497E+02 -.760E+02 -.426E+02   0.850E+01 0.172E+02 0.113E+02   0.304E-02 -.843E-03 0.197E-02
   0.383E+02 0.589E+02 0.346E+02   -.466E+02 -.757E+02 -.445E+02   0.824E+01 0.168E+02 0.991E+01   0.137E-02 -.799E-03 -.121E-02
   0.400E+02 0.567E+02 0.316E+02   -.483E+02 -.739E+02 -.429E+02   0.834E+01 0.172E+02 0.112E+02   0.140E-02 0.879E-03 -.361E-02
   0.379E+02 0.565E+02 0.344E+02   -.463E+02 -.736E+02 -.456E+02   0.848E+01 0.171E+02 0.111E+02   0.771E-02 -.589E-02 0.895E-02
   -.101E+03 -.371E+02 0.672E+01   0.124E+03 0.447E+02 -.130E+02   -.228E+02 -.757E+01 0.628E+01   -.246E-02 -.169E-02 -.418E-02
   -.700E+02 0.427E+01 0.354E+02   0.888E+02 -.310E+01 -.469E+02   -.188E+02 -.119E+01 0.115E+02   0.919E-02 0.168E-01 0.817E-02
   -.655E+02 0.132E+02 0.301E+02   0.842E+02 -.121E+02 -.423E+02   -.187E+02 -.117E+01 0.123E+02   -.259E-02 0.506E-04 0.215E-02
   -.712E+02 0.839E+01 0.339E+02   0.904E+02 -.731E+01 -.450E+02   -.192E+02 -.108E+01 0.111E+02   -.229E-02 -.384E-02 -.236E-02
   -.716E+02 0.741E+01 0.337E+02   0.908E+02 -.590E+01 -.451E+02   -.192E+02 -.152E+01 0.114E+02   0.879E-03 -.728E-03 -.259E-02
   -.694E+02 0.746E+01 0.330E+02   0.881E+02 -.620E+01 -.441E+02   -.187E+02 -.126E+01 0.112E+02   -.189E-02 -.365E-02 -.142E-02
   -.666E+02 0.407E+01 0.325E+02   0.856E+02 -.277E+01 -.438E+02   -.190E+02 -.129E+01 0.113E+02   -.469E-02 -.616E-02 -.463E-02
   -.698E+02 0.437E+01 0.338E+02   0.889E+02 -.309E+01 -.452E+02   -.191E+02 -.129E+01 0.114E+02   0.940E-03 0.303E-02 0.100E-02
   0.292E+02 -.692E+02 0.268E+02   -.410E+02 0.842E+02 -.382E+02   0.118E+02 -.150E+02 0.113E+02   0.446E-02 -.672E-03 -.431E-02
   0.308E+02 -.667E+02 0.369E+02   -.403E+02 0.819E+02 -.485E+02   0.955E+01 -.152E+02 0.115E+02   -.542E-02 0.142E-02 0.435E-02
   0.314E+02 -.616E+02 0.299E+02   -.427E+02 0.779E+02 -.408E+02   0.113E+02 -.164E+02 0.109E+02   -.607E-03 -.282E-02 -.412E-02
   0.318E+02 -.617E+02 0.370E+02   -.424E+02 0.774E+02 -.482E+02   0.107E+02 -.157E+02 0.111E+02   -.319E-02 -.538E-05 0.184E-02
   0.263E+02 -.592E+02 0.281E+02   -.371E+02 0.749E+02 -.396E+02   0.108E+02 -.157E+02 0.115E+02   -.243E-03 -.164E-02 -.680E-03
   0.265E+02 -.605E+02 0.353E+02   -.362E+02 0.771E+02 -.465E+02   0.966E+01 -.167E+02 0.112E+02   -.129E-02 -.362E-02 0.262E-02
   0.308E+02 -.662E+02 0.320E+02   -.415E+02 0.822E+02 -.434E+02   0.107E+02 -.160E+02 0.114E+02   0.231E-02 -.366E-03 -.437E-02
   0.286E+02 -.660E+02 0.352E+02   -.393E+02 0.819E+02 -.464E+02   0.107E+02 -.159E+02 0.112E+02   0.410E-02 0.144E-02 -.891E-03
   0.710E+02 -.312E+02 -.729E+02   -.836E+02 0.435E+02 0.900E+02   0.126E+02 -.123E+02 -.170E+02   -.552E-03 0.859E-03 -.379E-02
   0.407E+02 -.570E+02 -.295E+02   -.488E+02 0.743E+02 0.409E+02   0.813E+01 -.173E+02 -.113E+02   -.111E-01 -.997E-02 0.153E-01
   0.383E+02 -.589E+02 -.346E+02   -.466E+02 0.757E+02 0.445E+02   0.824E+01 -.168E+02 -.991E+01   0.137E-02 0.799E-03 0.121E-02
   0.412E+02 -.587E+02 -.313E+02   -.497E+02 0.760E+02 0.426E+02   0.850E+01 -.172E+02 -.113E+02   0.304E-02 0.843E-03 -.197E-02
   0.415E+02 -.584E+02 -.342E+02   -.501E+02 0.754E+02 0.456E+02   0.861E+01 -.170E+02 -.114E+02   -.331E-03 -.186E-02 0.204E-02
   0.397E+02 -.587E+02 -.339E+02   -.477E+02 0.758E+02 0.453E+02   0.804E+01 -.171E+02 -.114E+02   0.143E-02 -.462E-03 0.239E-02
   0.379E+02 -.565E+02 -.344E+02   -.463E+02 0.736E+02 0.456E+02   0.848E+01 -.171E+02 -.111E+02   0.771E-02 0.589E-02 -.895E-02
   0.400E+02 -.567E+02 -.316E+02   -.483E+02 0.739E+02 0.429E+02   0.834E+01 -.172E+02 -.112E+02   0.140E-02 -.879E-03 0.361E-02
   0.308E+02 0.667E+02 -.369E+02   -.403E+02 -.819E+02 0.485E+02   0.955E+01 0.152E+02 -.115E+02   -.542E-02 -.142E-02 -.435E-02
   0.292E+02 0.692E+02 -.268E+02   -.410E+02 -.842E+02 0.382E+02   0.118E+02 0.150E+02 -.113E+02   0.446E-02 0.672E-03 0.431E-02
   0.265E+02 0.605E+02 -.353E+02   -.362E+02 -.771E+02 0.465E+02   0.966E+01 0.167E+02 -.112E+02   -.129E-02 0.362E-02 -.262E-02
   0.263E+02 0.592E+02 -.281E+02   -.371E+02 -.749E+02 0.396E+02   0.108E+02 0.157E+02 -.115E+02   -.243E-03 0.164E-02 0.680E-03
   0.318E+02 0.617E+02 -.370E+02   -.424E+02 -.774E+02 0.482E+02   0.107E+02 0.157E+02 -.111E+02   -.319E-02 0.538E-05 -.184E-02
   0.314E+02 0.616E+02 -.299E+02   -.427E+02 -.779E+02 0.408E+02   0.113E+02 0.164E+02 -.109E+02   -.607E-03 0.282E-02 0.412E-02
   0.286E+02 0.660E+02 -.352E+02   -.393E+02 -.819E+02 0.464E+02   0.107E+02 0.159E+02 -.112E+02   0.410E-02 -.144E-02 0.891E-03
   0.308E+02 0.662E+02 -.320E+02   -.415E+02 -.822E+02 0.434E+02   0.107E+02 0.160E+02 -.114E+02   0.231E-02 0.366E-03 0.437E-02
   -.700E+02 -.427E+01 -.354E+02   0.888E+02 0.310E+01 0.469E+02   -.188E+02 0.119E+01 -.115E+02   0.919E-02 -.168E-01 -.817E-02
   -.101E+03 0.371E+02 -.672E+01   0.124E+03 -.447E+02 0.130E+02   -.228E+02 0.757E+01 -.628E+01   -.246E-02 0.169E-02 0.418E-02
   -.694E+02 -.746E+01 -.330E+02   0.881E+02 0.620E+01 0.441E+02   -.187E+02 0.126E+01 -.112E+02   -.189E-02 0.365E-02 0.142E-02
   -.716E+02 -.741E+01 -.337E+02   0.908E+02 0.590E+01 0.451E+02   -.192E+02 0.152E+01 -.114E+02   0.879E-03 0.728E-03 0.259E-02
   -.712E+02 -.839E+01 -.339E+02   0.904E+02 0.731E+01 0.450E+02   -.192E+02 0.108E+01 -.111E+02   -.229E-02 0.384E-02 0.236E-02
   -.655E+02 -.132E+02 -.301E+02   0.842E+02 0.121E+02 0.423E+02   -.187E+02 0.117E+01 -.123E+02   -.259E-02 -.506E-04 -.215E-02
   -.698E+02 -.437E+01 -.338E+02   0.889E+02 0.309E+01 0.452E+02   -.191E+02 0.129E+01 -.114E+02   0.940E-03 -.303E-02 -.100E-02
   -.666E+02 -.407E+01 -.325E+02   0.856E+02 0.277E+01 0.438E+02   -.190E+02 0.129E+01 -.113E+02   -.469E-02 0.616E-02 0.463E-02
 -----------------------------------------------------------------------------------------------
   -.304E+01 -.751E-06 0.363E-05   0.441E-12 0.380E-12 -.135E-12   0.305E+01 -.162E-13 0.639E-13   0.939E-03 -.128E-11 0.105E-10
 
 
 POSITION                                       TOTAL-FORCE (eV/Angst)
 -----------------------------------------------------------------------------------
      2.62768     -0.00000      5.43130        -0.011775      0.000000     -0.000000
      5.08648      4.25803     -0.01541        -0.016898      0.001144      0.006154
      5.08526      4.25857      5.42898        -0.008983     -0.013918     -0.003627
      5.08648     -4.25803      0.01541        -0.016898     -0.001144     -0.006154
      5.08526     -4.25857      5.43362        -0.008983      0.013918      0.003627
      7.54121     -0.00000      0.00000         0.002490      0.000000     -0.000000
      7.54333     -0.00000      5.43130         0.008039      0.000000     -0.000000
      1.13747      1.97713      3.62613         0.004914      0.025349     -0.016907
      1.13897      2.00205      9.04486        -0.003182      0.023969      0.008436
      3.60166      6.24230      3.62157         0.012716      0.018707      0.010970
      3.59850      6.24239      9.04946         0.015113      0.001785     -0.001182
      3.61277     -2.27295      3.62679         0.010084     -0.008216     -0.020595
      3.59880     -2.28123      9.03919         0.002102     -0.017966     -0.021042
      6.06139      1.97676      3.62098        -0.009081      0.024897     -0.006458
      6.06337      1.98072      9.05051         0.001207      0.017251     -0.005788
      1.13897     -2.00205      1.81774        -0.003182     -0.023969     -0.008436
      1.13747     -1.97713      7.23647         0.004914     -0.025349      0.016907
      3.59880      2.28123      1.82341         0.002102      0.017966      0.021042
      3.61277      2.27295      7.23581         0.010084      0.008216      0.020595
      3.59850     -6.24239      1.81314         0.015113     -0.001785      0.001182
      3.60166     -6.24230      7.24103         0.012716     -0.018707     -0.010970
      6.06337     -1.98072      1.81210         0.001207     -0.017251      0.005788
      6.06139     -1.97676      7.24163        -0.009081     -0.024897      0.006458
      2.60984      0.00000      0.00000        -0.011627      0.000000     -0.000000
      1.68144      0.57379      4.23412         0.008865     -0.004751     -0.003692
      1.69859      0.55617      9.69694        -0.010333     -0.001894     -0.004139
      4.14604      4.83873      4.22967         0.012155      0.008682     -0.009188
      4.13724      4.83663      9.66037         0.009889      0.001293     -0.021521
      4.14033     -3.68019      4.23942        -0.000562      0.004377     -0.003949
      4.13345     -3.66539      9.68973        -0.002604      0.021508     -0.002644
      6.59896      0.57631      4.23734        -0.001622      0.000007     -0.016122
      6.59465      0.57712      9.66932        -0.000924      0.002963     -0.019572
      3.54279      1.11798      0.59788         0.002051     -0.003191     -0.036019
      3.57714      1.16731      6.04289        -0.004614     -0.003740     -0.017679
      6.03498      5.43343      0.60188        -0.025023     -0.014429      0.012800
      6.03440      5.42251      6.04854        -0.002699      0.001067     -0.011060
      6.03733     -3.09046      0.61836        -0.000760     -0.004087      0.006093
      6.02501     -3.08791      6.05256        -0.010783      0.008250     -0.004647
      8.49085      1.16452      0.61699         0.003001      0.007765     -0.004748
      8.49020      1.16673      6.04611        -0.002105     -0.003200     -0.013057
      2.10837      2.49626      2.41519         0.010677     -0.012455      0.001010
      2.12748      2.50390      7.86244         0.005987     -0.001496     -0.005900
      4.57591      6.78173      2.42183        -0.001947     -0.011557     -0.006433
      4.57016      6.77182      7.85375        -0.001740      0.004885     -0.025474
      4.57702     -1.74333      2.42465         0.009209     -0.009525      0.005277
      4.57709     -1.72457      7.86914        -0.005997     -0.000895     -0.004977
      7.02908      2.50978      2.42576        -0.001258     -0.010767     -0.013122
      7.03464      2.51093      7.85627         0.009585     -0.010340     -0.016051
      1.69859     -0.55617      1.16566        -0.010333      0.001894      0.004139
      1.68144     -0.57379      6.62848         0.008865      0.004751      0.003692
      4.13345      3.66539      1.17287        -0.002604     -0.021508      0.002644
      4.14033      3.68019      6.62319        -0.000562     -0.004377      0.003949
      4.13724     -4.83663      1.20223         0.009889     -0.001293      0.021521
      4.14604     -4.83873      6.63293         0.012155     -0.008682      0.009188
      6.59465     -0.57712      1.19329        -0.000924     -0.002963      0.019572
      6.59896     -0.57631      6.62526        -0.001622     -0.000007      0.016122
      2.12748     -2.50390      3.00017         0.005987      0.001496      0.005900
      2.10837     -2.49626      8.44741         0.010677      0.012455     -0.001010
      4.57709      1.72457      2.99347        -0.005997      0.000895      0.004977
      4.57702      1.74333      8.43795         0.009209      0.009525     -0.005277
      4.57016     -6.77182      3.00886        -0.001740     -0.004885      0.025474
      4.57591     -6.78173      8.44077        -0.001947      0.011557      0.006433
      7.03464     -2.51093      3.00633         0.009585      0.010340      0.016051
      7.02908     -2.50978      8.43684        -0.001258      0.010767      0.013122
      3.57714     -1.16731      4.81972        -0.004614      0.003740      0.017679
      3.54279     -1.11798     10.26473         0.002051      0.003191      0.036019
      6.02501      3.08791      4.81004        -0.010783     -0.008250      0.004647
      6.03733      3.09046     10.24425        -0.000760      0.004087     -0.006093
      6.03440     -5.42251      4.81406        -0.002699     -0.001067      0.011060
      6.03498     -5.43343     10.26072        -0.025023      0.014429     -0.012800
      8.49020     -1.16673      4.81649        -0.002105      0.003200      0.013057
      8.49085     -1.16452     10.24561         0.003001     -0.007765      0.004748
 -----------------------------------------------------------------------------------
    total drift:                                0.004977     -0.000001      0.000004


--------------------------------------------------------------------------------------------------------



  FREE ENERGIE OF THE ION-ELECTRON SYSTEM (eV)
  ---------------------------------------------------
  free  energy   TOTEN  =      -562.82101214 eV

  energy  without entropy=     -562.81362237  energy(sigma->0) =     -562.81731725
 
 d Force = 0.1033841E-02[ 0.281E-03, 0.179E-02]  d Energy = 0.1041483E-02-0.764E-05
 d Force =-0.3629944E+00[-0.365E+00,-0.360E+00]  d Ewald  =-0.3629950E+00 0.611E-06


--------------------------------------------------------------------------------------------------------


    POTLOK:  cpu time      0.0166: real time      0.0185


--------------------------------------------------------------------------------------------------------


 stress matrix after NEB project (eV)
     13.91866      0.00000      0.00000
      0.00000     12.65755     -0.32678
      0.00000     -0.32678     13.15159
  FORCES: max atom, RMS     0.036218    0.019373
  FORCE total and by dimension    0.164386    0.036019
  Stress total and by dimension   22.959107   13.918657
 Conjugate gradient step on ions:
 trial-energy change:   -0.001041  1 .order   -0.001034   -0.001787   -0.000281
  (g-gl).g = 0.501E-02      g.g   = 0.483E-02  gl.gl    = 0.107E-01
 g(Force)  = 0.483E-02   g(Stress)= 0.000E+00 ortho     = 0.184E-04
 gamma     =   0.46950
 trial     =   0.36903
 opt step  =   0.43786  (harmonic =   0.43786) maximal distance =0.00187703
 next E    =  -562.821031   (d E  =  -0.00106)


--------------------------------------------------------------------------------------------------------


  
 reached required accuracy - stopping structural energy minimisation
     LOOP+:  cpu time     30.6154: real time     30.7851
    4ORBIT:  cpu time      0.0000: real time      0.0000



 total charge

# of ion       s       p       d       tot
------------------------------------------
    1        0.644   0.981   0.000   1.624
    2        0.644   0.977   0.000   1.620
    3        0.643   0.982   0.000   1.625
    4        0.644   0.977   0.000   1.620
    5        0.643   0.982   0.000   1.625
    6        0.644   0.983   0.000   1.626
    7        0.643   0.984   0.000   1.628
    8        0.644   0.980   0.000   1.623
    9        0.646   0.959   0.000   1.606
   10        0.644   0.981   0.000   1.624
   11        0.644   0.982   0.000   1.626
   12        0.644   0.981   0.000   1.624
   13        0.646   0.957   0.000   1.603
   14        0.643   0.981   0.000   1.624
   15        0.644   0.983   0.000   1.627
   16        0.646   0.959   0.000   1.606
   17        0.644   0.980   0.000   1.623
   18        0.646   0.957   0.000   1.603
   19        0.644   0.981   0.000   1.624
   20        0.644   0.982   0.000   1.626
   21        0.644   0.981   0.000   1.624
   22        0.644   0.983   0.000   1.627
   23        0.643   0.981   0.000   1.624
   24        0.932   1.377   0.000   2.308
   25        1.551   3.683   0.000   5.233
   26        1.567   3.643   0.000   5.210
   27        1.550   3.684   0.000   5.234
   28        1.550   3.684   0.000   5.235
   29        1.550   3.684   0.000   5.234
   30        1.552   3.678   0.000   5.230
   31        1.549   3.687   0.000   5.236
   32        1.550   3.684   0.000   5.235
   33        1.566   3.644   0.000   5.210
   34        1.550   3.685   0.000   5.235
   35        1.552   3.677   0.000   5.230
   36        1.550   3.684   0.000   5.233
   37        1.551   3.683   0.000   5.234
   38        1.549   3.686   0.000   5.235
   39        1.550   3.684   0.000   5.234
   40        1.549   3.686   0.000   5.236
   41        1.552   3.680   0.000   5.231
   42        1.552   3.683   0.000   5.234
   43        1.552   3.677   0.000   5.229
   44        1.550   3.685   0.000   5.235
   45        1.551   3.683   0.000   5.233
   46        1.552   3.678   0.000   5.230
   47        1.550   3.685   0.000   5.235
   48        1.550   3.685   0.000   5.235
   49        1.567   3.643   0.000   5.210
   50        1.551   3.683   0.000   5.233
   51        1.552   3.678   0.000   5.230
   52        1.550   3.684   0.000   5.234
   53        1.550   3.684   0.000   5.235
   54        1.550   3.684   0.000   5.234
   55        1.550   3.684   0.000   5.235
   56        1.549   3.687   0.000   5.236
   57        1.552   3.683   0.000   5.234
   58        1.552   3.680   0.000   5.231
   59        1.552   3.678   0.000   5.230
   60        1.551   3.683   0.000   5.233
   61        1.550   3.685   0.000   5.235
   62        1.552   3.677   0.000   5.229
   63        1.550   3.685   0.000   5.235
   64        1.550   3.685   0.000   5.235
   65        1.550   3.685   0.000   5.235
   66        1.566   3.644   0.000   5.210
   67        1.549   3.686   0.000   5.235
   68        1.551   3.683   0.000   5.234
   69        1.550   3.684   0.000   5.233
   70        1.552   3.677   0.000   5.230
   71        1.549   3.686   0.000   5.236
   72        1.550   3.684   0.000   5.234
--------------------------------------------------
tot         90.232 200.470   0.000 290.703
 

 total amount of memory used by VASP MPI-rank0   114071. kBytes
=======================================================================

   base      :      30000. kBytes
   nonl-proj :      61636. kBytes
   fftplans  :       1787. kBytes
   grid      :       9934. kBytes
   one-center:        221. kBytes
   wavefun   :      10493. kBytes
 
  
  
 General timing and accounting informations for this job:
 ========================================================
  
                  Total CPU time used (sec):      791.981
                            User time (sec):      788.634
                          System time (sec):        3.347
                         Elapsed time (sec):      797.661
  
                   Maximum memory used (kb):      337984.
                   Average memory used (kb):          N/A
  
                          Minor page faults:       401139
                          Major page faults:           67
                 Voluntary context switches:         4667
