 vasp.5.4.4.18Apr17-6-g9f103f2a35 (build Jun 19 2019 10:34:07) complex          
  
 executed on               LB-5.4 date 2023.05.15  18:43:09
 running on   96 total cores
 distrk:  each k-point on   24 cores,    4 groups
 distr:  one band on NCORES_PER_BAND=   1 cores,   24 groups


--------------------------------------------------------------------------------------------------------


 INCAR:
 POTCAR:    PAW_PBE B 06Sep2000                   
 POTCAR:    PAW_PBE Si 05Jan2001                  

 ----------------------------------------------------------------------------- 
|                                                                             |
|           W    W    AA    RRRRR   N    N  II  N    N   GGGG   !!!           |
|           W    W   A  A   R    R  NN   N  II  NN   N  G    G  !!!           |
|           W    W  A    A  R    R  N N  N  II  N N  N  G       !!!           |
|           W WW W  AAAAAA  RRRRR   N  N N  II  N  N N  G  GGG   !            |
|           WW  WW  A    A  R   R   N   NN  II  N   NN  G    G                |
|           W    W  A    A  R    R  N    N  II  N    N   GGGG   !!!           |
|                                                                             |
|      For optimal performance we recommend to set                            |
|        NCORE= 4 - approx SQRT( number of cores)                             |
|      NCORE specifies how many cores store one orbital (NPAR=cpu/NCORE).     |
|      This setting can  greatly improve the performance of VASP for DFT.     |
|      The default,   NCORE=1            might be grossly inefficient         |
|      on modern multi-core architectures or massively parallel machines.     |
|      Do your own testing !!!!                                               |
|      Unfortunately you need to use the default for GW and RPA calculations. |
|      (for HF NCORE is supported but not extensively tested yet)             |
|                                                                             |
 ----------------------------------------------------------------------------- 


 ----------------------------------------------------------------------------- 
|                                                                             |
|           W    W    AA    RRRRR   N    N  II  N    N   GGGG   !!!           |
|           W    W   A  A   R    R  NN   N  II  NN   N  G    G  !!!           |
|           W    W  A    A  R    R  N N  N  II  N N  N  G       !!!           |
|           W WW W  AAAAAA  RRRRR   N  N N  II  N  N N  G  GGG   !            |
|           WW  WW  A    A  R   R   N   NN  II  N   NN  G    G                |
|           W    W  A    A  R    R  N    N  II  N    N   GGGG   !!!           |
|                                                                             |
|      You have enabled k-point parallelism (KPAR>1).                         |
|      This developmental code was originally  written by Paul Kent at ORNL,  |
|      and carefully double checked in Vienna.                                |
|      GW as well as linear response parallelism added by Martijn Marsman     |
|      and Georg Kresse.                                                      |
|      Carefully verify results versus KPAR=1.                                |
|      Report problems to Paul Kent and Vienna.                               |
|                                                                             |
 ----------------------------------------------------------------------------- 

 POTCAR:    PAW_PBE B 06Sep2000                   
   VRHFIN =B: s2p1                                                              
   LEXCH  = PE                                                                  
   EATOM  =    71.1703 eV,    5.2309 Ry                                         
                                                                                
   TITEL  = PAW_PBE B 06Sep2000                                                 
   LULTRA =        F    use ultrasoft PP ?                                      
   IUNSCR =        1    unscreen: 0-lin 1-nonlin 2-no                           
   RPACOR =    1.200    partial core radius                                     
   POMASS =   10.811; ZVAL   =    3.000    mass and valenz                      
   RCORE  =    1.700    outmost cutoff radius                                   
   RWIGS  =    1.710; RWIGS  =    0.905    wigner-seitz radius (au A)           
   ENMAX  =  318.614; ENMIN  =  238.960 eV                                      
   ICORE  =        2    local potential                                         
   LCOR   =        T    correct aug charges                                     
   LPAW   =        T    paw PP                                                  
   EAUG   =  535.514                                                            
   DEXC   =    0.000                                                            
   RMAX   =    1.732    core radius for proj-oper                               
   RAUG   =    1.300    factor for augmentation sphere                          
   RDEP   =    1.757    radius for radial grids                                 
   RDEPT  =    1.436    core radius for aug-charge                              
                                                                                
   Atomic configuration                                                         
    4 entries                                                                   
     n  l   j            E        occ.                                          
     1  0  0.50      -180.5896   2.0000                                         
     2  0  0.50        -9.4431   2.0000                                         
     2  1  0.50        -3.6068   1.0000                                         
     3  2  1.50        -4.0817   0.0000                                         
   Description                                                                  
     l       E           TYP  RCUT    TYP  RCUT                                 
     0     -9.4430752     23  1.500                                             
     0      0.8675899     23  1.500                                             
     1     -3.6067955     23  1.700                                             
     1      6.1086146     23  1.700                                             
     2     -4.0817478      7  1.700                                             
  local pseudopotential read in
  partial core-charges read in
  partial kinetic energy density read in
  atomic valenz-charges read in
  non local Contribution for L=           0  read in
    real space projection operators read in
  non local Contribution for L=           0  read in
    real space projection operators read in
  non local Contribution for L=           1  read in
    real space projection operators read in
  non local Contribution for L=           1  read in
    real space projection operators read in
    PAW grid and wavefunctions read in
 
   number of l-projection  operators is LMAX  =           4
   number of lm-projection operators is LMMAX =           8
 
 POTCAR:    PAW_PBE Si 05Jan2001                  
   VRHFIN =Si: s2p2                                                             
   LEXCH  = PE                                                                  
   EATOM  =   103.0669 eV,    7.5752 Ry                                         
                                                                                
   TITEL  = PAW_PBE Si 05Jan2001                                                
   LULTRA =        F    use ultrasoft PP ?                                      
   IUNSCR =        1    unscreen: 0-lin 1-nonlin 2-no                           
   RPACOR =    1.500    partial core radius                                     
   POMASS =   28.085; ZVAL   =    4.000    mass and valenz                      
   RCORE  =    1.900    outmost cutoff radius                                   
   RWIGS  =    2.480; RWIGS  =    1.312    wigner-seitz radius (au A)           
   ENMAX  =  245.345; ENMIN  =  184.009 eV                                      
   ICORE  =        2    local potential                                         
   LCOR   =        T    correct aug charges                                     
   LPAW   =        T    paw PP                                                  
   EAUG   =  322.069                                                            
   DEXC   =    0.000                                                            
   RMAX   =    1.950    core radius for proj-oper                               
   RAUG   =    1.300    factor for augmentation sphere                          
   RDEP   =    1.993    radius for radial grids                                 
   RDEPT  =    1.837    core radius for aug-charge                              
                                                                                
   Atomic configuration                                                         
    6 entries                                                                   
     n  l   j            E        occ.                                          
     1  0  0.50     -1785.8828   2.0000                                         
     2  0  0.50      -139.4969   2.0000                                         
     2  1  1.50       -95.5546   6.0000                                         
     3  0  0.50       -10.8127   2.0000                                         
     3  1  0.50        -4.0811   2.0000                                         
     3  2  1.50        -4.0817   0.0000                                         
   Description                                                                  
     l       E           TYP  RCUT    TYP  RCUT                                 
     0    -10.8127223     23  1.900                                             
     0     -7.6451159     23  1.900                                             
     1     -4.0811372     23  1.900                                             
     1      2.4879257     23  1.900                                             
     2     -4.0817478      7  1.900                                             
  local pseudopotential read in
  partial core-charges read in
  partial kinetic energy density read in
  atomic valenz-charges read in
  non local Contribution for L=           0  read in
    real space projection operators read in
  non local Contribution for L=           0  read in
    real space projection operators read in
  non local Contribution for L=           1  read in
    real space projection operators read in
  non local Contribution for L=           1  read in
    real space projection operators read in
    PAW grid and wavefunctions read in
 
   number of l-projection  operators is LMAX  =           4
   number of lm-projection operators is LMMAX =           8
 

 ----------------------------------------------------------------------------- 
|                                                                             |
|  ADVICE TO THIS USER RUNNING 'VASP/VAMP'   (HEAR YOUR MASTER'S VOICE ...):  |
|                                                                             |
|      You have a (more or less) 'large supercell' and for larger cells       |
|      it might be more efficient to use real space projection opertators     |
|      So try LREAL= Auto  in the INCAR   file.                               |
|      Mind:          For very  accurate calculation you might also keep the  |
|      reciprocal projection scheme          (i.e. LREAL=.FALSE.)             |
|                                                                             |
 ----------------------------------------------------------------------------- 

  PAW_PBE B 06Sep2000                   :
 energy of atom  1       EATOM=  -71.1703
 kinetic energy error for atom=    0.0009 (will be added to EATOM!!)
  PAW_PBE Si 05Jan2001                  :
 energy of atom  2       EATOM= -103.0669
 kinetic energy error for atom=    0.0004 (will be added to EATOM!!)
 
 
 POSCAR: Si53 B1                                 
  positions in direct lattice
  velocities in cartesian coordinates
 exchange correlation table for  LEXCH =        8
   RHO(1)=    0.500       N(1)  =     2000
   RHO(2)=  100.500       N(2)  =     4000
 


--------------------------------------------------------------------------------------------------------


 ion  position               nearest neighbor table
   1  0.292  0.292  0.292-  32 2.35  40 2.35  41 2.35  38 2.35
   2  0.292  0.292  0.625-  33 2.35  41 2.35  42 2.35  39 2.35
   3  0.292  0.292  0.958-  31 2.35  40 2.35  42 2.35  37 2.35
   4  0.292  0.625  0.292-  35 2.35  43 2.35  44 2.35  41 2.35
   5  0.292  0.625  0.625-  36 2.35  44 2.35  45 2.35  42 2.35
   6  0.292  0.625  0.958-  34 2.35  43 2.35  45 2.35  40 2.35
   7  0.292  0.958  0.292-  29 2.35  37 2.35  38 2.35  44 2.35
   8  0.292  0.958  0.625-  30 2.35  38 2.35  39 2.35  45 2.35
   9  0.292  0.958  0.958-  28 2.35  37 2.35  39 2.35  43 2.35
  10  0.625  0.292  0.292-  41 2.35  49 2.35  50 2.35  47 2.35
  11  0.625  0.292  0.625-  42 2.35  50 2.35  51 2.35  48 2.35
  12  0.625  0.292  0.958-  40 2.35  49 2.35  51 2.35  46 2.35
  13  0.625  0.625  0.292-  44 2.35  52 2.35  53 2.35  50 2.35
  14  0.625  0.625  0.625-  45 2.35  53 2.35  54 2.35  51 2.35
  15  0.625  0.625  0.958-  43 2.35  52 2.35  54 2.35  49 2.35
  16  0.625  0.958  0.292-  38 2.35  46 2.35  47 2.35  53 2.35
  17  0.625  0.958  0.625-  39 2.35  47 2.35  48 2.35  54 2.35
  18  0.625  0.958  0.958-  37 2.35  46 2.35  48 2.35  52 2.35
  19  0.958  0.292  0.292-  50 2.35  32 2.35  31 2.35  29 2.35
  20  0.958  0.292  0.625-  51 2.35  33 2.35  32 2.35  30 2.35
  21  0.958  0.292  0.958-  49 2.35  31 2.35  33 2.35  28 2.35
  22  0.958  0.625  0.292-  53 2.35  35 2.35  34 2.35  32 2.35
  23  0.958  0.625  0.625-  54 2.35  36 2.35  35 2.35  33 2.35
  24  0.958  0.625  0.958-  52 2.35  34 2.35  36 2.35  31 2.35
  25  0.958  0.958  0.292-  47 2.35  29 2.35  28 2.35  35 2.35
  26  0.958  0.958  0.625-  48 2.35  30 2.35  29 2.35  36 2.35
  27  0.958  0.958  0.958-  46 2.35  28 2.35  30 2.35  34 2.35
  28  0.042  0.042  0.042-   9 2.35  27 2.35  25 2.35  21 2.35
  29  0.042  0.042  0.375-   7 2.35  25 2.35  26 2.35  19 2.35
  30  0.042  0.042  0.708-   8 2.35  26 2.35  27 2.35  20 2.35
  31  0.042  0.375  0.042-   3 2.35  21 2.35  19 2.35  24 2.35
  32  0.042  0.375  0.375-   1 2.35  19 2.35  20 2.35  22 2.35
  33  0.042  0.375  0.708-   2 2.35  20 2.35  21 2.35  23 2.35
  34  0.042  0.708  0.042-   6 2.35  24 2.35  22 2.35  27 2.35
  35  0.042  0.708  0.375-   4 2.35  22 2.35  23 2.35  25 2.35
  36  0.042  0.708  0.708-   5 2.35  23 2.35  24 2.35  26 2.35
  37  0.375  0.042  0.042-  18 2.35   9 2.35   7 2.35   3 2.35
  38  0.375  0.042  0.375-  16 2.35   8 2.35   7 2.35   1 2.35
  39  0.375  0.042  0.708-  17 2.35   9 2.35   8 2.35   2 2.35
  40  0.375  0.375  0.042-  12 2.35   3 2.35   1 2.35   6 2.35
  41  0.375  0.375  0.375-  10 2.35   2 2.35   1 2.35   4 2.35
  42  0.375  0.375  0.708-  11 2.35   3 2.35   2 2.35   5 2.35
  43  0.375  0.708  0.042-  15 2.35   6 2.35   4 2.35   9 2.35
  44  0.375  0.708  0.375-  13 2.35   5 2.35   4 2.35   7 2.35
  45  0.375  0.708  0.708-  14 2.35   6 2.35   5 2.35   8 2.35
  46  0.708  0.042  0.042-  27 2.35  18 2.35  16 2.35  12 2.35
  47  0.708  0.042  0.375-  25 2.35  17 2.35  16 2.35  10 2.35
  48  0.708  0.042  0.708-  26 2.35  18 2.35  17 2.35  11 2.35
  49  0.708  0.375  0.042-  21 2.35  12 2.35  10 2.35  15 2.35
  50  0.708  0.375  0.375-  19 2.35  11 2.35  10 2.35  13 2.35
  51  0.708  0.375  0.708-  20 2.35  12 2.35  11 2.35  14 2.35
  52  0.708  0.708  0.042-  24 2.35  15 2.35  13 2.35  18 2.35
  53  0.708  0.708  0.375-  22 2.35  14 2.35  13 2.35  16 2.35
  54  0.708  0.708  0.708-  23 2.35  15 2.35  14 2.35  17 2.35
 
  LATTYP: Found a face centered cubic cell.
 ALAT       =    16.2915000202
  
  Lattice vectors:
  
 A1 = (   9.9764655300,   0.0000000000,   5.7599150700)
 A2 = (   3.3254885100,   9.4059019200,   5.7599150700)
 A3 = (   0.0000000000,   0.0000000000,  11.5198301400)


Analysis of symmetry for initial positions (statically):
=====================================================================
 Subroutine PRICEL returns:
 Original cell was already a primitive cell.
 

 Routine SETGRP: Setting up the symmetry group for a 
 face centered cubic supercell.


 Subroutine GETGRP returns: Found 24 space group operations
 (whereof  6 operations were pure point group operations)
 out of a pool of 48 trial point group operations.


The static configuration has the point symmetry C_3v.
 The point group associated with its full space group is T_d .


Analysis of symmetry for dynamics (positions and initial velocities):
=====================================================================
 Subroutine PRICEL returns:
 Original cell was already a primitive cell.
 

 Routine SETGRP: Setting up the symmetry group for a 
 face centered cubic supercell.


 Subroutine GETGRP returns: Found 24 space group operations
 (whereof  6 operations were pure point group operations)
 out of a pool of 48 trial point group operations.


The dynamic configuration has the point symmetry C_3v.
 The point group associated with its full space group is T_d .


 Subroutine INISYM returns: Found 24 space group operations
 (whereof  6 operations are pure point group operations),
 and found     1 'primitive' translations

 
 
 KPOINTS: Automatic kpoint scheme                 

Automatic generation of k-mesh.
Space group operators:
 irot       det(A)        alpha          n_x          n_y          n_z        tau_x        tau_y        tau_z
    1     1.000000     0.000000     1.000000     0.000000     0.000000     0.000000     0.000000     0.000000
    2     1.000000   120.000000    -0.471405    -0.333333    -0.816497     0.000000     0.000000     0.000000
    3     1.000000   120.000000     0.471405     0.333333     0.816497     0.000000     0.000000     0.000000
    4    -1.000000   180.000000     0.288675     0.816497    -0.500000     0.000000     0.000000     0.000000
    5    -1.000000   180.000000     0.577350    -0.816497     0.000000     0.000000     0.000000     0.000000
    6    -1.000000   180.000000     0.866025     0.000000    -0.500000     0.000000     0.000000     0.000000
    7    -1.000000    90.000000    -0.816497    -0.577350    -0.000000     0.166667     0.000000     0.000000
    8    -1.000000   180.000000     0.866025     0.000000     0.500000     0.166667     0.000000     0.000000
    9    -1.000000    90.000000     0.408248    -0.577350     0.707107     0.166667     0.000000     0.000000
   10     1.000000   180.000000     0.816497     0.577350     0.000000     0.000000     0.000000     0.166667
   11     1.000000   120.000000     0.942809    -0.333333     0.000000     0.000000     0.000000     0.166667
   12     1.000000   120.000000    -0.000000    -1.000000    -0.000000     0.000000     0.000000     0.166667
   13    -1.000000    90.000000     0.816497     0.577350    -0.000000     0.000000     0.166667    -0.000000
   14    -1.000000    90.000000     0.408248    -0.577350    -0.707107     0.000000     0.166667    -0.000000
   15    -1.000000   180.000000     0.288675     0.816497     0.500000     0.000000     0.166667    -0.000000
   16     1.000000   120.000000    -0.000000     1.000000    -0.000000     0.166667     0.000000     0.000000
   17     1.000000   120.000000     0.471405     0.333333    -0.816497     0.166667     0.000000     0.000000
   18     1.000000   180.000000    -0.408248     0.577350     0.707107     0.166667     0.000000     0.000000
   19    -1.000000    90.000000    -0.408248     0.577350    -0.707107     0.000000     0.000000     0.166667
   20    -1.000000   180.000000     0.000000    -0.000000     1.000000     0.000000     0.000000     0.166667
   21    -1.000000    90.000000    -0.408248     0.577350     0.707107     0.000000     0.000000     0.166667
   22     1.000000   120.000000    -0.942809     0.333333     0.000000     0.000000     0.166667    -0.000000
   23     1.000000   180.000000    -0.408248     0.577350    -0.707107     0.000000     0.166667    -0.000000
   24     1.000000   120.000000    -0.471405    -0.333333     0.816497     0.000000     0.166667    -0.000000
 
 Subroutine IBZKPT returns following result:
 ===========================================
 
 Found      8 irreducible k-points:
 
 Following reciprocal coordinates:
            Coordinates               Weight
  0.000000  0.000000  0.000000      1.000000
  0.250000  0.000000  0.000000      8.000000
  0.500000  0.000000  0.000000      4.000000
  0.250000  0.250000  0.000000      6.000000
  0.500000  0.250000  0.000000     24.000000
 -0.250000  0.250000  0.000000     12.000000
  0.500000  0.500000  0.000000      3.000000
 -0.250000  0.500000  0.250000      6.000000
 
 Following cartesian coordinates:
            Coordinates               Weight
  0.000000  0.000000  0.000000      1.000000
  0.025059 -0.008860  0.000000      8.000000
  0.050118 -0.017719  0.000000      4.000000
  0.025059  0.017719  0.000000      6.000000
  0.050118  0.008860  0.000000     24.000000
 -0.025059  0.035439  0.000000     12.000000
  0.050118  0.035439  0.000000      3.000000
 -0.037588  0.053158  0.021702      6.000000
 


--------------------------------------------------------------------------------------------------------




 Dimension of arrays:
   k-points           NKPTS =      8   k-points in BZ     NKDIM =      8   number of bands    NBANDS=    144
   number of dos      NEDOS =    301   number of ions     NIONS =     54
   non local maximal  LDIM  =      4   non local SUM 2l+1 LMDIM =      8
   total plane-waves  NPLWV = 343000
   max r-space proj   IRMAX =      1   max aug-charges    IRDMAX=  10807
   dimension x,y,z NGX =    70 NGY =   70 NGZ =   70
   dimension x,y,z NGXF=   140 NGYF=  140 NGZF=  140
   support grid    NGXF=   140 NGYF=  140 NGZF=  140
   ions per type =               1  53
   NGX,Y,Z   is equivalent  to a cutoff of  10.10, 10.10, 10.10 a.u.
   NGXF,Y,Z  is equivalent  to a cutoff of  20.20, 20.20, 20.20 a.u.

 SYSTEM =  Si                                      
 POSCAR =  Si53 B1                                 

 Startparameter for this run:
   NWRITE =      2    write-flag & timer
   PREC   = normal    normal or accurate (medium, high low for compatibility)
   ISTART =      1    job   : 0-new  1-cont  2-samecut
   ICHARG =      0    charge: 1-file 2-atom 10-const
   ISPIN  =      1    spin polarized calculation?
   LNONCOLLINEAR =      F non collinear calculations
   LSORBIT =      F    spin-orbit coupling
   INIWAV =      1    electr: 0-lowe 1-rand  2-diag
   LASPH  =      F    aspherical Exc in radial PAW
   METAGGA=      F    non-selfconsistent MetaGGA calc.

 Electronic Relaxation 1
   ENCUT  =  550.0 eV  40.42 Ry    6.36 a.u.  22.03 22.03 22.03*2*pi/ulx,y,z
   ENINI  =  550.0     initial cutoff
   ENAUG  =  535.5 eV  augmentation charge cutoff
   NELM   =    200;   NELMIN=  2; NELMDL=  0     # of ELM steps 
   EDIFF  = 0.1E-04   stopping-criterion for ELM
   LREAL  =      F    real-space projection
   NLSPLINE    = F    spline interpolate recip. space projectors
   LCOMPAT=      F    compatible to vasp.4.4
   GGA_COMPAT  = T    GGA compatible to vasp.4.4-vasp.4.6
   LMAXPAW     = -100 max onsite density
   LMAXMIX     =    2 max onsite mixed and CHGCAR
   VOSKOWN=      0    Vosko Wilk Nusair interpolation
   ROPT   =    0.00000   0.00000
 Ionic relaxation
   EDIFFG = -.5E-01   stopping-criterion for IOM
   NSW    =    100    number of steps for IOM
   NBLOCK =      1;   KBLOCK =    100    inner block; outer block 
   IBRION =      2    ionic relax: 0-MD 1-quasi-New 2-CG
   NFREE  =      1    steps in history (QN), initial steepest desc. (CG)
   ISIF   =      2    stress and relaxation
   IWAVPR =     11    prediction:  0-non 1-charg 2-wave 3-comb
   ISYM   =      2    0-nonsym 1-usesym 2-fastsym
   LCORR  =      T    Harris-Foulkes like correction to forces

   POTIM  = 0.5000    time-step for ionic-motion
   TEIN   =    0.0    initial temperature
   TEBEG  =    0.0;   TEEND  =   0.0 temperature during run
   SMASS  =  -3.00    Nose mass-parameter (am)
   estimated Nose-frequenzy (Omega)   =  0.10E-29 period in steps =****** mass=  -0.303E-26a.u.
   SCALEE = 1.0000    scale energy and forces
   NPACO  =    256;   APACO  = 16.0  distance and # of slots for P.C.
   PSTRESS=    0.0 pullay stress

  Mass of Ions in am
   POMASS =  10.81 28.09
  Ionic Valenz
   ZVAL   =   3.00  4.00
  Atomic Wigner-Seitz radii
   RWIGS  =  -1.00 -1.00
  virtual crystal weights 
   VCA    =   1.00  1.00
   NELECT =     215.0000    total number of electrons
   NUPDOWN=      -1.0000    fix difference up-down

 DOS related values:
   EMIN   =  10.00;   EMAX   =-10.00  energy-range for DOS
   EFERMI =   0.00
   ISMEAR =     0;   SIGMA  =   0.05  broadening in eV -4-tet -1-fermi 0-gaus

 Electronic relaxation 2 (details)
   IALGO  =     38    algorithm
   LDIAG  =      T    sub-space diagonalisation (order eigenvalues)
   LSUBROT=      F    optimize rotation matrix (better conditioning)
   TURBO    =      0    0=normal 1=particle mesh
   IRESTART =      0    0=no restart 2=restart with 2 vectors
   NREBOOT  =      0    no. of reboots
   NMIN     =      0    reboot dimension
   EREF     =   0.00    reference energy to select bands
   IMIX   =      4    mixing-type and parameters
     AMIX     =   0.20;   BMIX     =  1.00
     AMIX_MAG =   0.80;   BMIX_MAG =  1.00
     AMIN     =   0.10
     WC   =   100.;   INIMIX=   1;  MIXPRE=   1;  MAXMIX= -45

 Intra band minimization:
   WEIMIN = 0.0010     energy-eigenvalue tresh-hold
   EBREAK =  0.17E-07  absolut break condition
   DEPER  =   0.30     relativ break condition  

   TIME   =   0.40     timestep for ELM

  volume/ion in A,a.u.               =      20.02       135.09
  Fermi-wavevector in a.u.,A,eV,Ry     =   0.955608  1.805838 12.424666  0.913187
  Thomas-Fermi vector in A             =   2.084461
 
 Write flags
   LWAVE        =      T    write WAVECAR
   LDOWNSAMPLE  =      F    k-point downsampling of WAVECAR
   LCHARG       =      T    write CHGCAR
   LVTOT        =      F    write LOCPOT, total local potential
   LVHAR        =      F    write LOCPOT, Hartree potential only
   LELF         =      F    write electronic localiz. function (ELF)
   LORBIT       =     10    0 simple, 1 ext, 2 COOP (PROOUT), +10 PAW based schemes


 Dipole corrections
   LMONO  =      F    monopole corrections only (constant potential shift)
   LDIPOL =      F    correct potential (dipole corrections)
   IDIPOL =      0    1-x, 2-y, 3-z, 4-all directions 
   EPSILON=  1.0000000 bulk dielectric constant

 Exchange correlation treatment:
   GGA     =    --    GGA type
   LEXCH   =     8    internal setting for exchange type
   VOSKOWN=      0    Vosko Wilk Nusair interpolation
   LHFCALC =     F    Hartree Fock is set to
   LHFONE  =     F    Hartree Fock one center treatment
   AEXX    =    0.0000 exact exchange contribution

 Linear response parameters
   LEPSILON=     F    determine dielectric tensor
   LRPA    =     F    only Hartree local field effects (RPA)
   LNABLA  =     F    use nabla operator in PAW spheres
   LVEL    =     F    velocity operator in full k-point grid
   LINTERFAST=   F  fast interpolation
   KINTER  =     0    interpolate to denser k-point grid
   CSHIFT  =0.1000    complex shift for real part using Kramers Kronig
   OMEGAMAX=  -1.0    maximum frequency
   DEG_THRESHOLD= 0.2000000E-02 threshold for treating states as degnerate
   RTIME   =   -0.100 relaxation time in fs
  (WPLASMAI=    0.000 imaginary part of plasma frequency in eV, 0.658/RTIME)
   DFIELD  = 0.0000000 0.0000000 0.0000000 field for delta impulse in time
 
 Orbital magnetization related:
   ORBITALMAG=     F  switch on orbital magnetization
   LCHIMAG   =     F  perturbation theory with respect to B field
   DQ        =  0.001000  dq finite difference perturbation B field
   LLRAUG    =     F  two centre corrections for induced B field



--------------------------------------------------------------------------------------------------------


 conjugate gradient relaxation of ions
 charge density and potential will be updated during run
 non-spin polarized calculation
 Variant of blocked Davidson
 Davidson routine will perform the subspace rotation
 perform sub-space diagonalisation
    after iterative eigenvector-optimisation
 modified Broyden-mixing scheme, WC =      100.0
 initial mixing is a Kerker type mixing with AMIX =  0.2000 and BMIX =      1.0000
 Hartree-type preconditioning will be used
 using additional bands           36
 reciprocal scheme for non local part
 use partial core corrections
 calculate Harris-corrections to forces 
   (improved forces if not selfconsistent)
 use gradient corrections 
 use of overlap-Matrix (Vanderbilt PP)
 Gauss-broadening in eV      SIGMA  =   0.05


--------------------------------------------------------------------------------------------------------


  energy-cutoff  :      550.00
  volume of cell :     1080.99
      direct lattice vectors                 reciprocal lattice vectors
     9.976465530  0.000000000  5.759915070     0.100235900 -0.035438742  0.000000000
     3.325488510  9.405901920  5.759915070     0.000000000  0.106316227  0.000000000
     0.000000000  0.000000000 11.519830140    -0.050117950 -0.035438742  0.086806836

  length of vectors
    11.519830124 11.519830136 11.519830140     0.106316227  0.106316227  0.106316227


 
 old parameters found on file WAVECAR:
  energy-cutoff  :      550.00
  volume of cell :     1080.99
      direct lattice vectors                 reciprocal lattice vectors
     9.976465530  0.000000000  5.759915070     0.100235900 -0.035438742  0.000000000
     3.325488510  9.405901920  5.759915070     0.000000000  0.106316227  0.000000000
     0.000000000  0.000000000 11.519830140    -0.050117950 -0.035438742  0.086806836

  length of vectors

 
 k-points in units of 2pi/SCALE and weight: Automatic kpoint scheme                 
   0.00000000  0.00000000  0.00000000       0.016
   0.02505897 -0.00885969  0.00000000       0.125
   0.05011795 -0.01771937  0.00000000       0.062
   0.02505897  0.01771937  0.00000000       0.094
   0.05011795  0.00885969  0.00000000       0.375
  -0.02505897  0.03543874  0.00000000       0.188
   0.05011795  0.03543874  0.00000000       0.047
  -0.03758846  0.05315811  0.02170171       0.094
 
 k-points in reciprocal lattice and weights: Automatic kpoint scheme                 
   0.00000000  0.00000000  0.00000000       0.016
   0.25000000  0.00000000  0.00000000       0.125
   0.50000000  0.00000000  0.00000000       0.062
   0.25000000  0.25000000  0.00000000       0.094
   0.50000000  0.25000000  0.00000000       0.375
  -0.25000000  0.25000000  0.00000000       0.188
   0.50000000  0.50000000  0.00000000       0.047
  -0.25000000  0.50000000  0.25000000       0.094
 
 position of ions in fractional coordinates (direct lattice) 
   0.29166667  0.29166667  0.29166667
   0.29166667  0.29166667  0.62500000
   0.29166667  0.29166667  0.95833333
   0.29166667  0.62500000  0.29166667
   0.29166667  0.62500000  0.62500000
   0.29166667  0.62500000  0.95833333
   0.29166667  0.95833333  0.29166667
   0.29166667  0.95833333  0.62500000
   0.29166667  0.95833333  0.95833333
   0.62500000  0.29166667  0.29166667
   0.62500000  0.29166667  0.62500000
   0.62500000  0.29166667  0.95833333
   0.62500000  0.62500000  0.29166667
   0.62500000  0.62500000  0.62500000
   0.62500000  0.62500000  0.95833333
   0.62500000  0.95833333  0.29166667
   0.62500000  0.95833333  0.62500000
   0.62500000  0.95833333  0.95833333
   0.95833333  0.29166667  0.29166667
   0.95833333  0.29166667  0.62500000
   0.95833333  0.29166667  0.95833333
   0.95833333  0.62500000  0.29166667
   0.95833333  0.62500000  0.62500000
   0.95833333  0.62500000  0.95833333
   0.95833333  0.95833333  0.29166667
   0.95833333  0.95833333  0.62500000
   0.95833333  0.95833333  0.95833333
   0.04166667  0.04166667  0.04166667
   0.04166667  0.04166667  0.37500000
   0.04166667  0.04166667  0.70833333
   0.04166667  0.37500000  0.04166667
   0.04166667  0.37500000  0.37500000
   0.04166667  0.37500000  0.70833333
   0.04166667  0.70833333  0.04166667
   0.04166667  0.70833333  0.37500000
   0.04166667  0.70833333  0.70833333
   0.37500000  0.04166667  0.04166667
   0.37500000  0.04166667  0.37500000
   0.37500000  0.04166667  0.70833333
   0.37500000  0.37500000  0.04166667
   0.37500000  0.37500000  0.37500000
   0.37500000  0.37500000  0.70833333
   0.37500000  0.70833333  0.04166667
   0.37500000  0.70833333  0.37500000
   0.37500000  0.70833333  0.70833333
   0.70833333  0.04166667  0.04166667
   0.70833333  0.04166667  0.37500000
   0.70833333  0.04166667  0.70833333
   0.70833333  0.37500000  0.04166667
   0.70833333  0.37500000  0.37500000
   0.70833333  0.37500000  0.70833333
   0.70833333  0.70833333  0.04166667
   0.70833333  0.70833333  0.37500000
   0.70833333  0.70833333  0.70833333
 
 position of ions in cartesian coordinates  (Angst):
   3.87973659  2.74338806  6.71990091
   3.87973659  2.74338806 10.55984429
   3.87973659  2.74338806 14.39978767
   4.98823276  5.87868870  8.63987260
   4.98823276  5.87868870 12.47981598
   4.98823276  5.87868870 16.31975937
   6.09672893  9.01398934 10.55984429
   6.09672893  9.01398934 14.39978767
   6.09672893  9.01398934 18.23973106
   7.20522510  2.74338806  8.63987260
   7.20522510  2.74338806 12.47981598
   7.20522510  2.74338806 16.31975937
   8.31372128  5.87868870 10.55984429
   8.31372128  5.87868870 14.39978767
   8.31372128  5.87868870 18.23973106
   9.42221745  9.01398934 12.47981598
   9.42221745  9.01398934 16.31975937
   9.42221745  9.01398934 20.15970275
  10.53071362  2.74338806 10.55984429
  10.53071362  2.74338806 14.39978767
  10.53071362  2.74338806 18.23973106
  11.63920979  5.87868870 12.47981598
  11.63920979  5.87868870 16.31975937
  11.63920979  5.87868870 20.15970275
  12.74770596  9.01398934 14.39978767
  12.74770596  9.01398934 18.23973106
  12.74770596  9.01398934 22.07967444
   0.55424808  0.39191258  0.95998584
   0.55424808  0.39191258  4.79992922
   0.55424808  0.39191258  8.63987260
   1.66274425  3.52721322  2.87995753
   1.66274425  3.52721322  6.71990091
   1.66274425  3.52721322 10.55984430
   2.77124042  6.66251386  4.79992922
   2.77124042  6.66251386  8.63987261
   2.77124042  6.66251386 12.47981599
   3.87973659  0.39191258  2.87995753
   3.87973659  0.39191258  6.71990091
   3.87973659  0.39191258 10.55984430
   4.98823277  3.52721322  4.79992922
   4.98823277  3.52721322  8.63987261
   4.98823277  3.52721322 12.47981599
   6.09672894  6.66251386  6.71990091
   6.09672894  6.66251386 10.55984430
   6.09672894  6.66251386 14.39978768
   7.20522511  0.39191258  4.79992922
   7.20522511  0.39191258  8.63987261
   7.20522511  0.39191258 12.47981599
   8.31372128  3.52721322  6.71990091
   8.31372128  3.52721322 10.55984430
   8.31372128  3.52721322 14.39978768
   9.42221745  6.66251386  8.63987260
   9.42221745  6.66251386 12.47981599
   9.42221745  6.66251386 16.31975937
 


--------------------------------------------------------------------------------------------------------


 k-point  1 :   0.0000 0.0000 0.0000  plane waves:   31415
 k-point  2 :   0.2500 0.0000 0.0000  plane waves:   31608
 k-point  3 :   0.5000 0.0000 0.0000  plane waves:   31638
 k-point  4 :   0.2500 0.2500 0.0000  plane waves:   31695
 k-point  5 :   0.5000 0.2500 0.0000  plane waves:   31649
 k-point  6 :  -0.2500 0.2500 0.0000  plane waves:   31674
 k-point  7 :   0.5000 0.5000 0.0000  plane waves:   31716
 k-point  8 :  -0.2500 0.5000 0.2500  plane waves:   31684

 maximum and minimum number of plane-waves per node :     31716    31415

 maximum number of plane-waves:     31716
 maximum index in each direction: 
   IXMAX=   22   IYMAX=   22   IZMAX=   22
   IXMIN=  -22   IYMIN=  -22   IZMIN=  -22


 serial   3D FFT for wavefunctions
 parallel 3D FFT for charge:
    minimum data exchange during FFTs selected (reduces bandwidth)


 total amount of memory used by VASP MPI-rank0   140598. kBytes
=======================================================================

   base      :      30000. kBytes
   nonl-proj :      59902. kBytes
   fftplans  :       5382. kBytes
   grid      :      20451. kBytes
   one-center:        165. kBytes
   wavefun   :      24698. kBytes
 
     INWAV:  cpu time   12.9969: real time   13.1334
 Broyden mixing: mesh for mixing (old mesh)
   NGX = 45   NGY = 45   NGZ = 45
  (NGX  =140   NGY  =140   NGZ  =140)
  gives a total of  91125 points

 charge density for first step will be calculated from the start-wavefunctions


--------------------------------------------------------------------------------------------------------


 Maximum index for augmentation-charges          503 (set IRDMAX)


--------------------------------------------------------------------------------------------------------


 initial charge from wavefunction
 First call to EWALD:  gamma=   0.173
 Maximum number of real-space cells 3x 3x 3
 Maximum number of reciprocal cells 3x 3x 3

    FEWALD:  cpu time    0.0571: real time    0.0576


--------------------------------------- Iteration      1(   1)  ---------------------------------------


    POTLOK:  cpu time    0.0872: real time    0.0978
    SETDIJ:  cpu time    0.0389: real time    0.0393
     EDDAV:  cpu time    2.9903: real time    3.0560
       DOS:  cpu time    0.0122: real time    0.0132
    CHARGE:  cpu time    0.1620: real time    0.1630
    MIXING:  cpu time    0.0047: real time    0.0058
    --------------------------------------------
      LOOP:  cpu time    3.2953: real time    3.3753

 eigenvalue-minimisations  :  1728
 total energy-change (2. order) :-0.2920293E+03  (-0.3891005E-06)
 number of electron     214.9999999 magnetization 
 augmentation part      -12.2014937 magnetization 

 Broyden mixing:
  rms(total) = 0.17480E-03    rms(broyden)= 0.17480E-03
  rms(prec ) = 0.45551E-03
  weight for this iteration     100.00

 Free energy of the ion-electron system (eV)
  ---------------------------------------------------
  alpha Z        PSCENC =        93.27357238
  Ewald energy   TEWEN  =     -6115.53854741
  -Hartree energ DENC   =      -403.39632696
  -exchange      EXHF   =         0.00000000
  -V(xc)+E(xc)   XCENC  =      -470.81840880
  PAW double counting   =     22796.59618459   -21869.08023814
  entropy T*S    EENTRO =        -0.00253400
  eigenvalues    EBANDS =       143.24469736
  atomic energy  EATOM  =      5533.69225236
  Solvation  Ediel_sol  =         0.00000000
  ---------------------------------------------------
  free energy    TOTEN  =      -292.02934862 eV

  energy without entropy =     -292.02681462  energy(sigma->0) =     -292.02808162


--------------------------------------------------------------------------------------------------------




--------------------------------------- Iteration      1(   2)  ---------------------------------------


    POTLOK:  cpu time    0.0903: real time    0.0909
    SETDIJ:  cpu time    0.0032: real time    0.0032
     EDDAV:  cpu time    2.9463: real time    2.9698
       DOS:  cpu time    0.0069: real time    0.0069
    --------------------------------------------
      LOOP:  cpu time    3.0466: real time    3.0708

 eigenvalue-minimisations  :  1728
 total energy-change (2. order) : 0.2709967E-06  (-0.1249142E-06)
 number of electron     214.9999999 magnetization 
 augmentation part      -12.2014937 magnetization 

 Free energy of the ion-electron system (eV)
  ---------------------------------------------------
  alpha Z        PSCENC =        93.27357238
  Ewald energy   TEWEN  =     -6115.53854741
  -Hartree energ DENC   =      -403.39571232
  -exchange      EXHF   =         0.00000000
  -V(xc)+E(xc)   XCENC  =      -470.81843592
  PAW double counting   =     22796.68448219   -21869.16847726
  entropy T*S    EENTRO =        -0.00253415
  eigenvalues    EBANDS =       143.24405177
  atomic energy  EATOM  =      5533.69225236
  Solvation  Ediel_sol  =         0.00000000
  ---------------------------------------------------
  free energy    TOTEN  =      -292.02934835 eV

  energy without entropy =     -292.02681421  energy(sigma->0) =     -292.02808128


--------------------------------------------------------------------------------------------------------




 average (electrostatic) potential at core
  the test charge radii are     0.7672  0.9892
  (the norm of the test charge is              1.0000)
       1 -26.8201       2 -83.3545       3 -83.3545       4 -83.3545       5 -83.4415
       6 -83.3545       7 -83.3545       8 -83.3545       9 -83.4338      10 -83.3545
      11 -83.4415      12 -83.3545      13 -83.4415      14 -83.4415      15 -83.4520
      16 -83.3545      17 -83.4520      18 -83.4520      19 -83.3545      20 -83.3545
      21 -83.4338      22 -83.3545      23 -83.4520      24 -83.4520      25 -83.4338
      26 -83.4520      27 -83.4338      28 -83.4553      29 -83.4217      30 -83.4217
      31 -83.4217      32 -83.2333      33 -83.4217      34 -83.4217      35 -83.4217
      36 -83.4596      37 -83.4217      38 -83.2333      39 -83.4217      40 -83.2333
      41 -83.2333      42 -83.3983      43 -83.4217      44 -83.3983      45 -83.3983
      46 -83.4217      47 -83.4217      48 -83.4596      49 -83.4217      50 -83.3983
      51 -83.3983      52 -83.4596      53 -83.3983      54 -83.4596
 
 
 
 E-fermi :   5.5253     XC(G=0):  -9.3872     alpha+bet :-11.8620


 k-point     1 :       0.0000    0.0000    0.0000
  band No.  band energies     occupation 
      1      -6.2362      2.00000
      2      -4.9270      2.00000
      3      -4.9001      2.00000
      4      -4.9001      2.00000
      5      -4.9001      2.00000
      6      -4.8687      2.00000
      7      -4.8687      2.00000
      8      -4.8687      2.00000
      9      -4.7110      2.00000
     10      -4.3666      2.00000
     11      -4.3666      2.00000
     12      -4.3293      2.00000
     13      -4.3293      2.00000
     14      -4.3293      2.00000
     15      -4.0279      2.00000
     16      -3.0351      2.00000
     17      -3.0351      2.00000
     18      -3.0351      2.00000
     19      -3.0219      2.00000
     20      -3.0219      2.00000
     21      -2.9936      2.00000
     22      -2.9936      2.00000
     23      -2.9936      2.00000
     24      -2.9037      2.00000
     25      -2.9037      2.00000
     26      -2.9037      2.00000
     27      -2.3700      2.00000
     28      -1.1037      2.00000
     29      -1.1037      2.00000
     30      -1.1037      2.00000
     31      -1.0864      2.00000
     32      -1.0864      2.00000
     33      -1.0636      2.00000
     34      -1.0636      2.00000
     35      -1.0636      2.00000
     36      -0.9529      2.00000
     37      -0.9529      2.00000
     38      -0.9529      2.00000
     39      -0.6098      2.00000
     40       0.3526      2.00000
     41       0.3707      2.00000
     42       0.3707      2.00000
     43       0.3707      2.00000
     44       0.4198      2.00000
     45       0.4198      2.00000
     46       0.4198      2.00000
     47       0.4344      2.00000
     48       0.6864      2.00000
     49       0.6864      2.00000
     50       0.7565      2.00000
     51       0.7565      2.00000
     52       0.7565      2.00000
     53       1.0478      2.00000
     54       1.2595      2.00000
     55       1.2595      2.00000
     56       1.2595      2.00000
     57       1.2616      2.00000
     58       1.2616      2.00000
     59       1.2616      2.00000
     60       1.2740      2.00000
     61       1.3451      2.00000
     62       1.3451      2.00000
     63       1.5411      2.00000
     64       1.5411      2.00000
     65       1.5411      2.00000
     66       3.2606      2.00000
     67       3.2606      2.00000
     68       3.2606      2.00000
     69       3.2884      2.00000
     70       3.2884      2.00000
     71       3.2884      2.00000
     72       3.2924      2.00000
     73       3.2924      2.00000
     74       3.2924      2.00000
     75       3.3460      2.00000
     76       3.3460      2.00000
     77       3.3460      2.00000
     78       3.5738      2.00000
     79       3.5738      2.00000
     80       3.5738      2.00000
     81       3.5786      2.00000
     82       3.6043      2.00000
     83       3.6043      2.00000
     84       3.6160      2.00000
     85       3.6160      2.00000
     86       3.6160      2.00000
     87       3.8381      2.00000
     88       3.8381      2.00000
     89       3.8381      2.00000
     90       4.6691      2.00000
     91       4.6691      2.00000
     92       4.6691      2.00000
     93       4.6707      2.00000
     94       4.6707      2.00000
     95       4.6793      2.00000
     96       4.6793      2.00000
     97       4.6793      2.00000
     98       4.7234      2.00000
     99       4.7234      2.00000
    100       4.7316      2.00000
    101       4.7316      2.00000
    102       4.7316      2.00000
    103       5.0461      2.00000
    104       5.0461      2.00000
    105       5.0461      2.00000
    106       5.7974      0.00000
    107       5.7974      0.00000
    108       5.7974      0.00000
    109       6.4442      0.00000
    110       6.4506      0.00000
    111       6.4506      0.00000
    112       6.4711      0.00000
    113       6.4711      0.00000
    114       6.4711      0.00000
    115       7.2559      0.00000
    116       7.2578      0.00000
    117       7.2578      0.00000
    118       7.2578      0.00000
    119       7.2716      0.00000
    120       7.2716      0.00000
    121       7.2716      0.00000
    122       7.3231      0.00000
    123       7.3231      0.00000
    124       7.3231      0.00000
    125       7.3469      0.00000
    126       7.3469      0.00000
    127       7.4396      0.00000
    128       7.4396      0.00000
    129       7.4396      0.00000
    130       7.4557      0.00000
    131       7.4999      0.00000
    132       7.5796      0.00000
    133       7.5796      0.00000
    134       7.5796      0.00000
    135       7.7062      0.00000
    136       7.7900      0.00000
    137       7.7900      0.00000
    138       7.7900      0.00000
    139       7.8194      0.00000
    140       7.8194      0.00000
    141       8.3063      0.00000
    142       8.3063      0.00000
    143       8.3063      0.00000
    144       9.0674      0.00000

 k-point     2 :       0.2500    0.0000    0.0000
  band No.  band energies     occupation 
      1      -6.1473      2.00000
      2      -5.4426      2.00000
      3      -5.0099      2.00000
      4      -5.0099      2.00000
      5      -4.9795      2.00000
      6      -4.7415      2.00000
      7      -4.7415      2.00000
      8      -4.6865      2.00000
      9      -4.5848      2.00000
     10      -4.5848      2.00000
     11      -4.4313      2.00000
     12      -4.2199      2.00000
     13      -3.8181      2.00000
     14      -3.8181      2.00000
     15      -3.7083      2.00000
     16      -3.5897      2.00000
     17      -3.5897      2.00000
     18      -3.4502      2.00000
     19      -3.0220      2.00000
     20      -3.0220      2.00000
     21      -2.9886      2.00000
     22      -2.9439      2.00000
     23      -2.9439      2.00000
     24      -2.7830      2.00000
     25      -2.7103      2.00000
     26      -2.7103      2.00000
     27      -2.3408      2.00000
     28      -1.3493      2.00000
     29      -1.3493      2.00000
     30      -1.2525      2.00000
     31      -1.1295      2.00000
     32      -1.1295      2.00000
     33      -1.1017      2.00000
     34      -1.0467      2.00000
     35      -1.0467      2.00000
     36      -0.8973      2.00000
     37      -0.7097      2.00000
     38      -0.5709      2.00000
     39      -0.5709      2.00000
     40      -0.4326      2.00000
     41      -0.0917      2.00000
     42      -0.0917      2.00000
     43      -0.0723      2.00000
     44       0.0481      2.00000
     45       0.0481      2.00000
     46       0.2723      2.00000
     47       0.8682      2.00000
     48       0.8682      2.00000
     49       0.8925      2.00000
     50       1.2919      2.00000
     51       1.2919      2.00000
     52       1.3534      2.00000
     53       1.4339      2.00000
     54       1.4469      2.00000
     55       1.4469      2.00000
     56       1.4687      2.00000
     57       1.4904      2.00000
     58       1.4904      2.00000
     59       1.5344      2.00000
     60       1.6402      2.00000
     61       1.6402      2.00000
     62       1.7186      2.00000
     63       1.7733      2.00000
     64       1.7733      2.00000
     65       1.9604      2.00000
     66       2.8115      2.00000
     67       2.8115      2.00000
     68       2.8446      2.00000
     69       3.1330      2.00000
     70       3.1597      2.00000
     71       3.1597      2.00000
     72       3.2647      2.00000
     73       3.2647      2.00000
     74       3.2692      2.00000
     75       3.2846      2.00000
     76       3.2846      2.00000
     77       3.2910      2.00000
     78       3.3029      2.00000
     79       3.3371      2.00000
     80       3.3371      2.00000
     81       3.4384      2.00000
     82       3.4384      2.00000
     83       3.5647      2.00000
     84       3.5672      2.00000
     85       3.6515      2.00000
     86       3.6515      2.00000
     87       3.8608      2.00000
     88       3.8608      2.00000
     89       3.9799      2.00000
     90       4.0152      2.00000
     91       4.0577      2.00000
     92       4.0577      2.00000
     93       4.3838      2.00000
     94       4.4120      2.00000
     95       4.4120      2.00000
     96       4.4552      2.00000
     97       4.4552      2.00000
     98       4.5869      2.00000
     99       4.5889      2.00000
    100       4.5889      2.00000
    101       4.7104      2.00000
    102       4.8159      2.00000
    103       4.8159      2.00000
    104       4.9949      2.00000
    105       5.0691      2.00000
    106       5.0691      2.00000
    107       5.6620      0.00011
    108       5.6620      0.00011
    109       6.6134      0.00000
    110       6.6223      0.00000
    111       6.6223      0.00000
    112       6.9092      0.00000
    113       6.9092      0.00000
    114       6.9169      0.00000
    115       6.9996      0.00000
    116       7.0280      0.00000
    117       7.0280      0.00000
    118       7.3246      0.00000
    119       7.5729      0.00000
    120       7.5883      0.00000
    121       7.5883      0.00000
    122       7.7102      0.00000
    123       7.7616      0.00000
    124       7.7616      0.00000
    125       7.7831      0.00000
    126       7.8273      0.00000
    127       7.8481      0.00000
    128       7.8481      0.00000
    129       7.8907      0.00000
    130       7.9003      0.00000
    131       7.9003      0.00000
    132       7.9347      0.00000
    133       7.9540      0.00000
    134       7.9540      0.00000
    135       8.0283      0.00000
    136       8.1075      0.00000
    137       8.1075      0.00000
    138       8.3400      0.00000
    139       8.5086      0.00000
    140       8.5086      0.00000
    141       8.5143      0.00000
    142       8.5608      0.00000
    143       8.5608      0.00000
    144       9.0120      0.00000

 k-point     3 :       0.5000    0.0000    0.0000
  band No.  band energies     occupation 
      1      -5.9238      2.00000
      2      -5.8302      2.00000
      3      -5.0047      2.00000
      4      -4.9918      2.00000
      5      -4.9918      2.00000
      6      -4.9255      2.00000
      7      -4.9255      2.00000
      8      -4.7604      2.00000
      9      -4.1685      2.00000
     10      -4.1685      2.00000
     11      -4.1381      2.00000
     12      -4.1355      2.00000
     13      -4.1355      2.00000
     14      -4.0074      2.00000
     15      -3.8349      2.00000
     16      -3.2035      2.00000
     17      -3.2035      2.00000
     18      -3.1933      2.00000
     19      -3.1761      2.00000
     20      -3.1761      2.00000
     21      -3.0335      2.00000
     22      -3.0171      2.00000
     23      -3.0171      2.00000
     24      -2.9835      2.00000
     25      -2.9240      2.00000
     26      -2.9240      2.00000
     27      -2.4118      2.00000
     28      -1.2464      2.00000
     29      -1.1629      2.00000
     30      -1.1629      2.00000
     31      -1.1380      2.00000
     32      -1.0945      2.00000
     33      -1.0945      2.00000
     34      -1.0253      2.00000
     35      -0.8697      2.00000
     36      -0.8697      2.00000
     37      -0.8317      2.00000
     38      -0.8317      2.00000
     39      -0.7893      2.00000
     40      -0.6059      2.00000
     41      -0.3081      2.00000
     42      -0.3081      2.00000
     43      -0.2723      2.00000
     44      -0.2045      2.00000
     45      -0.2045      2.00000
     46       0.0407      2.00000
     47       1.2323      2.00000
     48       1.2561      2.00000
     49       1.2561      2.00000
     50       1.3318      2.00000
     51       1.3318      2.00000
     52       1.4272      2.00000
     53       1.6585      2.00000
     54       1.6846      2.00000
     55       1.6846      2.00000
     56       1.7025      2.00000
     57       1.8430      2.00000
     58       1.8430      2.00000
     59       2.0584      2.00000
     60       2.0763      2.00000
     61       2.0763      2.00000
     62       2.1571      2.00000
     63       2.1571      2.00000
     64       2.1631      2.00000
     65       2.6515      2.00000
     66       2.6515      2.00000
     67       2.6686      2.00000
     68       2.6686      2.00000
     69       2.6993      2.00000
     70       2.7170      2.00000
     71       2.9317      2.00000
     72       2.9317      2.00000
     73       2.9364      2.00000
     74       2.9924      2.00000
     75       2.9924      2.00000
     76       3.1160      2.00000
     77       3.1235      2.00000
     78       3.1235      2.00000
     79       3.1442      2.00000
     80       3.1737      2.00000
     81       3.2930      2.00000
     82       3.2930      2.00000
     83       3.3494      2.00000
     84       3.3930      2.00000
     85       3.6857      2.00000
     86       3.6857      2.00000
     87       3.6942      2.00000
     88       3.7653      2.00000
     89       3.7653      2.00000
     90       3.9411      2.00000
     91       3.9634      2.00000
     92       3.9744      2.00000
     93       3.9744      2.00000
     94       4.0438      2.00000
     95       4.0438      2.00000
     96       4.2241      2.00000
     97       4.3823      2.00000
     98       4.4020      2.00000
     99       4.4020      2.00000
    100       4.4309      2.00000
    101       4.4722      2.00000
    102       4.4722      2.00000
    103       4.6983      2.00000
    104       4.6983      2.00000
    105       5.2342      2.00000
    106       5.2342      2.00000
    107       5.4532      1.95855
    108       5.4532      1.95855
    109       6.7361      0.00000
    110       6.7361      0.00000
    111       6.7510      0.00000
    112       6.8265      0.00000
    113       6.8790      0.00000
    114       6.8790      0.00000
    115       7.2692      0.00000
    116       7.6666      0.00000
    117       7.6666      0.00000
    118       7.6912      0.00000
    119       7.6937      0.00000
    120       7.7230      0.00000
    121       7.7230      0.00000
    122       8.0381      0.00000
    123       8.0917      0.00000
    124       8.1474      0.00000
    125       8.1474      0.00000
    126       8.1612      0.00000
    127       8.2276      0.00000
    128       8.2818      0.00000
    129       8.2818      0.00000
    130       8.4118      0.00000
    131       8.4285      0.00000
    132       8.4285      0.00000
    133       8.4587      0.00000
    134       8.4808      0.00000
    135       8.4808      0.00000
    136       8.8921      0.00000
    137       8.8921      0.00000
    138       8.9515      0.00000
    139       8.9515      0.00000
    140       9.0371      0.00000
    141       9.0670      0.00000
    142       9.0675      0.00000
    143       9.0682      0.00000
    144       9.1378      0.00000

 k-point     4 :       0.2500    0.2500    0.0000
  band No.  band energies     occupation 
      1      -6.1173      2.00000
      2      -5.2302      2.00000
      3      -5.2177      2.00000
      4      -5.2010      2.00000
      5      -5.2010      2.00000
      6      -5.0043      2.00000
      7      -4.4015      2.00000
      8      -4.3938      2.00000
      9      -4.3938      2.00000
     10      -4.3578      2.00000
     11      -4.2682      2.00000
     12      -4.2245      2.00000
     13      -4.2245      2.00000
     14      -4.0098      2.00000
     15      -3.5403      2.00000
     16      -3.5112      2.00000
     17      -3.5112      2.00000
     18      -3.4454      2.00000
     19      -3.3118      2.00000
     20      -3.2067      2.00000
     21      -3.2067      2.00000
     22      -3.1865      2.00000
     23      -2.8969      2.00000
     24      -2.4758      2.00000
     25      -2.4397      2.00000
     26      -2.4397      2.00000
     27      -2.1994      2.00000
     28      -1.5603      2.00000
     29      -1.5234      2.00000
     30      -1.5234      2.00000
     31      -1.4056      2.00000
     32      -1.0759      2.00000
     33      -1.0759      2.00000
     34      -1.0660      2.00000
     35      -0.9850      2.00000
     36      -0.7122      2.00000
     37      -0.5221      2.00000
     38      -0.4867      2.00000
     39      -0.4867      2.00000
     40      -0.4156      2.00000
     41      -0.3628      2.00000
     42      -0.3347      2.00000
     43      -0.3347      2.00000
     44      -0.1392      2.00000
     45       0.5106      2.00000
     46       0.5668      2.00000
     47       0.5668      2.00000
     48       0.7052      2.00000
     49       1.2957      2.00000
     50       1.3217      2.00000
     51       1.3217      2.00000
     52       1.3913      2.00000
     53       1.4473      2.00000
     54       1.4562      2.00000
     55       1.4562      2.00000
     56       1.4740      2.00000
     57       1.5770      2.00000
     58       1.6146      2.00000
     59       1.6233      2.00000
     60       1.6233      2.00000
     61       1.8192      2.00000
     62       1.9049      2.00000
     63       1.9049      2.00000
     64       1.9227      2.00000
     65       2.2782      2.00000
     66       2.8521      2.00000
     67       2.8564      2.00000
     68       2.8564      2.00000
     69       2.8742      2.00000
     70       2.9359      2.00000
     71       2.9457      2.00000
     72       2.9457      2.00000
     73       3.0240      2.00000
     74       3.0395      2.00000
     75       3.0395      2.00000
     76       3.2933      2.00000
     77       3.3250      2.00000
     78       3.3250      2.00000
     79       3.3733      2.00000
     80       3.6327      2.00000
     81       3.6433      2.00000
     82       3.6433      2.00000
     83       3.6708      2.00000
     84       3.6926      2.00000
     85       3.7054      2.00000
     86       3.7119      2.00000
     87       3.7119      2.00000
     88       3.9148      2.00000
     89       3.9148      2.00000
     90       4.0046      2.00000
     91       4.0281      2.00000
     92       4.0281      2.00000
     93       4.0440      2.00000
     94       4.1352      2.00000
     95       4.1738      2.00000
     96       4.1738      2.00000
     97       4.2896      2.00000
     98       4.2965      2.00000
     99       4.4600      2.00000
    100       4.4600      2.00000
    101       4.4606      2.00000
    102       5.0091      2.00000
    103       5.0269      2.00000
    104       5.1071      2.00000
    105       5.1071      2.00000
    106       5.1166      2.00000
    107       5.4283      1.99392
    108       5.4283      1.99392
    109       6.3104      0.00000
    110       6.8400      0.00000
    111       6.9215      0.00000
    112       7.1074      0.00000
    113       7.1099      0.00000
    114       7.1263      0.00000
    115       7.1263      0.00000
    116       7.4008      0.00000
    117       7.4008      0.00000
    118       7.4403      0.00000
    119       7.4720      0.00000
    120       7.5008      0.00000
    121       7.5008      0.00000
    122       7.5030      0.00000
    123       7.5198      0.00000
    124       7.8457      0.00000
    125       7.8491      0.00000
    126       7.8491      0.00000
    127       7.8670      0.00000
    128       8.0189      0.00000
    129       8.1399      0.00000
    130       8.1399      0.00000
    131       8.1423      0.00000
    132       8.1740      0.00000
    133       8.1832      0.00000
    134       8.1834      0.00000
    135       8.1834      0.00000
    136       8.2644      0.00000
    137       8.3169      0.00000
    138       8.3451      0.00000
    139       8.3451      0.00000
    140       8.3569      0.00000
    141       8.8484      0.00000
    142       8.8484      0.00000
    143       8.8733      0.00000
    144       9.0019      0.00000

 k-point     5 :       0.5000    0.2500    0.0000
  band No.  band energies     occupation 
      1      -5.9152      2.00000
      2      -5.6701      2.00000
      3      -5.4340      2.00000
      4      -5.2215      2.00000
      5      -5.1488      2.00000
      6      -4.7456      2.00000
      7      -4.5330      2.00000
      8      -4.5101      2.00000
      9      -4.3094      2.00000
     10      -4.1388      2.00000
     11      -4.0966      2.00000
     12      -4.0231      2.00000
     13      -3.9625      2.00000
     14      -3.8565      2.00000
     15      -3.6448      2.00000
     16      -3.6381      2.00000
     17      -3.5899      2.00000
     18      -3.4845      2.00000
     19      -3.4179      2.00000
     20      -3.3839      2.00000
     21      -3.3262      2.00000
     22      -3.0338      2.00000
     23      -2.6891      2.00000
     24      -2.6166      2.00000
     25      -2.5509      2.00000
     26      -2.4958      2.00000
     27      -2.2379      2.00000
     28      -1.4643      2.00000
     29      -1.4591      2.00000
     30      -1.4164      2.00000
     31      -1.4111      2.00000
     32      -1.2877      2.00000
     33      -1.1048      2.00000
     34      -1.0106      2.00000
     35      -1.0096      2.00000
     36      -0.9531      2.00000
     37      -0.7087      2.00000
     38      -0.6521      2.00000
     39      -0.6170      2.00000
     40      -0.6082      2.00000
     41      -0.5209      2.00000
     42      -0.3030      2.00000
     43      -0.1594      2.00000
     44       0.0750      2.00000
     45       0.0761      2.00000
     46       0.1985      2.00000
     47       0.7643      2.00000
     48       0.8234      2.00000
     49       0.9203      2.00000
     50       1.6308      2.00000
     51       1.6433      2.00000
     52       1.7372      2.00000
     53       1.7514      2.00000
     54       1.8431      2.00000
     55       1.8454      2.00000
     56       1.9791      2.00000
     57       1.9944      2.00000
     58       2.1554      2.00000
     59       2.1868      2.00000
     60       2.2381      2.00000
     61       2.2604      2.00000
     62       2.2726      2.00000
     63       2.3222      2.00000
     64       2.3350      2.00000
     65       2.4333      2.00000
     66       2.4736      2.00000
     67       2.5489      2.00000
     68       2.6404      2.00000
     69       2.7084      2.00000
     70       2.7411      2.00000
     71       2.7575      2.00000
     72       2.8194      2.00000
     73       2.8291      2.00000
     74       2.8464      2.00000
     75       2.9384      2.00000
     76       2.9564      2.00000
     77       3.0754      2.00000
     78       3.1002      2.00000
     79       3.1023      2.00000
     80       3.1635      2.00000
     81       3.1800      2.00000
     82       3.2115      2.00000
     83       3.3913      2.00000
     84       3.5231      2.00000
     85       3.5528      2.00000
     86       3.5799      2.00000
     87       3.5932      2.00000
     88       3.6521      2.00000
     89       3.7935      2.00000
     90       3.8126      2.00000
     91       3.9066      2.00000
     92       3.9261      2.00000
     93       3.9835      2.00000
     94       4.0618      2.00000
     95       4.0981      2.00000
     96       4.1120      2.00000
     97       4.1641      2.00000
     98       4.2236      2.00000
     99       4.2530      2.00000
    100       4.2680      2.00000
    101       4.4400      2.00000
    102       4.5113      2.00000
    103       4.7235      2.00000
    104       4.8061      2.00000
    105       4.8747      2.00000
    106       5.0245      2.00000
    107       5.2322      2.00000
    108       5.4605      1.93344
    109       6.5100      0.00000
    110       7.0737      0.00000
    111       7.2321      0.00000
    112       7.2387      0.00000
    113       7.2488      0.00000
    114       7.4522      0.00000
    115       7.4758      0.00000
    116       7.4764      0.00000
    117       7.7288      0.00000
    118       7.7736      0.00000
    119       7.8551      0.00000
    120       7.8643      0.00000
    121       7.9397      0.00000
    122       8.0481      0.00000
    123       8.0738      0.00000
    124       8.1319      0.00000
    125       8.2958      0.00000
    126       8.3241      0.00000
    127       8.3456      0.00000
    128       8.3460      0.00000
    129       8.3927      0.00000
    130       8.4017      0.00000
    131       8.4492      0.00000
    132       8.5603      0.00000
    133       8.6878      0.00000
    134       8.6884      0.00000
    135       8.7174      0.00000
    136       8.7200      0.00000
    137       8.7855      0.00000
    138       8.8018      0.00000
    139       8.8871      0.00000
    140       8.9232      0.00000
    141       8.9421      0.00000
    142       8.9568      0.00000
    143       8.9813      0.00000
    144       8.9900      0.00000

 k-point     6 :      -0.2500    0.2500    0.0000
  band No.  band energies     occupation 
      1      -6.0010      2.00000
      2      -5.5542      2.00000
      3      -5.4914      2.00000
      4      -5.0689      2.00000
      5      -5.0129      2.00000
      6      -4.6707      2.00000
      7      -4.6621      2.00000
      8      -4.6234      2.00000
      9      -4.5131      2.00000
     10      -4.2193      2.00000
     11      -4.1463      2.00000
     12      -4.1187      2.00000
     13      -4.0108      2.00000
     14      -3.8869      2.00000
     15      -3.5742      2.00000
     16      -3.5496      2.00000
     17      -3.5240      2.00000
     18      -3.4127      2.00000
     19      -3.2417      2.00000
     20      -3.1871      2.00000
     21      -3.0744      2.00000
     22      -3.0378      2.00000
     23      -3.0302      2.00000
     24      -2.8333      2.00000
     25      -2.7287      2.00000
     26      -2.5030      2.00000
     27      -2.1587      2.00000
     28      -1.7895      2.00000
     29      -1.2123      2.00000
     30      -1.1591      2.00000
     31      -1.0608      2.00000
     32      -1.0478      2.00000
     33      -1.0183      2.00000
     34      -1.0115      2.00000
     35      -0.9437      2.00000
     36      -0.8816      2.00000
     37      -0.8700      2.00000
     38      -0.8438      2.00000
     39      -0.8243      2.00000
     40      -0.7110      2.00000
     41      -0.6940      2.00000
     42      -0.4279      2.00000
     43       0.2207      2.00000
     44       0.2833      2.00000
     45       0.3222      2.00000
     46       0.4362      2.00000
     47       0.4823      2.00000
     48       0.5081      2.00000
     49       0.6543      2.00000
     50       1.5147      2.00000
     51       1.5179      2.00000
     52       1.7361      2.00000
     53       1.7418      2.00000
     54       1.7626      2.00000
     55       1.7709      2.00000
     56       1.8602      2.00000
     57       1.8796      2.00000
     58       1.9086      2.00000
     59       1.9886      2.00000
     60       2.1325      2.00000
     61       2.1332      2.00000
     62       2.1657      2.00000
     63       2.1716      2.00000
     64       2.3283      2.00000
     65       2.3980      2.00000
     66       2.5854      2.00000
     67       2.6126      2.00000
     68       2.6265      2.00000
     69       2.6421      2.00000
     70       2.7255      2.00000
     71       2.7922      2.00000
     72       2.7947      2.00000
     73       2.8677      2.00000
     74       3.0523      2.00000
     75       3.0776      2.00000
     76       3.1174      2.00000
     77       3.1309      2.00000
     78       3.1476      2.00000
     79       3.2509      2.00000
     80       3.2636      2.00000
     81       3.2910      2.00000
     82       3.3984      2.00000
     83       3.4047      2.00000
     84       3.4505      2.00000
     85       3.5335      2.00000
     86       3.5637      2.00000
     87       3.7371      2.00000
     88       3.7590      2.00000
     89       3.7767      2.00000
     90       3.7782      2.00000
     91       3.8885      2.00000
     92       3.9298      2.00000
     93       4.0786      2.00000
     94       4.1377      2.00000
     95       4.2642      2.00000
     96       4.3718      2.00000
     97       4.3847      2.00000
     98       4.4361      2.00000
     99       4.4500      2.00000
    100       4.4588      2.00000
    101       4.5130      2.00000
    102       4.5316      2.00000
    103       4.6121      2.00000
    104       4.7781      2.00000
    105       4.8775      2.00000
    106       4.8943      2.00000
    107       5.0801      2.00000
    108       5.6765      0.00002
    109       6.6632      0.00000
    110       6.9482      0.00000
    111       6.9616      0.00000
    112       7.1335      0.00000
    113       7.2122      0.00000
    114       7.4424      0.00000
    115       7.4455      0.00000
    116       7.4906      0.00000
    117       7.4987      0.00000
    118       7.6132      0.00000
    119       7.6147      0.00000
    120       7.6525      0.00000
    121       7.6912      0.00000
    122       7.8038      0.00000
    123       7.8151      0.00000
    124       8.1234      0.00000
    125       8.1474      0.00000
    126       8.2481      0.00000
    127       8.2889      0.00000
    128       8.3097      0.00000
    129       8.3148      0.00000
    130       8.3269      0.00000
    131       8.3390      0.00000
    132       8.3953      0.00000
    133       8.4054      0.00000
    134       8.4264      0.00000
    135       8.4493      0.00000
    136       8.6230      0.00000
    137       8.6643      0.00000
    138       8.6844      0.00000
    139       8.9176      0.00000
    140       8.9400      0.00000
    141       8.9405      0.00000
    142       8.9610      0.00000
    143       9.0314      0.00000
    144       9.0816      0.00000

 k-point     7 :       0.5000    0.5000    0.0000
  band No.  band energies     occupation 
      1      -5.7861      2.00000
      2      -5.7421      2.00000
      3      -5.3333      2.00000
      4      -5.3089      2.00000
      5      -5.3089      2.00000
      6      -5.1423      2.00000
      7      -4.0058      2.00000
      8      -3.9998      2.00000
      9      -3.9998      2.00000
     10      -3.9972      2.00000
     11      -3.9666      2.00000
     12      -3.9269      2.00000
     13      -3.9269      2.00000
     14      -3.9041      2.00000
     15      -3.8096      2.00000
     16      -3.7932      2.00000
     17      -3.7932      2.00000
     18      -3.7864      2.00000
     19      -3.7119      2.00000
     20      -3.7119      2.00000
     21      -3.6789      2.00000
     22      -3.1466      2.00000
     23      -2.1059      2.00000
     24      -2.1035      2.00000
     25      -2.0199      2.00000
     26      -2.0084      2.00000
     27      -2.0084      2.00000
     28      -1.9887      2.00000
     29      -1.9415      2.00000
     30      -1.9279      2.00000
     31      -1.9279      2.00000
     32      -1.5892      2.00000
     33      -0.9314      2.00000
     34      -0.9314      2.00000
     35      -0.9263      2.00000
     36      -0.9033      2.00000
     37      -0.8058      2.00000
     38      -0.8058      2.00000
     39      -0.7979      2.00000
     40      -0.6645      2.00000
     41       0.0306      2.00000
     42       0.0396      2.00000
     43       0.0396      2.00000
     44       0.0635      2.00000
     45       0.0723      2.00000
     46       0.1799      2.00000
     47       0.1799      2.00000
     48       0.4482      2.00000
     49       1.9700      2.00000
     50       1.9907      2.00000
     51       1.9907      2.00000
     52       2.0370      2.00000
     53       2.0459      2.00000
     54       2.0471      2.00000
     55       2.0472      2.00000
     56       2.0472      2.00000
     57       2.0532      2.00000
     58       2.0532      2.00000
     59       2.0571      2.00000
     60       2.0827      2.00000
     61       2.1352      2.00000
     62       2.1383      2.00000
     63       2.1451      2.00000
     64       2.1451      2.00000
     65       2.1713      2.00000
     66       2.3275      2.00000
     67       2.3275      2.00000
     68       2.3610      2.00000
     69       2.8573      2.00000
     70       2.8573      2.00000
     71       2.9177      2.00000
     72       2.9261      2.00000
     73       2.9388      2.00000
     74       2.9388      2.00000
     75       2.9867      2.00000
     76       2.9978      2.00000
     77       2.9978      2.00000
     78       3.0282      2.00000
     79       3.2888      2.00000
     80       3.2941      2.00000
     81       3.2967      2.00000
     82       3.2967      2.00000
     83       3.3716      2.00000
     84       3.3920      2.00000
     85       3.3943      2.00000
     86       3.3943      2.00000
     87       3.4699      2.00000
     88       3.5599      2.00000
     89       3.5599      2.00000
     90       3.5827      2.00000
     91       3.6841      2.00000
     92       3.8975      2.00000
     93       3.8975      2.00000
     94       3.9003      2.00000
     95       3.9051      2.00000
     96       3.9435      2.00000
     97       3.9527      2.00000
     98       4.1346      2.00000
     99       4.1346      2.00000
    100       4.1418      2.00000
    101       4.5253      2.00000
    102       4.5253      2.00000
    103       4.6343      2.00000
    104       4.6343      2.00000
    105       5.1251      2.00000
    106       5.1481      2.00000
    107       5.3253      2.00000
    108       5.3253      2.00000
    109       6.4446      0.00000
    110       6.4533      0.00000
    111       7.4028      0.00000
    112       7.4365      0.00000
    113       7.7224      0.00000
    114       7.7258      0.00000
    115       7.7268      0.00000
    116       7.7268      0.00000
    117       7.7633      0.00000
    118       7.7633      0.00000
    119       7.8941      0.00000
    120       7.9806      0.00000
    121       8.4434      0.00000
    122       8.4434      0.00000
    123       8.4518      0.00000
    124       8.4532      0.00000
    125       8.4537      0.00000
    126       8.4560      0.00000
    127       8.4560      0.00000
    128       8.4656      0.00000
    129       8.5549      0.00000
    130       8.5601      0.00000
    131       8.5641      0.00000
    132       8.5641      0.00000
    133       8.6009      0.00000
    134       8.6439      0.00000
    135       8.6804      0.00000
    136       8.6804      0.00000
    137       8.7462      0.00000
    138       8.7462      0.00000
    139       8.7670      0.00000
    140       8.8943      0.00000
    141       9.2632      0.00000
    142       9.2686      0.00000
    143       9.2859      0.00000
    144       9.2861      0.00000

 k-point     8 :      -0.2500    0.5000    0.2500
  band No.  band energies     occupation 
      1      -5.6981      2.00000
      2      -5.6766      2.00000
      3      -5.6615      2.00000
      4      -5.5003      2.00000
      5      -4.7599      2.00000
      6      -4.7462      2.00000
      7      -4.7132      2.00000
      8      -4.6273      2.00000
      9      -3.9521      2.00000
     10      -3.9360      2.00000
     11      -3.9336      2.00000
     12      -3.9327      2.00000
     13      -3.8944      2.00000
     14      -3.8786      2.00000
     15      -3.8324      2.00000
     16      -3.8019      2.00000
     17      -3.6881      2.00000
     18      -3.6814      2.00000
     19      -3.6389      2.00000
     20      -3.3864      2.00000
     21      -3.0527      2.00000
     22      -3.0266      2.00000
     23      -2.9658      2.00000
     24      -2.7451      2.00000
     25      -2.0861      2.00000
     26      -2.0815      2.00000
     27      -2.0170      2.00000
     28      -2.0135      2.00000
     29      -1.9046      2.00000
     30      -1.7419      2.00000
     31      -1.1381      2.00000
     32      -1.1269      2.00000
     33      -1.1239      2.00000
     34      -1.1231      2.00000
     35      -0.9547      2.00000
     36      -0.8976      2.00000
     37      -0.8658      2.00000
     38      -0.7639      2.00000
     39      -0.3516      2.00000
     40      -0.3440      2.00000
     41      -0.3349      2.00000
     42      -0.3224      2.00000
     43      -0.2646      2.00000
     44      -0.2184      2.00000
     45      -0.1930      2.00000
     46       0.0520      2.00000
     47       1.0122      2.00000
     48       1.0628      2.00000
     49       1.0713      2.00000
     50       1.1468      2.00000
     51       1.8710      2.00000
     52       1.8739      2.00000
     53       1.8991      2.00000
     54       1.9341      2.00000
     55       1.9552      2.00000
     56       2.0955      2.00000
     57       2.4472      2.00000
     58       2.4506      2.00000
     59       2.4540      2.00000
     60       2.4590      2.00000
     61       2.4880      2.00000
     62       2.4947      2.00000
     63       2.4990      2.00000
     64       2.5039      2.00000
     65       2.5196      2.00000
     66       2.5423      2.00000
     67       2.5436      2.00000
     68       2.5519      2.00000
     69       2.5565      2.00000
     70       2.5897      2.00000
     71       2.6083      2.00000
     72       2.6173      2.00000
     73       2.6188      2.00000
     74       2.6377      2.00000
     75       2.7766      2.00000
     76       2.8438      2.00000
     77       3.0010      2.00000
     78       3.0157      2.00000
     79       3.0449      2.00000
     80       3.0480      2.00000
     81       3.1357      2.00000
     82       3.1608      2.00000
     83       3.1623      2.00000
     84       3.2955      2.00000
     85       3.5562      2.00000
     86       3.5597      2.00000
     87       3.5757      2.00000
     88       3.5926      2.00000
     89       3.6180      2.00000
     90       3.6526      2.00000
     91       3.7117      2.00000
[...]
   50        0.752   0.927   0.000   1.679
   51        0.752   0.927   0.000   1.679
   52        0.753   0.937   0.000   1.690
   53        0.753   0.926   0.000   1.679
   54        0.753   0.937   0.000   1.690
--------------------------------------------------
tot         40.561  50.390   0.000  90.951
 
    CHARGE:  cpu time    0.1632: real time    0.1644
    FORLOC:  cpu time    0.0335: real time    0.0336
    FORNL :  cpu time    1.5345: real time    1.5459
    STRESS:  cpu time    5.7460: real time    5.7960
    FORCOR:  cpu time    0.1094: real time    0.1120
    FORHAR:  cpu time    0.0475: real time    0.0477
    MIXING:  cpu time    0.0124: real time    0.0124
    OFIELD:  cpu time    0.0001: real time    0.0001

  FORCE on cell =-STRESS in cart. coord.  units (eV):
  Direction    XX          YY          ZZ          XY          YZ          ZX
  --------------------------------------------------------------------------------------
  Alpha Z    93.27357    93.27357    93.27357
  Ewald   -2038.87823 -2038.87824 -2038.87823    -0.00000    -0.00000    -0.00000
  Hartree   135.49613   135.49613   135.49613    -0.00000     0.00000     0.00000
  E(xc)    -679.09202  -679.09201  -679.09204    -0.00001    -0.00001    -0.00002
  Local    -779.25904  -779.25914  -779.25865     0.00014     0.00024     0.00034
  n-local  2042.80897  2057.61915  2068.10035    -3.13504    -0.95633     0.67624
  augment  -309.15785  -309.15775  -309.15824    -0.00014    -0.00024    -0.00034
  Kinetic  1503.26225  1525.99578  1542.60217    -2.90100    -1.35806     0.96029
  Fock        0.00000     0.00000     0.00000     0.00000     0.00000     0.00000
  -------------------------------------------------------------------------------------
  Total       2.51211     2.51211     2.51211     0.00000     0.00000    -0.00000
  in kB       3.72329     3.72329     3.72329     0.00000     0.00000    -0.00000
  external pressure =        3.72 kB  Pullay stress =        0.00 kB


 VOLUME and BASIS-vectors are now :
 -----------------------------------------------------------------------------
  energy-cutoff  :      550.00
  volume of cell :     1080.99
      direct lattice vectors                 reciprocal lattice vectors
     9.976465530  0.000000000  5.759915070     0.100235900 -0.035438742  0.000000000
     3.325488510  9.405901920  5.759915070     0.000000000  0.106316227  0.000000000
     0.000000000  0.000000000 11.519830140    -0.050117950 -0.035438742  0.086806836

  length of vectors
    11.519830124 11.519830136 11.519830140     0.106316227  0.106316227  0.106316227


 FORCES acting on ions
    electron-ion (+dipol)            ewald-force                    non-local-force                 convergence-correction
 -----------------------------------------------------------------------------------------------
   -.353E-06 -.193E-06 -.554E-06   0.119E-06 -.632E-07 0.720E-11   0.369E-17 -.173E-17 -.278E-16   -.189E-07 -.133E-07 -.327E-07
   -.403E+01 -.285E+01 -.398E+01   0.359E+01 0.254E+01 0.351E+01   0.450E+00 0.318E+00 0.470E+00   -.425E-03 -.300E-03 -.190E-02
   -.403E+01 -.285E+01 0.398E+01   0.359E+01 0.254E+01 -.351E+01   0.450E+00 0.318E+00 -.470E+00   -.425E-03 -.300E-03 0.190E-02
   -.316E+01 -.398E+00 -.548E+01   0.281E+01 0.329E+00 0.486E+01   0.361E+00 0.655E-01 0.624E+00   -.760E-03 -.125E-02 -.132E-02
   -.766E+00 0.271E+00 0.154E-05   0.883E+00 -.312E+00 -.134E-11   -.892E-01 0.315E-01 -.694E-17   -.903E-02 0.319E-02 0.193E-07
   -.316E+01 -.398E+00 0.548E+01   0.281E+01 0.329E+00 -.486E+01   0.361E+00 0.655E-01 -.624E+00   -.760E-03 -.125E-02 0.132E-02
   -.867E+00 0.610E+01 -.150E+01   0.781E+00 -.540E+01 0.135E+01   0.893E-01 -.702E+00 0.155E+00   0.335E-03 0.185E-02 0.580E-03
   -.867E+00 0.610E+01 0.150E+01   0.781E+00 -.540E+01 -.135E+01   0.893E-01 -.702E+00 -.155E+00   0.335E-03 0.185E-02 -.580E-03
   -.403E+00 0.142E+00 0.997E-07   0.468E+00 -.166E+00 -.368E-11   -.531E-01 0.188E-01 -.104E-16   -.642E-02 0.227E-02 -.144E-07
   -.143E+01 -.285E+01 -.548E+01   0.125E+01 0.254E+01 0.486E+01   0.182E+00 0.318E+00 0.624E+00   -.143E-02 -.300E-03 -.132E-02
   0.812E-06 -.813E+00 0.154E-05   0.116E-06 0.937E+00 -.135E-11   0.867E-18 -.946E-01 0.243E-16   0.112E-07 -.957E-02 0.193E-07
   -.143E+01 -.285E+01 0.548E+01   0.125E+01 0.254E+01 -.486E+01   0.182E+00 0.318E+00 -.624E+00   -.143E-02 -.300E-03 0.132E-02
   0.383E+00 0.271E+00 -.664E+00   -.442E+00 -.312E+00 0.765E+00   0.446E-01 0.315E-01 -.772E-01   0.451E-02 0.319E-02 -.782E-02
   0.383E+00 0.271E+00 0.664E+00   -.442E+00 -.312E+00 -.765E+00   0.446E-01 0.315E-01 0.772E-01   0.451E-02 0.319E-02 0.782E-02
   -.617E+00 -.436E+00 0.369E-06   0.550E+00 0.389E+00 0.202E-11   0.596E-01 0.422E-01 0.173E-16   0.952E-03 0.673E-03 0.108E-07
   0.173E+01 0.610E+01 -.185E-05   -.156E+01 -.540E+01 0.635E-11   -.179E+00 -.702E+00 -.278E-16   -.670E-03 0.185E-02 -.362E-07
   -.309E+00 0.436E+00 -.534E+00   0.275E+00 -.389E+00 0.477E+00   0.298E-01 -.422E-01 0.516E-01   0.476E-03 -.673E-03 0.824E-03
   -.309E+00 0.436E+00 0.534E+00   0.275E+00 -.389E+00 -.477E+00   0.298E-01 -.422E-01 -.516E-01   0.476E-03 -.673E-03 -.824E-03
   0.546E+01 -.285E+01 -.150E+01   -.483E+01 0.254E+01 0.135E+01   -.632E+00 0.318E+00 0.155E+00   0.185E-02 -.300E-03 0.580E-03
   0.546E+01 -.285E+01 0.150E+01   -.483E+01 0.254E+01 -.135E+01   -.632E+00 0.318E+00 -.155E+00   0.185E-02 -.300E-03 -.580E-03
   -.249E-07 -.427E+00 0.997E-07   0.128E-06 0.497E+00 -.370E-11   0.781E-17 -.564E-01 -.451E-16   -.834E-08 -.681E-02 -.144E-07
   0.633E+01 -.398E+00 -.185E-05   -.562E+01 0.329E+00 0.637E-11   -.721E+00 0.655E-01 -.130E-16   0.152E-02 -.125E-02 -.362E-07
   0.309E+00 -.436E+00 -.534E+00   -.275E+00 0.389E+00 0.477E+00   -.298E-01 0.422E-01 0.516E-01   -.476E-03 0.673E-03 0.824E-03
   0.309E+00 -.436E+00 0.534E+00   -.275E+00 0.389E+00 -.477E+00   -.298E-01 0.422E-01 -.516E-01   -.476E-03 0.673E-03 -.824E-03
   0.201E+00 0.142E+00 -.349E+00   -.234E+00 -.166E+00 0.406E+00   0.266E-01 0.188E-01 -.460E-01   0.321E-02 0.227E-02 -.556E-02
   0.617E+00 0.436E+00 0.882E-06   -.550E+00 -.389E+00 0.265E-11   -.596E-01 -.422E-01 0.173E-16   -.952E-03 -.673E-03 0.320E-07
   0.201E+00 0.142E+00 0.349E+00   -.234E+00 -.166E+00 -.406E+00   0.266E-01 0.188E-01 0.460E-01   0.321E-02 0.227E-02 0.556E-02
   0.616E-06 0.355E-06 0.961E-06   -.115E-06 0.613E-07 0.713E-11   -.694E-17 0.694E-17 0.520E-16   -.192E-07 -.135E-07 -.332E-07
   0.198E+01 0.140E+01 0.138E+01   -.177E+01 -.125E+01 -.134E+01   -.187E+00 -.132E+00 -.406E-01   0.139E-02 0.980E-03 0.141E-02
   0.198E+01 0.140E+01 -.138E+01   -.177E+01 -.125E+01 0.134E+01   -.187E+00 -.132E+00 0.406E-01   0.139E-02 0.980E-03 -.141E-02
   0.139E+01 -.278E+00 0.241E+01   -.127E+01 0.158E+00 -.220E+01   -.105E+00 0.988E-01 -.182E+00   0.110E-02 0.169E-03 0.190E-02
   0.101E+02 -.357E+01 -.169E-05   -.935E+01 0.331E+01 0.618E-11   -.755E+00 0.267E+00 -.278E-16   -.194E-02 0.685E-03 -.104E-08
   0.139E+01 -.278E+00 -.241E+01   -.127E+01 0.158E+00 0.220E+01   -.105E+00 0.988E-01 0.182E+00   0.110E-02 0.169E-03 -.190E-02
   0.594E+00 -.253E+01 0.103E+01   -.498E+00 0.234E+01 -.862E+00   -.816E-01 0.165E+00 -.141E+00   0.287E-03 -.213E-02 0.497E-03
   0.594E+00 -.253E+01 -.103E+01   -.498E+00 0.234E+01 0.862E+00   -.816E-01 0.165E+00 0.141E+00   0.287E-03 -.213E-02 -.497E-03
   -.327E+00 0.116E+00 -.455E-06   0.336E+00 -.119E+00 -.571E-11   -.253E-02 0.893E-03 -.278E-16   -.217E-02 0.768E-03 0.357E-07
   0.201E+00 0.140E+01 0.241E+01   -.274E+00 -.125E+01 -.220E+01   0.581E-01 -.132E+00 -.182E+00   0.526E-03 0.980E-03 0.190E-02
   -.932E-06 0.107E+02 -.169E-05   -.972E-07 -.992E+01 0.615E-11   0.416E-16 -.800E+00 -.694E-17   -.613E-09 -.205E-02 -.104E-08
   0.201E+00 0.140E+01 -.241E+01   -.274E+00 -.125E+01 0.220E+01   0.581E-01 -.132E+00 0.182E+00   0.526E-03 0.980E-03 -.190E-02
   -.506E+01 -.357E+01 0.876E+01   0.468E+01 0.331E+01 -.810E+01   0.377E+00 0.267E+00 -.654E+00   0.969E-03 0.685E-03 -.168E-02
   -.506E+01 -.357E+01 -.876E+01   0.468E+01 0.331E+01 0.810E+01   0.377E+00 0.267E+00 0.654E+00   0.969E-03 0.685E-03 0.168E-02
   0.131E+01 0.926E+00 -.117E-05   -.845E+00 -.598E+00 -.112E-11   -.491E+00 -.347E+00 0.486E-16   -.668E-02 -.472E-02 -.386E-08
   -.119E+01 -.253E+01 0.888E-06   0.996E+00 0.234E+01 -.573E-11   0.163E+00 0.165E+00 -.520E-16   -.574E-03 -.213E-02 -.447E-08
   0.654E+00 -.926E+00 0.113E+01   -.423E+00 0.598E+00 -.732E+00   -.246E+00 0.347E+00 -.425E+00   -.334E-02 0.472E-02 -.578E-02
   0.654E+00 -.926E+00 -.113E+01   -.423E+00 0.598E+00 0.732E+00   -.246E+00 0.347E+00 0.425E+00   -.334E-02 0.472E-02 0.578E-02
   -.219E+01 0.140E+01 0.103E+01   0.204E+01 -.125E+01 -.862E+00   0.128E+00 -.132E+00 -.141E+00   -.191E-02 0.980E-03 0.497E-03
   -.219E+01 0.140E+01 -.103E+01   0.204E+01 -.125E+01 0.862E+00   0.128E+00 -.132E+00 0.141E+00   -.191E-02 0.980E-03 -.497E-03
   -.188E-06 -.347E+00 -.455E-06   -.122E-06 0.357E+00 -.571E-11   0.607E-17 -.268E-02 -.243E-16   0.206E-07 -.231E-02 0.357E-07
   -.278E+01 -.278E+00 0.888E-06   0.254E+01 0.158E+00 -.573E-11   0.210E+00 0.988E-01 -.520E-16   -.220E-02 0.169E-03 -.446E-08
   -.654E+00 0.926E+00 0.113E+01   0.423E+00 -.598E+00 -.732E+00   0.246E+00 -.347E+00 -.425E+00   0.334E-02 -.472E-02 -.578E-02
   -.654E+00 0.926E+00 -.113E+01   0.423E+00 -.598E+00 0.732E+00   0.246E+00 -.347E+00 0.425E+00   0.334E-02 -.472E-02 0.578E-02
   0.164E+00 0.116E+00 -.283E+00   -.168E+00 -.119E+00 0.291E+00   0.126E-02 0.893E-03 -.219E-02   0.109E-02 0.768E-03 -.188E-02
   -.131E+01 -.926E+00 -.190E-05   0.845E+00 0.598E+00 0.472E-11   0.491E+00 0.347E+00 -.477E-17   0.668E-02 0.472E-02 -.128E-07
   0.164E+00 0.116E+00 0.283E+00   -.168E+00 -.119E+00 -.291E+00   0.126E-02 0.893E-03 0.219E-02   0.109E-02 0.768E-03 0.188E-02
 -----------------------------------------------------------------------------------------------
   -.383E-05 -.276E-05 -.652E-05   -.266E-13 0.246E-13 -.128E-13   -.114E-14 -.513E-15 -.681E-15   -.352E-07 -.248E-07 -.608E-07
 
 
 POSITION                                       TOTAL-FORCE (eV/Angst)
 -----------------------------------------------------------------------------------
      3.87974      2.74339      6.71990        -0.000000      0.000000     -0.000000
      3.89647      2.75522     10.50579         0.006301      0.004456     -0.000329
      3.89647      2.75522     14.45384         0.006301      0.004456      0.000329
      4.98100      5.82272      8.62734         0.003056     -0.004724      0.005293
      4.99192      5.87738     12.47982         0.018782     -0.006641     -0.000000
      4.98100      5.82272     16.33230         0.003056     -0.004724     -0.005293
      6.12070      9.04629     10.60136         0.003246     -0.004187      0.005622
      6.12070      9.04629     14.35827         0.003246     -0.004187     -0.005622
      6.09846      9.01338     18.23973         0.005910     -0.002089     -0.000000
      7.15005      2.75522      8.62734        -0.003436      0.004456      0.005293
      7.20523      2.74730     12.47982        -0.000000      0.019922     -0.000000
      7.15005      2.75522     16.33230        -0.003436      0.004456     -0.005293
      8.31188      5.87738     10.56304        -0.009391     -0.006641      0.016266
      8.31188      5.87738     14.39659        -0.009391     -0.006641     -0.016266
      8.30857      5.87504     18.23973        -0.006241     -0.004413     -0.000000
      9.37428      9.04629     12.47982        -0.006491     -0.004187     -0.000000
      9.41964      9.01763     16.31530        -0.003121      0.004413     -0.005405
      9.41964      9.01763     20.16417        -0.003121      0.004413      0.005405
     10.56916      2.75522     10.60136        -0.002866      0.004456      0.005622
     10.56916      2.75522     14.35827        -0.002866      0.004456     -0.005622
     10.53071      2.74522     18.23973        -0.000000      0.006268     -0.000000
     11.65369      5.82272     12.47982        -0.006111     -0.004724     -0.000000
     11.64179      5.87504     16.31530         0.003121     -0.004413     -0.005405
     11.64179      5.87504     20.16417         0.003121     -0.004413      0.005405
     12.74684      9.01338     14.40129        -0.002955     -0.002089      0.005118
     12.75286      9.01763     18.23973         0.006241      0.004413     -0.000000
     12.74684      9.01338     22.07818        -0.002955     -0.002089     -0.005118
      0.55425      0.39191      0.95999        -0.000000      0.000000     -0.000000
      0.56236      0.39765      4.79557         0.031400      0.022203      0.001295
      0.56236      0.39765      8.64423         0.031400      0.022203     -0.001295
      1.66554      3.51792      2.88480         0.016074     -0.021146      0.027841
      1.90672      3.44095      6.71990         0.001518     -0.000537     -0.000000
      1.66554      3.51792     10.55500         0.016074     -0.021146     -0.027841
      2.77655      6.66034      4.80913         0.015326     -0.023261      0.026546
      2.77655      6.66034      8.63067         0.015326     -0.023261     -0.026546
      2.77110      6.66256     12.47982         0.004597     -0.001625     -0.000000
      3.87190      0.39765      2.88480        -0.014578      0.022203      0.027841
      3.87974      0.65069      6.71990        -0.000000      0.001610     -0.000000
      3.87190      0.39765     10.55500        -0.014578      0.022203     -0.027841
      4.86624      3.44095      5.01122        -0.000759     -0.000537      0.001315
      4.86624      3.44095      8.42858        -0.000759     -0.000537     -0.001315
      4.98363      3.52396     12.47982        -0.034308     -0.024260     -0.000000
      6.08610      6.66034      6.71990        -0.030652     -0.023261     -0.000000
      6.09443      6.66577     10.55586        -0.017154      0.024260     -0.029712
      6.09443      6.66577     14.40377        -0.017154      0.024260      0.029712
      7.20495      0.39765      4.80913        -0.016821      0.022203      0.026546
      7.20495      0.39765      8.63067        -0.016821      0.022203     -0.026546
      7.20523      0.39177     12.47982        -0.000000      0.004875     -0.000000
      8.30813      3.51792      6.71990        -0.032148     -0.021146     -0.000000
      8.31602      3.52396     10.55586         0.017154     -0.024260     -0.029712
      8.31602      3.52396     14.40377         0.017154     -0.024260      0.029712
      9.42229      6.66256      8.63976        -0.002298     -0.001625      0.003981
      9.42682      6.66577     12.47982         0.034308      0.024260     -0.000000
      9.42229      6.66256     16.31988        -0.002298     -0.001625     -0.003981
 -----------------------------------------------------------------------------------
    total drift:                               -0.000004     -0.000003     -0.000007


--------------------------------------------------------------------------------------------------------



  FREE ENERGIE OF THE ION-ELECTRON SYSTEM (eV)
  ---------------------------------------------------
  free  energy   TOTEN  =      -293.36754148 eV

  energy  without entropy=     -293.36517337  energy(sigma->0) =     -293.36635743
 
 d Force = 0.1618165E-01[ 0.452E-02, 0.278E-01]  d Energy = 0.1623122E-01-0.496E-04
 d Force = 0.3159793E+00[ 0.244E+00, 0.388E+00]  d Ewald  = 0.3158989E+00 0.804E-04


--------------------------------------------------------------------------------------------------------


    POTLOK:  cpu time    0.0905: real time    0.0911


--------------------------------------------------------------------------------------------------------


 Conjugate gradient step on ions:
 trial-energy change:   -0.016231  1 .order   -0.016182   -0.027843   -0.004520
  (g-gl).g = 0.690E-02      g.g   = 0.218E-01  gl.gl    = 0.226E+00
 g(Force)  = 0.218E-01   g(Stress)= 0.000E+00 ortho     = 0.104E-03
 gamma     =   0.03053
 trial     =   1.27600
 opt step  =   1.51962  (harmonic =   1.52332) maximal distance =0.00916470
 next E    =  -293.367973   (d E  =  -0.01666)


--------------------------------------------------------------------------------------------------------


  
 reached required accuracy - stopping structural energy minimisation
 writing wavefunctions
     LOOP+:  cpu time   34.7126: real time   35.2895
    4ORBIT:  cpu time    0.0000: real time    0.0000
 


 total charge     
 
# of ion       s       p       d       tot
------------------------------------------
    1        0.660   1.134   0.000   1.795
    2        0.753   0.923   0.000   1.676
    3        0.753   0.923   0.000   1.676
    4        0.753   0.924   0.000   1.677
    5        0.752   0.938   0.000   1.690
    6        0.753   0.924   0.000   1.677
    7        0.753   0.923   0.000   1.677
    8        0.753   0.923   0.000   1.676
    9        0.753   0.938   0.000   1.690
   10        0.754   0.924   0.000   1.678
   11        0.753   0.938   0.000   1.691
   12        0.754   0.924   0.000   1.678
   13        0.753   0.939   0.000   1.691
   14        0.753   0.939   0.000   1.691
   15        0.753   0.936   0.000   1.689
   16        0.754   0.924   0.000   1.678
   17        0.753   0.936   0.000   1.689
   18        0.753   0.936   0.000   1.689
   19        0.754   0.924   0.000   1.677
   20        0.754   0.924   0.000   1.677
   21        0.753   0.938   0.000   1.691
   22        0.754   0.924   0.000   1.677
   23        0.753   0.936   0.000   1.689
   24        0.753   0.936   0.000   1.689
   25        0.753   0.938   0.000   1.691
   26        0.753   0.936   0.000   1.688
   27        0.753   0.938   0.000   1.691
   28        0.753   0.938   0.000   1.691
   29        0.753   0.936   0.000   1.689
   30        0.753   0.936   0.000   1.689
   31        0.753   0.935   0.000   1.688
   32        0.753   0.897   0.000   1.650
   33        0.753   0.935   0.000   1.688
   34        0.753   0.936   0.000   1.689
   35        0.753   0.936   0.000   1.689
   36        0.752   0.937   0.000   1.689
   37        0.753   0.934   0.000   1.687
   38        0.751   0.897   0.000   1.648
   39        0.753   0.935   0.000   1.687
   40        0.751   0.896   0.000   1.647
   41        0.751   0.896   0.000   1.647
   42        0.752   0.925   0.000   1.677
   43        0.753   0.935   0.000   1.688
   44        0.752   0.926   0.000   1.678
   45        0.752   0.926   0.000   1.678
   46        0.753   0.936   0.000   1.689
   47        0.753   0.936   0.000   1.689
   48        0.753   0.937   0.000   1.689
   49        0.753   0.936   0.000   1.689
   50        0.752   0.927   0.000   1.679
   51        0.752   0.927   0.000   1.679
   52        0.753   0.937   0.000   1.690
   53        0.753   0.926   0.000   1.679
   54        0.753   0.937   0.000   1.690
--------------------------------------------------
tot         40.561  50.390   0.000  90.951
 

 total amount of memory used by VASP MPI-rank0   140598. kBytes
=======================================================================

   base      :      30000. kBytes
   nonl-proj :      59902. kBytes
   fftplans  :       5382. kBytes
   grid      :      20451. kBytes
   one-center:        165. kBytes
   wavefun   :      24698. kBytes
 
  
  
 General timing and accounting informations for this job:
 ========================================================
  
                  Total CPU time used (sec):      242.703
                            User time (sec):      238.220
                          System time (sec):        4.483
                         Elapsed time (sec):      298.934
  
                   Maximum memory used (kb):      438180.
                   Average memory used (kb):           0.
  
                          Minor page faults:        36472
                          Major page faults:            0
                 Voluntary context switches:         4014
