 vasp.6.3.0 20Jan22 (build Mar 07 2022 09:35:52) complex                        
  
 executed on             LinuxIFC date 2025.09.11  13:28:12
 running on   64 total cores
 distrk:  each k-point on   64 cores,    1 groups
 distr:  one band on NCORE=   1 cores,   64 groups


--------------------------------------------------------------------------------------------------------


 INCAR:
   ALGO = Normal
   AMIX = 0.2
   EDIFF = 1e-06
   EDIFFG = -0.05
   ENCUT = 550
   IBRION = 2
   ISIF = 2
   ISMEAR = 0
   ISPIN = 1
   ISYM = 2
   LCHARG = .FALSE.
   LORBIT = 11
   LREAL = .FALSE.
   LVTOT = True
   LWAVE = .FALSE.
   NELECT = 392.0
   NELM = 200
   NSW = 0
   SIGMA = 0.05
   SYSTEM = SiO2

 POTCAR:    PAW_PBE Si 05Jan2001                  
 POTCAR:    PAW_PBE O 08Apr2002                   
 WARNING: For LVTOT=.TRUE., VASP.5.x writes the TOTAL local potential to the
     file LOCPOT. If you want only the Hartree contributions, use LVHAR=.TRUE.
     instead. 

 -----------------------------------------------------------------------------
|                                                                             |
|           W    W    AA    RRRRR   N    N  II  N    N   GGGG   !!!           |
|           W    W   A  A   R    R  NN   N  II  NN   N  G    G  !!!           |
|           W    W  A    A  R    R  N N  N  II  N N  N  G       !!!           |
|           W WW W  AAAAAA  RRRRR   N  N N  II  N  N N  G  GGG   !            |
|           WW  WW  A    A  R   R   N   NN  II  N   NN  G    G                |
|           W    W  A    A  R    R  N    N  II  N    N   GGGG   !!!           |
|                                                                             |
|     For optimal performance we recommend to set                             |
|       NCORE = 2 up to number-of-cores-per-socket                            |
|     NCORE specifies how many cores store one orbital (NPAR=cpu/NCORE).      |
|     This setting can greatly improve the performance of VASP for DFT.       |
|     The default, NCORE=1 might be grossly inefficient on modern             |
|     multi-core architectures or massively parallel machines. Do your        |
|     own testing! More info at https://www.vasp.at/wiki/index.php/NCORE      |
|     Unfortunately you need to use the default for GW and RPA                |
|     calculations (for HF NCORE is supported but not extensively tested      |
|     yet).                                                                   |
|                                                                             |
 -----------------------------------------------------------------------------

 POTCAR:    PAW_PBE Si 05Jan2001                  
   VRHFIN =Si: s2p2                                                                                 
   LEXCH  = PE                                                                                      
   EATOM  =   103.0669 eV,    7.5752 Ry                                                             
                                                                                                    
   TITEL  = PAW_PBE Si 05Jan2001                                                                    
   LULTRA =        F    use ultrasoft PP ?                                                          
   IUNSCR =        1    unscreen: 0-lin 1-nonlin 2-no                                               
   RPACOR =    1.500    partial core radius                                                         
   POMASS =   28.085; ZVAL   =    4.000    mass and valenz                                          
   RCORE  =    1.900    outmost cutoff radius                                                       
   RWIGS  =    2.480; RWIGS  =    1.312    wigner-seitz radius (au A)                               
   ENMAX  =  245.345; ENMIN  =  184.009 eV                                                          
   ICORE  =        2    local potential                                                             
   LCOR   =        T    correct aug charges                                                         
   LPAW   =        T    paw PP                                                                      
   EAUG   =  322.069                                                                                
   DEXC   =    0.000                                                                                
   RMAX   =    1.950    core radius for proj-oper                                                   
   RAUG   =    1.300    factor for augmentation sphere                                              
   RDEP   =    1.993    radius for radial grids                                                     
   RDEPT  =    1.837    core radius for aug-charge                                                  
                                                                                                    
   Atomic configuration                                                                             
    6 entries                                                                                       
     n  l   j            E        occ.                                                              
     1  0  0.50     -1785.8828   2.0000                                                             
     2  0  0.50      -139.4969   2.0000                                                             
     2  1  1.50       -95.5546   6.0000                                                             
     3  0  0.50       -10.8127   2.0000                                                             
     3  1  0.50        -4.0811   2.0000                                                             
     3  2  1.50        -4.0817   0.0000                                                             
   Description                                                                                      
     l       E           TYP  RCUT    TYP  RCUT                                                     
     0    -10.8127223     23  1.900                                                                 
     0     -7.6451159     23  1.900                                                                 
     1     -4.0811372     23  1.900                                                                 
     1      2.4879257     23  1.900                                                                 
     2     -4.0817478      7  1.900                                                                 
  local pseudopotential read in
  partial core-charges read in
  partial kinetic energy density read in
  atomic valenz-charges read in
  non local Contribution for L=           0  read in
    real space projection operators read in
  non local Contribution for L=           0  read in
    real space projection operators read in
  non local Contribution for L=           1  read in
    real space projection operators read in
  non local Contribution for L=           1  read in
    real space projection operators read in
    PAW grid and wavefunctions read in
 
   number of l-projection  operators is LMAX  =           4
   number of lm-projection operators is LMMAX =           8
 
 POTCAR:    PAW_PBE O 08Apr2002                   
   VRHFIN =O: s2p4                                                                                  
   LEXCH  = PE                                                                                      
   EATOM  =   432.3788 eV,   31.7789 Ry                                                             
                                                                                                    
   TITEL  = PAW_PBE O 08Apr2002                                                                     
   LULTRA =        F    use ultrasoft PP ?                                                          
   IUNSCR =        1    unscreen: 0-lin 1-nonlin 2-no                                               
   RPACOR =    1.200    partial core radius                                                         
   POMASS =   16.000; ZVAL   =    6.000    mass and valenz                                          
   RCORE  =    1.520    outmost cutoff radius                                                       
   RWIGS  =    1.550; RWIGS  =    0.820    wigner-seitz radius (au A)                               
   ENMAX  =  400.000; ENMIN  =  300.000 eV                                                          
   ICORE  =        2    local potential                                                             
   LCOR   =        T    correct aug charges                                                         
   LPAW   =        T    paw PP                                                                      
   EAUG   =  605.392                                                                                
   DEXC   =    0.000                                                                                
   RMAX   =    1.553    core radius for proj-oper                                                   
   RAUG   =    1.300    factor for augmentation sphere                                              
   RDEP   =    1.550    radius for radial grids                                                     
   RDEPT  =    1.329    core radius for aug-charge                                                  
                                                                                                    
   Atomic configuration                                                                             
    4 entries                                                                                       
     n  l   j            E        occ.                                                              
     1  0  0.50      -514.6923   2.0000                                                             
     2  0  0.50       -23.9615   2.0000                                                             
     2  1  0.50        -9.0305   4.0000                                                             
     3  2  1.50        -9.5241   0.0000                                                             
   Description                                                                                      
     l       E           TYP  RCUT    TYP  RCUT                                                     
     0    -23.9615318     23  1.200                                                                 
     0     -9.5240782     23  1.200                                                                 
     1     -9.0304911     23  1.520                                                                 
     1      8.1634956     23  1.520                                                                 
     2     -9.5240782      7  1.500                                                                 
  local pseudopotential read in
  partial core-charges read in
  partial kinetic energy density read in
  kinetic energy density of atom read in
  atomic valenz-charges read in
  non local Contribution for L=           0  read in
    real space projection operators read in
  non local Contribution for L=           0  read in
    real space projection operators read in
  non local Contribution for L=           1  read in
    real space projection operators read in
  non local Contribution for L=           1  read in
    real space projection operators read in
    PAW grid and wavefunctions read in
 
   number of l-projection  operators is LMAX  =           4
   number of lm-projection operators is LMMAX =           8
 
 -----------------------------------------------------------------------------
|                                                                             |
|               ----> ADVICE to this user running VASP <----                  |
|                                                                             |
|     You have a (more or less) 'large supercell' and for larger cells it     |
|     might be more efficient to use real-space projection operators.         |
|     Therefore, try LREAL= Auto in the INCAR file.                           |
|     Mind: For very accurate calculation, you might also keep the            |
|     reciprocal projection scheme (i.e. LREAL=.FALSE.).                      |
|                                                                             |
 -----------------------------------------------------------------------------

  PAW_PBE Si 05Jan2001                  :
 energy of atom  1       EATOM= -103.0669
 kinetic energy error for atom=    0.0004 (will be added to EATOM!!)
  PAW_PBE O 08Apr2002                   :
 energy of atom  2       EATOM= -432.3788
 kinetic energy error for atom=    0.0194 (will be added to EATOM!!)
 
 
 POSCAR: Si24 O49
  positions in direct lattice
  No initial velocities read in
 exchange correlation table for  LEXCH =        8
   RHO(1)=    0.500       N(1)  =     2000
   RHO(2)=  100.500       N(2)  =     4000

 VTST: version 4.2, (08/11/21)

 CHAIN: initializing optimizer
 
 OPT: Using VASP Conjugate-Gradient optimizer
 CHAIN: Read ICHAIN            0
 
 POSCAR: Si24 O49
  positions in direct lattice
  No initial velocities read in
 


--------------------------------------------------------------------------------------------------------


 ion  position               nearest neighbor table
   1  0.266  0.266  0.000-  66 1.61  33 1.61  49 1.62  26 1.62  14 3.06  19 3.06  17 3.06  10 3.06

   2  0.266  0.266  0.500-  65 1.61  34 1.61  50 1.62  25 1.62  13 3.06  20 3.06  18 3.06   9 3.06

   3  0.266  0.766  0.000-  68 1.61  35 1.61  51 1.62  28 1.62  16 3.06  17 3.06  12 3.06  19 3.06

   4  0.266  0.766  0.500-  67 1.61  36 1.61  52 1.62  27 1.62  15 3.06  18 3.06  11 3.06  20 3.06

   5  0.766  0.266  0.000-  70 1.61  37 1.61  53 1.62  30 1.62  10 3.06  23 3.06  21 3.06  14 3.06

   6  0.766  0.266  0.500-  69 1.61  38 1.61  54 1.62  29 1.62   9 3.06  24 3.06  22 3.06  13 3.06

   7  0.766  0.766  0.000-  72 1.61  39 1.61  55 1.62  32 1.62  73 2.52  21 3.06  12 3.06  23 3.06
                            16 3.06
   8  0.766  0.766  0.500-  71 1.61  40 1.61  56 1.62  31 1.62  11 3.06  22 3.06  15 3.06  24 3.06

   9  0.000  0.234  0.333-  25 1.61  61 1.61  41 1.62  69 1.62   6 3.06   2 3.06  19 3.06  21 3.06

  10  0.000  0.234  0.833-  26 1.61  62 1.61  42 1.62  70 1.62   5 3.06   1 3.06  20 3.06  22 3.06

  11  0.000  0.734  0.333-  27 1.61  63 1.61  43 1.62  71 1.62   8 3.06   4 3.06  17 3.06  23 3.06

  12  0.000  0.734  0.833-  28 1.61  64 1.61  44 1.62  72 1.62   7 3.06   3 3.06  18 3.06  24 3.06

  13  0.500  0.234  0.333-  29 1.61  57 1.61  45 1.62  65 1.62   2 3.06   6 3.06  17 3.06  23 3.06

  14  0.500  0.234  0.833-  30 1.61  58 1.61  46 1.62  66 1.62   1 3.06   5 3.06  18 3.06  24 3.06

  15  0.500  0.734  0.333-  31 1.61  59 1.61  47 1.62  67 1.62   4 3.06   8 3.06  19 3.06  21 3.06

  16  0.500  0.734  0.833-  32 1.61  60 1.61  48 1.62  68 1.62   3 3.06   7 3.06  20 3.06  22 3.06

  17  0.234  0.000  0.167-  49 1.61  43 1.61  35 1.62  57 1.62   3 3.06   1 3.06  11 3.06  13 3.06

  18  0.234  0.000  0.667-  50 1.61  44 1.61  36 1.62  58 1.62   4 3.06   2 3.06  12 3.06  14 3.06

  19  0.234  0.500  0.167-  51 1.61  41 1.61  33 1.62  59 1.62  73 2.52   1 3.06   3 3.06  15 3.06
                             9 3.06
  20  0.234  0.500  0.667-  52 1.61  42 1.61  34 1.62  60 1.62   2 3.06   4 3.06  10 3.06  16 3.06

  21  0.734  0.000  0.167-  53 1.61  47 1.61  39 1.62  61 1.62   7 3.06   5 3.06   9 3.06  15 3.06

  22  0.734  0.000  0.667-  54 1.61  48 1.61  40 1.62  62 1.62   8 3.06   6 3.06  10 3.06  16 3.06

  23  0.734  0.500  0.167-  55 1.61  45 1.61  37 1.62  63 1.62   5 3.06   7 3.06  11 3.06  13 3.06

  24  0.734  0.500  0.667-  56 1.61  46 1.61  38 1.62  64 1.62   6 3.06   8 3.06  12 3.06  14 3.06

  25  0.135  0.207  0.392-   9 1.61   2 1.62
  26  0.135  0.207  0.892-  10 1.61   1 1.62
  27  0.135  0.707  0.392-  11 1.61   4 1.62
  28  0.135  0.707  0.892-  12 1.61   3 1.62
  29  0.635  0.207  0.392-  13 1.61   6 1.62
  30  0.635  0.207  0.892-  14 1.61   5 1.62
  31  0.635  0.707  0.392-  15 1.61   8 1.62
  32  0.635  0.707  0.892-  16 1.61   7 1.62
  33  0.293  0.428  0.059-   1 1.61  19 1.62
  34  0.293  0.428  0.559-   2 1.61  20 1.62
  35  0.293  0.928  0.059-   3 1.61  17 1.62
  36  0.293  0.928  0.559-   4 1.61  18 1.62
  37  0.793  0.428  0.059-   5 1.61  23 1.62
  38  0.793  0.428  0.559-   6 1.61  24 1.62
  39  0.793  0.928  0.059-   7 1.61  21 1.62
  40  0.793  0.928  0.559-   8 1.61  22 1.62
  41  0.072  0.365  0.226-  19 1.61   9 1.62
  42  0.072  0.365  0.726-  20 1.61  10 1.62
  43  0.072  0.865  0.226-  17 1.61  11 1.62
  44  0.072  0.865  0.726-  18 1.61  12 1.62
  45  0.572  0.365  0.226-  23 1.61  13 1.62
  46  0.572  0.365  0.726-  24 1.61  14 1.62
  47  0.572  0.865  0.226-  21 1.61  15 1.62
  48  0.572  0.865  0.726-  22 1.61  16 1.62
  49  0.207  0.135  0.108-  17 1.61   1 1.62
  50  0.207  0.135  0.608-  18 1.61   2 1.62
  51  0.207  0.635  0.108-  19 1.61   3 1.62
  52  0.207  0.635  0.608-  20 1.61   4 1.62
  53  0.707  0.135  0.108-  21 1.61   5 1.62
  54  0.707  0.135  0.608-  22 1.61   6 1.62
  55  0.707  0.635  0.108-  23 1.61   7 1.62
  56  0.707  0.635  0.608-  24 1.61   8 1.62
  57  0.365  0.072  0.274-  13 1.61  17 1.62
  58  0.365  0.072  0.774-  14 1.61  18 1.62
  59  0.365  0.572  0.274-  15 1.61  19 1.62
  60  0.365  0.572  0.774-  16 1.61  20 1.62
  61  0.865  0.072  0.274-   9 1.61  21 1.62
  62  0.865  0.072  0.774-  10 1.61  22 1.62
  63  0.865  0.572  0.274-  11 1.61  23 1.62
  64  0.865  0.572  0.774-  12 1.61  24 1.62
  65  0.428  0.293  0.441-   2 1.61  13 1.62
  66  0.428  0.293  0.941-   1 1.61  14 1.62
  67  0.428  0.793  0.441-   4 1.61  15 1.62
  68  0.428  0.793  0.941-   3 1.61  16 1.62
  69  0.928  0.293  0.441-   6 1.61   9 1.62
  70  0.928  0.293  0.941-   5 1.61  10 1.62
  71  0.928  0.793  0.441-   8 1.61  11 1.62
  72  0.928  0.793  0.941-   7 1.61  12 1.62
  73  0.500  0.697  0.083-  19 2.52   7 2.52
 
  LATTYP: Found a hexagonal cell.
 ALAT       =     9.8299323535
 C/A-ratio  =     1.1050536148
  
  Lattice vectors:
  
 A1 = (   4.9149661767,  -8.5129711356,   0.0000000000)
 A2 = (   4.9149661767,   8.5129711356,   0.0000000000)
 A3 = (   0.0000000000,   0.0000000000,  10.8626022800)


Analysis of symmetry for initial positions (statically):
=====================================================================
 Subroutine PRICEL returns:
 Original cell was already a primitive cell.
 

 Routine SETGRP: Setting up the symmetry group for a 
 hexagonal supercell.


 Subroutine GETGRP returns: Found  2 space group operations
 (whereof  1 operations were pure point group operations)
 out of a pool of 24 trial point group operations.


The static configuration has the point symmetry C_1 .
 The point group associated with its full space group is C_2 .


Analysis of symmetry for dynamics (positions and initial velocities):
=====================================================================
 Subroutine PRICEL returns:
 Original cell was already a primitive cell.
 

 Routine SETGRP: Setting up the symmetry group for a 
 hexagonal supercell.


 Subroutine GETGRP returns: Found  2 space group operations
 (whereof  1 operations were pure point group operations)
 out of a pool of 24 trial point group operations.


The dynamic configuration has the point symmetry C_1 .
 The point group associated with its full space group is C_2 .


 Subroutine INISYM returns: Found  2 space group operations
 (whereof  1 operations are pure point group operations),
 and found     1 'primitive' translations


----------------------------------------------------------------------------------------

                                     Primitive cell                                     

  volume of cell :     909.0035

  direct lattice vectors                    reciprocal lattice vectors
     4.914966177 -8.512971136  0.000000000     0.101730100 -0.058733901  0.000000000
     4.914966177  8.512971136  0.000000000     0.101730100  0.058733901  0.000000000
     0.000000000  0.000000000 10.862602280     0.000000000  0.000000000  0.092058972

  length of vectors
     9.829932353  9.829932353 10.862602280     0.117467801  0.117467801  0.092058972

  position of ions in fractional coordinates (direct lattice)
     0.265544295  0.265544295  0.000000000
     0.265544295  0.265544295  0.500000000
     0.265544295  0.765544295  0.000000000
     0.265544295  0.765544295  0.500000000
     0.765544295  0.265544295  0.000000000
     0.765544295  0.265544295  0.500000000
     0.765544295  0.765544295  0.000000000
     0.765544295  0.765544295  0.500000000
     1.000000000  0.234455705  0.333333333
     1.000000000  0.234455705  0.833333333
     1.000000000  0.734455705  0.333333333
     1.000000000  0.734455705  0.833333333
     0.500000000  0.234455705  0.333333333
     0.500000000  0.234455705  0.833333333
     0.500000000  0.734455705  0.333333333
     0.500000000  0.734455705  0.833333333
     0.234455705  1.000000000  0.166666667
     0.234455705  1.000000000  0.666666667
     0.234455705  0.500000000  0.166666667
     0.234455705  0.500000000  0.666666667
     0.734455705  1.000000000  0.166666667
     0.734455705  1.000000000  0.666666667
     0.734455705  0.500000000  0.166666667
     0.734455705  0.500000000  0.666666667
     0.134611555  0.206697145  0.392445490
     0.134611555  0.206697145  0.892445490
     0.134611555  0.706697145  0.392445490
     0.134611555  0.706697145  0.892445490
     0.634611555  0.206697145  0.392445490
     0.634611555  0.206697145  0.892445490
     0.634611555  0.706697145  0.392445490
     0.634611555  0.706697145  0.892445490
     0.293302855  0.427914410  0.059112157
     0.293302855  0.427914410  0.559112157
     0.293302855  0.927914410  0.059112157
     0.293302855  0.927914410  0.559112157
     0.793302855  0.427914410  0.059112157
     0.793302855  0.427914410  0.559112157
     0.793302855  0.927914410  0.059112157
     0.793302855  0.927914410  0.559112157
     0.072085590  0.365388445  0.225778823
     0.072085590  0.365388445  0.725778823
     0.072085590  0.865388445  0.225778823
     0.072085590  0.865388445  0.725778823
     0.572085590  0.365388445  0.225778823
     0.572085590  0.365388445  0.725778823
     0.572085590  0.865388445  0.225778823
     0.572085590  0.865388445  0.725778823
     0.206697145  0.134611555  0.107554510
     0.206697145  0.134611555  0.607554510
     0.206697145  0.634611555  0.107554510
     0.206697145  0.634611555  0.607554510
     0.706697145  0.134611555  0.107554510
     0.706697145  0.134611555  0.607554510
     0.706697145  0.634611555  0.107554510
     0.706697145  0.634611555  0.607554510
     0.365388445  0.072085590  0.274221177
     0.365388445  0.072085590  0.774221177
     0.365388445  0.572085590  0.274221177
     0.365388445  0.572085590  0.774221177
     0.865388445  0.072085590  0.274221177
     0.865388445  0.072085590  0.774221177
     0.865388445  0.572085590  0.274221177
     0.865388445  0.572085590  0.774221177
     0.427914410  0.293302855  0.440887843
     0.427914410  0.293302855  0.940887843
     0.427914410  0.793302855  0.440887843
     0.427914410  0.793302855  0.940887843
     0.927914410  0.293302855  0.440887843
     0.927914410  0.293302855  0.940887843
     0.927914410  0.793302855  0.440887843
     0.927914410  0.793302855  0.940887843
     0.500000000  0.696834352  0.083333333

  ion indices of the primitive-cell ions
   primitive index   ion index
                 1           1
                 2           2
                 3           3
                 4           4
                 5           5
                 6           6
                 7           7
                 8           8
                 9           9
                10          10
                11          11
                12          12
                13          13
                14          14
                15          15
                16          16
                17          17
                18          18
                19          19
                20          20
                21          21
                22          22
                23          23
                24          24
                25          25
                26          26
                27          27
                28          28
                29          29
                30          30
                31          31
                32          32
                33          33
                34          34
                35          35
                36          36
                37          37
                38          38
                39          39
                40          40
                41          41
                42          42
                43          43
                44          44
                45          45
                46          46
                47          47
                48          48
                49          49
                50          50
                51          51
                52          52
                53          53
                54          54
                55          55
                56          56
                57          57
                58          58
                59          59
                60          60
                61          61
                62          62
                63          63
                64          64
                65          65
                66          66
                67          67
                68          68
                69          69
                70          70
                71          71
                72          72
                73          73

----------------------------------------------------------------------------------------

 
 
 KPOINTS: pymatgen with grid density = 1000 / numb

Automatic generation of k-mesh.
 Grid dimensions read from file:
 generate k-points for:    2    2    2

 Generating k-lattice:

  Cartesian coordinates                     Fractional coordinates (reciprocal lattice)
     0.050865050 -0.029366950  0.000000000     0.500000000 -0.000000000  0.000000000
     0.050865050  0.029366950  0.000000000    -0.000000000  0.500000000  0.000000000
     0.000000000  0.000000000  0.046029486     0.000000000  0.000000000  0.500000000

  Length of vectors
     0.058733901  0.058733901  0.046029486

  Shift w.r.t. Gamma in fractional coordinates (k-lattice)
     0.000000000  0.000000000  0.000000000

 
 Subroutine IBZKPT returns following result:
 ===========================================
 
 Found      6 irreducible k-points:
 
 Following reciprocal coordinates:
            Coordinates               Weight
  0.000000  0.000000  0.000000      1.000000
  0.500000  0.000000  0.000000      1.000000
  0.000000  0.500000  0.000000      2.000000
  0.000000  0.000000  0.500000      1.000000
  0.500000  0.000000  0.500000      1.000000
  0.000000  0.500000  0.500000      2.000000
 
 Following cartesian coordinates:
            Coordinates               Weight
  0.000000  0.000000  0.000000      1.000000
  0.050865 -0.029367  0.000000      1.000000
  0.050865  0.029367  0.000000      2.000000
  0.000000  0.000000  0.046029      1.000000
  0.050865 -0.029367  0.046029      1.000000
  0.050865  0.029367  0.046029      2.000000
 


--------------------------------------------------------------------------------------------------------




 Dimension of arrays:
   k-points           NKPTS =      6   k-points in BZ     NKDIM =      6   number of bands    NBANDS=    256
   number of dos      NEDOS =    301   number of ions     NIONS =     73
   non local maximal  LDIM  =      4   non local SUM 2l+1 LMDIM =      8
   total plane-waves  NPLWV = 200704
   max r-space proj   IRMAX =      1   max aug-charges    IRDMAX=   7581
   dimension x,y,z NGX =    56 NGY =   56 NGZ =   64
   dimension x,y,z NGXF=   112 NGYF=  112 NGZF=  128
   support grid    NGXF=   112 NGYF=  112 NGZF=  128
   ions per type =              24  49
   NGX,Y,Z   is equivalent  to a cutoff of   9.47,  9.47,  9.79 a.u.
   NGXF,Y,Z  is equivalent  to a cutoff of  18.94, 18.94, 19.59 a.u.

 SYSTEM =  SiO2                                    
 POSCAR =  Si24 O49                                

 Startparameter for this run:
   NWRITE =      2    write-flag & timer
   PREC   = normal    normal or accurate (medium, high low for compatibility)
   ISTART =      0    job   : 0-new  1-cont  2-samecut
   ICHARG =      2    charge: 1-file 2-atom 10-const
   ISPIN  =      1    spin polarized calculation?
   LNONCOLLINEAR =      F non collinear calculations
   LSORBIT =      F    spin-orbit coupling
   INIWAV =      1    electr: 0-lowe 1-rand  2-diag
   LASPH  =      F    aspherical Exc in radial PAW
 Electronic Relaxation 1
   ENCUT  =  550.0 eV  40.42 Ry    6.36 a.u.  18.80 18.80 20.77*2*pi/ulx,y,z
   ENINI  =  550.0     initial cutoff
   ENAUG  =  605.4 eV  augmentation charge cutoff
   NELM   =    200;   NELMIN=  2; NELMDL= -5     # of ELM steps 
   EDIFF  = 0.1E-05   stopping-criterion for ELM
   LREAL  =      F    real-space projection
   NLSPLINE    = F    spline interpolate recip. space projectors
   LCOMPAT=      F    compatible to vasp.4.4
   GGA_COMPAT  = T    GGA compatible to vasp.4.4-vasp.4.6
   LMAXPAW     = -100 max onsite density
   LMAXMIX     =    2 max onsite mixed and CHGCAR
   VOSKOWN=      0    Vosko Wilk Nusair interpolation
   ROPT   =    0.00000   0.00000
 Ionic relaxation
   EDIFFG = -.5E-01   stopping-criterion for IOM
   NSW    =      0    number of steps for IOM
   NBLOCK =      1;   KBLOCK =      1    inner block; outer block 
   IBRION =     -1    ionic relax: 0-MD 1-quasi-New 2-CG
   NFREE  =      1    steps in history (QN), initial steepest desc. (CG)
   ISIF   =      2    stress and relaxation
   IWAVPR =     10    prediction:  0-non 1-charg 2-wave 3-comb
   ISYM   =      2    0-nonsym 1-usesym 2-fastsym
   LCORR  =      T    Harris-Foulkes like correction to forces

   POTIM  = 0.5000    time-step for ionic-motion
   TEIN   =    0.0    initial temperature
   TEBEG  =    0.0;   TEEND  =   0.0 temperature during run
   SMASS  =  -3.00    Nose mass-parameter (am)
   estimated Nose-frequenzy (Omega)   =  0.10E-29 period in steps = 0.13E+47 mass=  -0.221E-26a.u.
   SCALEE = 1.0000    scale energy and forces
   NPACO  =    256;   APACO  = 10.0  distance and # of slots for P.C.
   PSTRESS=    0.0 pullay stress

  Mass of Ions in am
   POMASS =  28.09 16.00
  Ionic Valenz
   ZVAL   =   4.00  6.00
  Atomic Wigner-Seitz radii
   RWIGS  =  -1.00 -1.00
  virtual crystal weights 
   VCA    =   1.00  1.00
   NELECT =     392.0000    total number of electrons
   NUPDOWN=      -1.0000    fix difference up-down

 DOS related values:
   EMIN   =  10.00;   EMAX   =-10.00  energy-range for DOS
   EFERMI =   0.00
   ISMEAR =     0;   SIGMA  =   0.05  broadening in eV -4-tet -1-fermi 0-gaus

 Electronic relaxation 2 (details)
   IALGO  =     38    algorithm
   LDIAG  =      T    sub-space diagonalisation (order eigenvalues)
   LSUBROT=      F    optimize rotation matrix (better conditioning)
   TURBO    =      0    0=normal 1=particle mesh
   IRESTART =      0    0=no restart 2=restart with 2 vectors
   NREBOOT  =      0    no. of reboots
   NMIN     =      0    reboot dimension
   EREF     =   0.00    reference energy to select bands
   IMIX   =      4    mixing-type and parameters
     AMIX     =   0.20;   BMIX     =  1.00
     AMIX_MAG =   0.80;   BMIX_MAG =  1.00
     AMIN     =   0.10
     WC   =   100.;   INIMIX=   1;  MIXPRE=   1;  MAXMIX= -45

 Intra band minimization:
   WEIMIN = 0.0000     energy-eigenvalue tresh-hold
   EBREAK =  0.98E-09  absolut break condition
   DEPER  =   0.30     relativ break condition  

   TIME   =   0.40     timestep for ELM

  volume/ion in A,a.u.               =      12.45        84.03
  Fermi-wavevector in a.u.,A,eV,Ry     =   1.236844  2.337297 20.813969  1.529784
  Thomas-Fermi vector in A             =   2.371436
 
 Write flags
   LWAVE        =      F    write WAVECAR
   LDOWNSAMPLE  =      F    k-point downsampling of WAVECAR
   LCHARG       =      F    write CHGCAR
   LVTOT        =      T    write LOCPOT, total local potential
   LVHAR        =      F    write LOCPOT, Hartree potential only
   LELF         =      F    write electronic localiz. function (ELF)
   LORBIT       =     11    0 simple, 1 ext, 2 COOP (PROOUT), +10 PAW based schemes


 Dipole corrections
   LMONO  =      F    monopole corrections only (constant potential shift)
   LDIPOL =      F    correct potential (dipole corrections)
   IDIPOL =      0    1-x, 2-y, 3-z, 4-all directions 
   EPSILON=  1.0000000 bulk dielectric constant

 Exchange correlation treatment:
   GGA     =    --    GGA type
   LEXCH   =     8    internal setting for exchange type
   LIBXC   =     F    Libxc                    
   VOSKOWN =     0    Vosko Wilk Nusair interpolation
   LHFCALC =     F    Hartree Fock is set to
   LHFONE  =     F    Hartree Fock one center treatment
   AEXX    =    0.0000 exact exchange contribution

 Linear response parameters
   LEPSILON=     F    determine dielectric tensor
   LRPA    =     F    only Hartree local field effects (RPA)
   LNABLA  =     F    use nabla operator in PAW spheres
   LVEL    =     F    velocity operator in full k-point grid
   CSHIFT  =0.1000    complex shift for real part using Kramers Kronig
   OMEGAMAX=  -1.0    maximum frequency
   DEG_THRESHOLD= 0.2000000E-02 threshold for treating states as degnerate
   RTIME   =   -0.100 relaxation time in fs
  (WPLASMAI=    0.000 imaginary part of plasma frequency in eV, 0.658/RTIME)
   DFIELD  = 0.0000000 0.0000000 0.0000000 field for delta impulse in time
 
  Optional k-point grid parameters
   LKPOINTS_OPT  =     F    use optional k-point grid
   KPOINTS_OPT_MODE=     1    mode for optional k-point grid
 
 Orbital magnetization related:
   ORBITALMAG=     F  switch on orbital magnetization
   LCHIMAG   =     F  perturbation theory with respect to B field
   DQ        =  0.001000  dq finite difference perturbation B field
   LLRAUG    =     F  two centre corrections for induced B field



--------------------------------------------------------------------------------------------------------


 Static calculation
 charge density and potential will be updated during run
 non-spin polarized calculation
 Variant of blocked Davidson
 Davidson routine will perform the subspace rotation
 perform sub-space diagonalisation
    after iterative eigenvector-optimisation
 modified Broyden-mixing scheme, WC =      100.0
 initial mixing is a Kerker type mixing with AMIX =  0.2000 and BMIX =      1.0000
 Hartree-type preconditioning will be used
 using additional bands           60
 reciprocal scheme for non local part
 use partial core corrections
 calculate Harris-corrections to forces 
   (improved forces if not selfconsistent)
 use gradient corrections 
 use of overlap-Matrix (Vanderbilt PP)
 Gauss-broadening in eV      SIGMA  =   0.05


--------------------------------------------------------------------------------------------------------


  energy-cutoff  :      550.00
  volume of cell :      909.00
      direct lattice vectors                 reciprocal lattice vectors
     4.914966177 -8.512971136  0.000000000     0.101730100 -0.058733901  0.000000000
     4.914966177  8.512971136  0.000000000     0.101730100  0.058733901  0.000000000
     0.000000000  0.000000000 10.862602280     0.000000000  0.000000000  0.092058972

  length of vectors
     9.829932353  9.829932353 10.862602280     0.117467801  0.117467801  0.092058972


 
 k-points in units of 2pi/SCALE and weight: pymatgen with grid density = 1000 / numb
   0.00000000  0.00000000  0.00000000       0.125
   0.05086505 -0.02936695  0.00000000       0.125
   0.05086505  0.02936695  0.00000000       0.250
   0.00000000  0.00000000  0.04602949       0.125
   0.05086505 -0.02936695  0.04602949       0.125
   0.05086505  0.02936695  0.04602949       0.250
 
 k-points in reciprocal lattice and weights: pymatgen with grid density = 1000 / numb
   0.00000000  0.00000000  0.00000000       0.125
   0.50000000  0.00000000  0.00000000       0.125
   0.00000000  0.50000000  0.00000000       0.250
   0.00000000  0.00000000  0.50000000       0.125
   0.50000000  0.00000000  0.50000000       0.125
   0.00000000  0.50000000  0.50000000       0.250
 
 position of ions in fractional coordinates (direct lattice) 
   0.26554429  0.26554429  0.00000000
   0.26554429  0.26554429  0.50000000
   0.26554429  0.76554429  0.00000000
   0.26554429  0.76554429  0.50000000
   0.76554429  0.26554429  0.00000000
   0.76554429  0.26554429  0.50000000
   0.76554429  0.76554429  0.00000000
   0.76554429  0.76554429  0.50000000
   0.00000000  0.23445571  0.33333333
   0.00000000  0.23445571  0.83333333
   0.00000000  0.73445571  0.33333333
   0.00000000  0.73445571  0.83333333
   0.50000000  0.23445571  0.33333333
   0.50000000  0.23445571  0.83333333
   0.50000000  0.73445571  0.33333333
   0.50000000  0.73445571  0.83333333
   0.23445571  0.00000000  0.16666667
   0.23445571  0.00000000  0.66666667
   0.23445571  0.50000000  0.16666667
   0.23445571  0.50000000  0.66666667
   0.73445571  0.00000000  0.16666667
   0.73445571  0.00000000  0.66666667
   0.73445571  0.50000000  0.16666667
   0.73445571  0.50000000  0.66666667
   0.13461155  0.20669714  0.39244549
   0.13461155  0.20669714  0.89244549
   0.13461155  0.70669714  0.39244549
   0.13461155  0.70669714  0.89244549
   0.63461155  0.20669714  0.39244549
   0.63461155  0.20669714  0.89244549
   0.63461155  0.70669714  0.39244549
   0.63461155  0.70669714  0.89244549
   0.29330286  0.42791441  0.05911216
   0.29330286  0.42791441  0.55911216
   0.29330286  0.92791441  0.05911216
   0.29330286  0.92791441  0.55911216
   0.79330286  0.42791441  0.05911216
   0.79330286  0.42791441  0.55911216
   0.79330286  0.92791441  0.05911216
   0.79330286  0.92791441  0.55911216
   0.07208559  0.36538845  0.22577882
   0.07208559  0.36538845  0.72577882
   0.07208559  0.86538845  0.22577882
   0.07208559  0.86538845  0.72577882
   0.57208559  0.36538845  0.22577882
   0.57208559  0.36538845  0.72577882
   0.57208559  0.86538845  0.22577882
   0.57208559  0.86538845  0.72577882
   0.20669714  0.13461155  0.10755451
   0.20669714  0.13461155  0.60755451
   0.20669714  0.63461155  0.10755451
   0.20669714  0.63461155  0.60755451
   0.70669714  0.13461155  0.10755451
   0.70669714  0.13461155  0.60755451
   0.70669714  0.63461155  0.10755451
   0.70669714  0.63461155  0.60755451
   0.36538845  0.07208559  0.27422118
   0.36538845  0.07208559  0.77422118
   0.36538845  0.57208559  0.27422118
   0.36538845  0.57208559  0.77422118
   0.86538845  0.07208559  0.27422118
   0.86538845  0.07208559  0.77422118
   0.86538845  0.57208559  0.27422118
   0.86538845  0.57208559  0.77422118
   0.42791441  0.29330286  0.44088784
   0.42791441  0.29330286  0.94088784
   0.42791441  0.79330286  0.44088784
   0.42791441  0.79330286  0.94088784
   0.92791441  0.29330286  0.44088784
   0.92791441  0.29330286  0.94088784
   0.92791441  0.79330286  0.44088784
   0.92791441  0.79330286  0.94088784
   0.50000000  0.69683435  0.08333333
 
 position of ions in cartesian coordinates  (Angst):
   2.61028246 -0.00000000  0.00000000
   2.61028246 -0.00000000  5.43130114
   5.06776555  4.25648557  0.00000000
   5.06776555  4.25648557  5.43130114
   5.06776555 -4.25648557  0.00000000
   5.06776555 -4.25648557  5.43130114
   7.52524863  0.00000000  0.00000000
   7.52524863  0.00000000  5.43130114
   1.15234186  1.99591465  3.62086743
   1.15234186  1.99591465  9.05216857
   3.60982495  6.25240022  3.62086743
   3.60982495  6.25240022  9.05216857
   3.60982495 -2.26057092  3.62086743
   3.60982495 -2.26057092  9.05216857
   6.06730804  1.99591465  3.62086743
   6.06730804  1.99591465  9.05216857
   1.15234186 -1.99591465  1.81043371
   1.15234186 -1.99591465  7.24173485
   3.60982495  2.26057092  1.81043371
   3.60982495  2.26057092  7.24173485
   3.60982495 -6.25240022  1.81043371
   3.60982495 -6.25240022  7.24173485
   6.06730804 -1.99591465  1.81043371
   6.06730804 -1.99591465  7.24173485
   1.67752072  0.61366255  4.26297927
   1.67752072  0.61366255  9.69428041
   4.13500380  4.87014811  4.26297927
   4.13500380  4.87014811  9.69428041
   4.13500380 -3.64282302  4.26297927
   4.13500380 -3.64282302  9.69428041
   6.59248689  0.61366255  4.26297927
   6.59248689  0.61366255  9.69428041
   3.54475846  1.14594428  0.64211185
   3.54475846  1.14594428  6.07341299
   6.00224155  5.40242985  0.64211185
   6.00224155  5.40242985  6.07341299
   6.00224155 -3.11054129  0.64211185
   6.00224155 -3.11054129  6.07341299
   8.45972464  1.14594428  0.64211185
   8.45972464  1.14594428  6.07341299
   2.15017009  2.49687874  2.45254556
   2.15017009  2.49687874  7.88384670
   4.60765317  6.75336431  2.45254556
   4.60765317  6.75336431  7.88384670
   4.60765317 -1.75960683  2.45254556
   4.60765317 -1.75960683  7.88384670
   7.06513626  2.49687874  2.45254556
   7.06513626  2.49687874  7.88384670
   1.67752072 -0.61366255  1.16832187
   1.67752072 -0.61366255  6.59962301
   4.13500380  3.64282302  1.16832187
   4.13500380  3.64282302  6.59962301
   4.13500380 -4.87014811  1.16832187
   4.13500380 -4.87014811  6.59962301
   6.59248689 -0.61366255  1.16832187
   6.59248689 -0.61366255  6.59962301
   2.15017009 -2.49687874  2.97875558
   2.15017009 -2.49687874  8.41005672
   4.60765317  1.75960683  2.97875558
   4.60765317  1.75960683  8.41005672
   4.60765317 -6.75336431  2.97875558
   4.60765317 -6.75336431  8.41005672
   7.06513626 -2.49687874  2.97875558
   7.06513626 -2.49687874  8.41005672
   3.54475846 -1.14594428  4.78918929
   3.54475846 -1.14594428 10.22049043
   6.00224155  3.11054129  4.78918929
   6.00224155  3.11054129 10.22049043
   6.00224155 -5.40242985  4.78918929
   6.00224155 -5.40242985 10.22049043
   8.45972464 -1.14594428  4.78918929
   8.45972464 -1.14594428 10.22049043
   5.88240036  1.67564515  0.90521686
 


--------------------------------------------------------------------------------------------------------


 k-point   1 :   0.0000 0.0000 0.0000  plane waves:   26579
 k-point   2 :   0.5000 0.0000 0.0000  plane waves:   26614
 k-point   3 :   0.0000 0.5000 0.0000  plane waves:   26614
 k-point   4 :   0.0000 0.0000 0.5000  plane waves:   26718
 k-point   5 :   0.5000 0.0000 0.5000  plane waves:   26636
 k-point   6 :   0.0000 0.5000 0.5000  plane waves:   26636

 maximum and minimum number of plane-waves per node :     26718    26579

 maximum number of plane-waves:     26718
 maximum index in each direction: 
   IXMAX=   18   IYMAX=   18   IZMAX=   20
   IXMIN=  -19   IYMIN=  -19   IZMIN=  -21


 serial   3D FFT for wavefunctions
 parallel 3D FFT for charge:
    minimum data exchange during FFTs selected (reduces bandwidth)


 total amount of memory used by VASP MPI-rank0   104021. kBytes
=======================================================================

   base      :      30000. kBytes
   nonl-proj :      51791. kBytes
   fftplans  :       1787. kBytes
   grid      :       9701. kBytes
   one-center:        224. kBytes
   wavefun   :      10518. kBytes
 
     INWAV:  cpu time      0.0000: real time      0.0001
 Broyden mixing: mesh for mixing (old mesh)
   NGX = 37   NGY = 37   NGZ = 41
  (NGX  =112   NGY  =112   NGZ  =128)
  gives a total of  56129 points

 initial charge density was supplied:
 charge density of overlapping atoms calculated
 number of electron     390.0000000 magnetization 
 keeping initial charge density in first step


--------------------------------------------------------------------------------------------------------


 Maximum index for augmentation-charges          412 (set IRDMAX)


--------------------------------------------------------------------------------------------------------


 First call to EWALD:  gamma=   0.183
 Maximum number of real-space cells 3x 3x 3
 Maximum number of reciprocal cells 3x 3x 3

    FEWALD:  cpu time      0.0015: real time      0.0015


--------------------------------------- Iteration      1(   1)  ---------------------------------------


    POTLOK:  cpu time      0.0182: real time      0.0188
    SETDIJ:  cpu time      0.0024: real time      0.0024
     EDDAV:  cpu time      3.1355: real time      3.1495
       DOS:  cpu time      0.0018: real time      0.0019
    --------------------------------------------
      LOOP:  cpu time      3.1579: real time      3.1726

 eigenvalue-minimisations  :  3072
 total energy-change (2. order) : 0.2400811E+04  (-0.2166090E+05)
 number of electron     390.0000000 magnetization 
 augmentation part      390.0000000 magnetization 

 Free energy of the ion-electron system (eV)
  ---------------------------------------------------
  alpha Z        PSCENC =       573.53096271
  Ewald energy   TEWEN  =    -15452.55664149
  -Hartree energ DENC   =     -7630.33392633
  -exchange      EXHF   =         0.00000000
  -V(xc)+E(xc)   XCENC  =      1159.88207255
  PAW double counting   =     19095.89555838   -18761.79165722
  entropy T*S    EENTRO =        -0.01297283
  eigenvalues    EBANDS =      -243.00908397
  atomic energy  EATOM  =     23659.20686107
  Solvation  Ediel_sol  =         0.00000000
  ---------------------------------------------------
  free energy    TOTEN  =      2400.81117288 eV

  energy without entropy =     2400.82414571  energy(sigma->0) =     2400.81765929


--------------------------------------------------------------------------------------------------------




--------------------------------------- Iteration      1(   2)  ---------------------------------------


     EDDAV:  cpu time      3.9396: real time      3.9528
       DOS:  cpu time      0.0008: real time      0.0008
    --------------------------------------------
      LOOP:  cpu time      3.9404: real time      3.9536

 eigenvalue-minimisations  :  4032
 total energy-change (2. order) :-0.2893358E+04  (-0.2834338E+04)
 number of electron     390.0000000 magnetization 
 augmentation part      390.0000000 magnetization 

 Free energy of the ion-electron system (eV)
  ---------------------------------------------------
  alpha Z        PSCENC =       573.53096271
  Ewald energy   TEWEN  =    -15452.55664149
  -Hartree energ DENC   =     -7630.33392633
  -exchange      EXHF   =         0.00000000
  -V(xc)+E(xc)   XCENC  =      1159.88207255
  PAW double counting   =     19095.89555838   -18761.79165722
  entropy T*S    EENTRO =        -0.00000000
  eigenvalues    EBANDS =     -3136.37987827
  atomic energy  EATOM  =     23659.20686107
  Solvation  Ediel_sol  =         0.00000000
  ---------------------------------------------------
  free energy    TOTEN  =      -492.54664859 eV

  energy without entropy =     -492.54664859  energy(sigma->0) =     -492.54664859


--------------------------------------------------------------------------------------------------------




--------------------------------------- Iteration      1(   3)  ---------------------------------------


     EDDAV:  cpu time      3.7899: real time      3.8021
       DOS:  cpu time      0.0008: real time      0.0008
    --------------------------------------------
      LOOP:  cpu time      3.7907: real time      3.8029

 eigenvalue-minimisations  :  3840
 total energy-change (2. order) :-0.1469793E+03  (-0.1465413E+03)
 number of electron     390.0000000 magnetization 
 augmentation part      390.0000000 magnetization 

 Free energy of the ion-electron system (eV)
  ---------------------------------------------------
  alpha Z        PSCENC =       573.53096271
  Ewald energy   TEWEN  =    -15452.55664149
  -Hartree energ DENC   =     -7630.33392633
  -exchange      EXHF   =         0.00000000
  -V(xc)+E(xc)   XCENC  =      1159.88207255
  PAW double counting   =     19095.89555838   -18761.79165722
  entropy T*S    EENTRO =        -0.00000000
  eigenvalues    EBANDS =     -3283.35920781
  atomic energy  EATOM  =     23659.20686107
  Solvation  Ediel_sol  =         0.00000000
  ---------------------------------------------------
  free energy    TOTEN  =      -639.52597813 eV

  energy without entropy =     -639.52597813  energy(sigma->0) =     -639.52597813


--------------------------------------------------------------------------------------------------------




--------------------------------------- Iteration      1(   4)  ---------------------------------------


     EDDAV:  cpu time      3.7935: real time      3.8060
       DOS:  cpu time      0.0012: real time      0.0012
    --------------------------------------------
      LOOP:  cpu time      3.7947: real time      3.8071

 eigenvalue-minimisations  :  3840
 total energy-change (2. order) :-0.1592240E+01  (-0.1590470E+01)
 number of electron     390.0000000 magnetization 
 augmentation part      390.0000000 magnetization 

 Free energy of the ion-electron system (eV)
  ---------------------------------------------------
  alpha Z        PSCENC =       573.53096271
  Ewald energy   TEWEN  =    -15452.55664149
  -Hartree energ DENC   =     -7630.33392633
  -exchange      EXHF   =         0.00000000
  -V(xc)+E(xc)   XCENC  =      1159.88207255
  PAW double counting   =     19095.89555838   -18761.79165722
  entropy T*S    EENTRO =        -0.00000000
  eigenvalues    EBANDS =     -3284.95144829
  atomic energy  EATOM  =     23659.20686107
  Solvation  Ediel_sol  =         0.00000000
  ---------------------------------------------------
  free energy    TOTEN  =      -641.11821861 eV

  energy without entropy =     -641.11821861  energy(sigma->0) =     -641.11821861


--------------------------------------------------------------------------------------------------------




--------------------------------------- Iteration      1(   5)  ---------------------------------------


     EDDAV:  cpu time      3.6042: real time      3.6168
       DOS:  cpu time      0.0008: real time      0.0008
    CHARGE:  cpu time      0.0472: real time      0.0480
    MIXING:  cpu time      0.0014: real time      0.0018
    --------------------------------------------
      LOOP:  cpu time      3.6537: real time      3.6674

 eigenvalue-minimisations  :  3648
 total energy-change (2. order) :-0.2551360E-01  (-0.2550966E-01)
 number of electron     392.0000071 magnetization 
 augmentation part       36.6793434 magnetization 

 Broyden mixing:
  rms(total) = 0.73157E+01    rms(broyden)= 0.73146E+01
  rms(prec ) = 0.85147E+01
  weight for this iteration     100.00

 Free energy of the ion-electron system (eV)
  ---------------------------------------------------
  alpha Z        PSCENC =       573.53096271
  Ewald energy   TEWEN  =    -15452.55664149
  -Hartree energ DENC   =     -7630.33392633
  -exchange      EXHF   =         0.00000000
  -V(xc)+E(xc)   XCENC  =      1159.88207255
  PAW double counting   =     19095.89555838   -18761.79165722
  entropy T*S    EENTRO =        -0.00000000
  eigenvalues    EBANDS =     -3284.97696189
  atomic energy  EATOM  =     23659.20686107
  Solvation  Ediel_sol  =         0.00000000
  ---------------------------------------------------
  free energy    TOTEN  =      -641.14373221 eV

  energy without entropy =     -641.14373221  energy(sigma->0) =     -641.14373221


--------------------------------------------------------------------------------------------------------




--------------------------------------- Iteration      1(   6)  ---------------------------------------


    POTLOK:  cpu time      0.0127: real time      0.0128
    SETDIJ:  cpu time      0.0019: real time      0.0019
     EDDAV:  cpu time      3.4727: real time      3.4836
       DOS:  cpu time      0.0005: real time      0.0005
    CHARGE:  cpu time      0.0440: real time      0.0442
    MIXING:  cpu time      0.0008: real time      0.0009
    --------------------------------------------
      LOOP:  cpu time      3.5326: real time      3.5439

 eigenvalue-minimisations  :  3520
 total energy-change (2. order) : 0.6198162E+02  (-0.8633498E+01)
 number of electron     392.0000065 magnetization 
 augmentation part       33.0285428 magnetization 

 Broyden mixing:
  rms(total) = 0.49286E+01    rms(broyden)= 0.49286E+01
  rms(prec ) = 0.55128E+01
  weight for this iteration     100.00

 eigenvalues of (default mixing * dielectric matrix)
  average eigenvalue GAMMA=   2.2801
  2.2801

 Free energy of the ion-electron system (eV)
  ---------------------------------------------------
  alpha Z        PSCENC =       573.53096271
  Ewald energy   TEWEN  =    -15452.55664149
  -Hartree energ DENC   =     -8074.46063998
  -exchange      EXHF   =         0.00000000
  -V(xc)+E(xc)   XCENC  =      1195.53329617
  PAW double counting   =     25194.13757200   -24868.86294857
  entropy T*S    EENTRO =        -0.00000000
  eigenvalues    EBANDS =     -2805.69056972
  atomic energy  EATOM  =     23659.20686107
  Solvation  Ediel_sol  =         0.00000000
  ---------------------------------------------------
  free energy    TOTEN  =      -579.16210781 eV

  energy without entropy =     -579.16210781  energy(sigma->0) =     -579.16210781


--------------------------------------------------------------------------------------------------------




--------------------------------------- Iteration      1(   7)  ---------------------------------------


    POTLOK:  cpu time      0.0121: real time      0.0123
    SETDIJ:  cpu time      0.0018: real time      0.0018
     EDDAV:  cpu time      3.7958: real time      3.8081
       DOS:  cpu time      0.0009: real time      0.0009
    CHARGE:  cpu time      0.0456: real time      0.0458
    MIXING:  cpu time      0.0006: real time      0.0006
    --------------------------------------------
      LOOP:  cpu time      3.8566: real time      3.8695

 eigenvalue-minimisations  :  3840
 total energy-change (2. order) : 0.1796525E+02  (-0.1820306E+02)
 number of electron     392.0000050 magnetization 
 augmentation part       27.7451324 magnetization 

 Broyden mixing:
  rms(total) = 0.31034E+01    rms(broyden)= 0.31023E+01
  rms(prec ) = 0.40831E+01
  weight for this iteration     100.00

 eigenvalues of (default mixing * dielectric matrix)
  average eigenvalue GAMMA=   1.4395
  0.7521  2.1268

 Free energy of the ion-electron system (eV)
  ---------------------------------------------------
  alpha Z        PSCENC =       573.53096271
  Ewald energy   TEWEN  =    -15452.55664149
  -Hartree energ DENC   =     -8648.29159880
  -exchange      EXHF   =         0.00000000
  -V(xc)+E(xc)   XCENC  =      1233.34363842
  PAW double counting   =     42863.53408123   -42548.58109796
  entropy T*S    EENTRO =        -0.00705238
  eigenvalues    EBANDS =     -2241.37600942
  atomic energy  EATOM  =     23659.20686107
  Solvation  Ediel_sol  =         0.00000000
  ---------------------------------------------------
  free energy    TOTEN  =      -561.19685661 eV

  energy without entropy =     -561.18980424  energy(sigma->0) =     -561.19333042


--------------------------------------------------------------------------------------------------------




--------------------------------------- Iteration      1(   8)  ---------------------------------------


    POTLOK:  cpu time      0.0119: real time      0.0122
    SETDIJ:  cpu time      0.0019: real time      0.0019
     EDDAV:  cpu time      3.0758: real time      3.0859
       DOS:  cpu time      0.0008: real time      0.0008
    CHARGE:  cpu time      0.0450: real time      0.0452
    MIXING:  cpu time      0.0006: real time      0.0006
    --------------------------------------------
      LOOP:  cpu time      3.1359: real time      3.1466

 eigenvalue-minimisations  :  3072
 total energy-change (2. order) : 0.4375747E+01  (-0.4031176E+01)
 number of electron     392.0000058 magnetization 
 augmentation part       28.7691838 magnetization 

 Broyden mixing:
  rms(total) = 0.18346E+01    rms(broyden)= 0.18340E+01
  rms(prec ) = 0.19417E+01
  weight for this iteration     100.00

 eigenvalues of (default mixing * dielectric matrix)
  average eigenvalue GAMMA=   1.5887
  2.2497  2.2497  0.2667

 Free energy of the ion-electron system (eV)
  ---------------------------------------------------
  alpha Z        PSCENC =       573.53096271
  Ewald energy   TEWEN  =    -15452.55664149
  -Hartree energ DENC   =     -8620.56687476
  -exchange      EXHF   =         0.00000000
  -V(xc)+E(xc)   XCENC  =      1231.79894546
  PAW double counting   =     43660.94144111   -43345.25724755
  entropy T*S    EENTRO =        -0.01349439
  eigenvalues    EBANDS =     -2263.90506212
  atomic energy  EATOM  =     23659.20686107
  Solvation  Ediel_sol  =         0.00000000
  ---------------------------------------------------
  free energy    TOTEN  =      -556.82110997 eV

  energy without entropy =     -556.80761557  energy(sigma->0) =     -556.81436277


--------------------------------------------------------------------------------------------------------




--------------------------------------- Iteration      1(   9)  ---------------------------------------


    POTLOK:  cpu time      0.0121: real time      0.0123
    SETDIJ:  cpu time      0.0019: real time      0.0019
     EDDAV:  cpu time      3.0647: real time      3.0748
       DOS:  cpu time      0.0007: real time      0.0007
    CHARGE:  cpu time      0.0457: real time      0.0460
    MIXING:  cpu time      0.0006: real time      0.0006
    --------------------------------------------
      LOOP:  cpu time      3.1256: real time      3.1363

 eigenvalue-minimisations  :  3072
 total energy-change (2. order) :-0.1759943E+01  (-0.1117799E+01)
 number of electron     392.0000060 magnetization 
 augmentation part       29.4144667 magnetization 

 Broyden mixing:
  rms(total) = 0.12354E+01    rms(broyden)= 0.12352E+01
  rms(prec ) = 0.15583E+01
  weight for this iteration     100.00

 eigenvalues of (default mixing * dielectric matrix)
  average eigenvalue GAMMA=   1.8543
  4.1494  2.0421  0.9328  0.2929

 Free energy of the ion-electron system (eV)
  ---------------------------------------------------
  alpha Z        PSCENC =       573.53096271
  Ewald energy   TEWEN  =    -15452.55664149
  -Hartree energ DENC   =     -8609.75398487
  -exchange      EXHF   =         0.00000000
  -V(xc)+E(xc)   XCENC  =      1231.34600428
  PAW double counting   =     52388.39665498   -52071.66016573
  entropy T*S    EENTRO =        -0.00000000
  eigenvalues    EBANDS =     -2277.09074438
  atomic energy  EATOM  =     23659.20686107
  Solvation  Ediel_sol  =         0.00000000
  ---------------------------------------------------
  free energy    TOTEN  =      -558.58105342 eV

  energy without entropy =     -558.58105342  energy(sigma->0) =     -558.58105342


--------------------------------------------------------------------------------------------------------




--------------------------------------- Iteration      1(  10)  ---------------------------------------


    POTLOK:  cpu time      0.0121: real time      0.0124
    SETDIJ:  cpu time      0.0018: real time      0.0018
     EDDAV:  cpu time      3.7800: real time      3.7923
       DOS:  cpu time      0.0005: real time      0.0005
    CHARGE:  cpu time      0.0446: real time      0.0449
    MIXING:  cpu time      0.0006: real time      0.0006
    --------------------------------------------
      LOOP:  cpu time      3.8397: real time      3.8525

 eigenvalue-minimisations  :  3840
 total energy-change (2. order) :-0.3893755E+00  (-0.8781685E-01)
 number of electron     392.0000060 magnetization 
 augmentation part       29.2194076 magnetization 

 Broyden mixing:
  rms(total) = 0.90411E+00    rms(broyden)= 0.90410E+00
  rms(prec ) = 0.13028E+01
  weight for this iteration     100.00

 eigenvalues of (default mixing * dielectric matrix)
  average eigenvalue GAMMA=   1.9783
  4.9113  2.0028  1.6377  1.0537  0.2860

 Free energy of the ion-electron system (eV)
  ---------------------------------------------------
  alpha Z        PSCENC =       573.53096271
  Ewald energy   TEWEN  =    -15452.55664149
  -Hartree energ DENC   =     -8679.03011581
  -exchange      EXHF   =         0.00000000
  -V(xc)+E(xc)   XCENC  =      1236.34540671
  PAW double counting   =     62230.29164054   -61914.26634163
  entropy T*S    EENTRO =        -0.00000000
  eigenvalues    EBANDS =     -2212.49220105
  atomic energy  EATOM  =     23659.20686107
  Solvation  Ediel_sol  =         0.00000000
  ---------------------------------------------------
  free energy    TOTEN  =      -558.97042895 eV

  energy without entropy =     -558.97042895  energy(sigma->0) =     -558.97042895


--------------------------------------------------------------------------------------------------------




--------------------------------------- Iteration      1(  11)  ---------------------------------------


    POTLOK:  cpu time      0.0123: real time      0.0126
    SETDIJ:  cpu time      0.0021: real time      0.0021
     EDDAV:  cpu time      3.7284: real time      3.7406
       DOS:  cpu time      0.0006: real time      0.0006
    CHARGE:  cpu time      0.0441: real time      0.0444
    MIXING:  cpu time      0.0006: real time      0.0006
    --------------------------------------------
      LOOP:  cpu time      3.7882: real time      3.8010

 eigenvalue-minimisations  :  3840
 total energy-change (2. order) : 0.1150819E+01  (-0.1485843E+00)
 number of electron     392.0000060 magnetization 
 augmentation part       29.1201634 magnetization 

 Broyden mixing:
  rms(total) = 0.60611E+00    rms(broyden)= 0.60608E+00
  rms(prec ) = 0.94482E+00
  weight for this iteration     100.00

 eigenvalues of (default mixing * dielectric matrix)
  average eigenvalue GAMMA=   1.7610
  4.8566  2.0897  1.7186  1.0354  0.2867  0.5788

 Free energy of the ion-electron system (eV)
  ---------------------------------------------------
  alpha Z        PSCENC =       573.53096271
  Ewald energy   TEWEN  =    -15452.55664149
  -Hartree energ DENC   =     -8710.64029648
  -exchange      EXHF   =         0.00000000
  -V(xc)+E(xc)   XCENC  =      1238.66428497
  PAW double counting   =     66470.78710560   -66155.00775971
  entropy T*S    EENTRO =        -0.00000000
  eigenvalues    EBANDS =     -2181.80412692
  atomic energy  EATOM  =     23659.20686107
  Solvation  Ediel_sol  =         0.00000000
  ---------------------------------------------------
  free energy    TOTEN  =      -557.81961025 eV

  energy without entropy =     -557.81961025  energy(sigma->0) =     -557.81961025


--------------------------------------------------------------------------------------------------------




--------------------------------------- Iteration      1(  12)  ---------------------------------------


    POTLOK:  cpu time      0.0116: real time      0.0119
    SETDIJ:  cpu time      0.0018: real time      0.0018
     EDDAV:  cpu time      3.7652: real time      3.7774
       DOS:  cpu time      0.0009: real time      0.0009
    CHARGE:  cpu time      0.0426: real time      0.0429
    MIXING:  cpu time      0.0007: real time      0.0007
    --------------------------------------------
      LOOP:  cpu time      3.8229: real time      3.8356

 eigenvalue-minimisations  :  3840
 total energy-change (2. order) : 0.3030760E+00  (-0.1940900E-01)
 number of electron     392.0000059 magnetization 
 augmentation part       29.1102276 magnetization 

 Broyden mixing:
  rms(total) = 0.52563E+00    rms(broyden)= 0.52562E+00
  rms(prec ) = 0.83976E+00
  weight for this iteration     100.00

 eigenvalues of (default mixing * dielectric matrix)
  average eigenvalue GAMMA=   1.6356
  4.8690  2.1228  1.7931  1.0365  0.2865  0.7651  0.5763

 Free energy of the ion-electron system (eV)
  ---------------------------------------------------
  alpha Z        PSCENC =       573.53096271
  Ewald energy   TEWEN  =    -15452.55664149
  -Hartree energ DENC   =     -8711.05932553
  -exchange      EXHF   =         0.00000000
  -V(xc)+E(xc)   XCENC  =      1238.64762400
  PAW double counting   =     66180.29328197   -65864.51684079
  entropy T*S    EENTRO =        -0.00000000
  eigenvalues    EBANDS =     -2181.06245619
  atomic energy  EATOM  =     23659.20686107
  Solvation  Ediel_sol  =         0.00000000
  ---------------------------------------------------
  free energy    TOTEN  =      -557.51653424 eV

  energy without entropy =     -557.51653424  energy(sigma->0) =     -557.51653424


--------------------------------------------------------------------------------------------------------




--------------------------------------- Iteration      1(  13)  ---------------------------------------


    POTLOK:  cpu time      0.0120: real time      0.0123
    SETDIJ:  cpu time      0.0018: real time      0.0018
     EDDAV:  cpu time      6.8252: real time      6.8462
       DOS:  cpu time      0.0005: real time      0.0005
    CHARGE:  cpu time      0.0448: real time      0.0452
    MIXING:  cpu time      0.0010: real time      0.0011
    --------------------------------------------
      LOOP:  cpu time      6.8854: real time      6.9072

 eigenvalue-minimisations  :  3840
 total energy-change (2. order) :-0.3301004E-01  (-0.6681406E-03)
 number of electron     392.0000059 magnetization 
 augmentation part       29.1129099 magnetization 

 Broyden mixing:
  rms(total) = 0.52878E+00    rms(broyden)= 0.52878E+00
  rms(prec ) = 0.84602E+00
  weight for this iteration     100.00

 eigenvalues of (default mixing * dielectric matrix)
  average eigenvalue GAMMA=   1.6344
  4.9311  1.5605  2.0162  1.8563  0.2864  1.0021  0.7112  0.7112

 Free energy of the ion-electron system (eV)
  ---------------------------------------------------
  alpha Z        PSCENC =       573.53096271
  Ewald energy   TEWEN  =    -15452.55664149
  -Hartree energ DENC   =     -8710.91882392
  -exchange      EXHF   =         0.00000000
  -V(xc)+E(xc)   XCENC  =      1238.64983051
  PAW double counting   =     66223.53949293   -65907.75827912
  entropy T*S    EENTRO =        -0.00000000
  eigenvalues    EBANDS =     -2181.24294697
  atomic energy  EATOM  =     23659.20686107
  Solvation  Ediel_sol  =         0.00000000
  ---------------------------------------------------
  free energy    TOTEN  =      -557.54954428 eV

  energy without entropy =     -557.54954428  energy(sigma->0) =     -557.54954428


--------------------------------------------------------------------------------------------------------




--------------------------------------- Iteration      1(  14)  ---------------------------------------


    POTLOK:  cpu time      0.0179: real time      0.0182
    SETDIJ:  cpu time      0.0022: real time      0.0022
     EDDAV:  cpu time      4.0031: real time      4.0173
       DOS:  cpu time      0.0007: real time      0.0007
    CHARGE:  cpu time      0.0460: real time      0.0463
    MIXING:  cpu time      0.0007: real time      0.0007
    --------------------------------------------
      LOOP:  cpu time      4.0707: real time      4.0855

 eigenvalue-minimisations  :  3840
 total energy-change (2. order) :-0.1398372E+00  (-0.1783057E-02)
 number of electron     392.0000060 magnetization 
 augmentation part       29.1098740 magnetization 

 Broyden mixing:
  rms(total) = 0.55554E+00    rms(broyden)= 0.55554E+00
  rms(prec ) = 0.88354E+00
  weight for this iteration     100.00

 eigenvalues of (default mixing * dielectric matrix)
  average eigenvalue GAMMA=   1.9181
  4.9708  2.6989  2.6989  2.0470  1.7636  0.2864  0.9766  0.9766  0.8443

 Free energy of the ion-electron system (eV)
  ---------------------------------------------------
  alpha Z        PSCENC =       573.53096271
  Ewald energy   TEWEN  =    -15452.55664149
  -Hartree energ DENC   =     -8712.05257758
  -exchange      EXHF   =         0.00000000
  -V(xc)+E(xc)   XCENC  =      1238.76514368
  PAW double counting   =     66488.19121651   -66172.42600748
  entropy T*S    EENTRO =        -0.00000000
  eigenvalues    EBANDS =     -2180.34833886
  atomic energy  EATOM  =     23659.20686107
  Solvation  Ediel_sol  =         0.00000000
  ---------------------------------------------------
  free energy    TOTEN  =      -557.68938143 eV

  energy without entropy =     -557.68938143  energy(sigma->0) =     -557.68938143


--------------------------------------------------------------------------------------------------------




--------------------------------------- Iteration      1(  15)  ---------------------------------------


    POTLOK:  cpu time      0.0127: real time      0.0130
    SETDIJ:  cpu time      0.0018: real time      0.0018
     EDDAV:  cpu time      4.0803: real time      4.0940
       DOS:  cpu time      0.0009: real time      0.0009
    CHARGE:  cpu time      0.0455: real time      0.0458
    MIXING:  cpu time      0.0009: real time      0.0009
    --------------------------------------------
      LOOP:  cpu time      4.1420: real time      4.1563

 eigenvalue-minimisations  :  3904
 total energy-change (2. order) : 0.9955455E+00  (-0.2185066E+00)
 number of electron     392.0000058 magnetization 
 augmentation part       28.9636584 magnetization 

 Broyden mixing:
  rms(total) = 0.21336E+00    rms(broyden)= 0.21295E+00
  rms(prec ) = 0.30127E+00
  weight for this iteration     100.00

 eigenvalues of (default mixing * dielectric matrix)
  average eigenvalue GAMMA=   1.7979
  5.0736  2.7303  2.7303  1.7834  1.7834  1.1780  1.1780  0.2864  0.6178  0.6178

 Free energy of the ion-electron system (eV)
  ---------------------------------------------------
  alpha Z        PSCENC =       573.53096271
  Ewald energy   TEWEN  =    -15452.55664149
  -Hartree energ DENC   =     -8716.97923258
  -exchange      EXHF   =         0.00000000
  -V(xc)+E(xc)   XCENC  =      1238.78319121
  PAW double counting   =     65546.28527204   -65230.59263713
  entropy T*S    EENTRO =        -0.01345972
  eigenvalues    EBANDS =     -2174.35815204
  atomic energy  EATOM  =     23659.20686107
  Solvation  Ediel_sol  =         0.00000000
  ---------------------------------------------------
  free energy    TOTEN  =      -556.69383592 eV

  energy without entropy =     -556.68037620  energy(sigma->0) =     -556.68710606


--------------------------------------------------------------------------------------------------------




--------------------------------------- Iteration      1(  16)  ---------------------------------------


    POTLOK:  cpu time      0.0122: real time      0.0124
    SETDIJ:  cpu time      0.0021: real time      0.0021
     EDDAV:  cpu time      3.7899: real time      3.8028
       DOS:  cpu time      0.0008: real time      0.0008
    CHARGE:  cpu time      0.0443: real time      0.0446
    MIXING:  cpu time      0.0008: real time      0.0008
    --------------------------------------------
      LOOP:  cpu time      3.8501: real time      3.8635

 eigenvalue-minimisations  :  3840
 total energy-change (2. order) : 0.3937075E-01  (-0.2873317E-01)
 number of electron     392.0000058 magnetization 
 augmentation part       28.9415659 magnetization 

 Broyden mixing:
  rms(total) = 0.17823E+00    rms(broyden)= 0.17816E+00
  rms(prec ) = 0.21175E+00
  weight for this iteration     100.00

 eigenvalues of (default mixing * dielectric matrix)
  average eigenvalue GAMMA=   1.6654
  5.0754  2.7733  2.7733  1.8490  1.7297  1.1739  1.1739  0.2864  0.6394  0.6394
  0.2056

 Free energy of the ion-electron system (eV)
  ---------------------------------------------------
  alpha Z        PSCENC =       573.53096271
  Ewald energy   TEWEN  =    -15452.55664149
  -Hartree energ DENC   =     -8719.62228482
  -exchange      EXHF   =         0.00000000
  -V(xc)+E(xc)   XCENC  =      1238.90737816
  PAW double counting   =     65427.04391080   -65111.38950827
  entropy T*S    EENTRO =        -0.01315869
  eigenvalues    EBANDS =     -2171.76198466
  atomic energy  EATOM  =     23659.20686107
  Solvation  Ediel_sol  =         0.00000000
  ---------------------------------------------------
  free energy    TOTEN  =      -556.65446517 eV

  energy without entropy =     -556.64130649  energy(sigma->0) =     -556.64788583


--------------------------------------------------------------------------------------------------------




--------------------------------------- Iteration      1(  17)  ---------------------------------------


    POTLOK:  cpu time      0.0116: real time      0.0119
    SETDIJ:  cpu time      0.0017: real time      0.0017
     EDDAV:  cpu time      3.9860: real time      3.9995
       DOS:  cpu time      0.0007: real time      0.0007
    CHARGE:  cpu time      0.0469: real time      0.0471
    MIXING:  cpu time      0.0009: real time      0.0009
    --------------------------------------------
      LOOP:  cpu time      4.0477: real time      4.0617

 eigenvalue-minimisations  :  4096
 total energy-change (2. order) : 0.1531115E-02  (-0.2622615E-02)
 number of electron     392.0000058 magnetization 
 augmentation part       28.9324854 magnetization 

 Broyden mixing:
  rms(total) = 0.19214E+00    rms(broyden)= 0.19213E+00
  rms(prec ) = 0.21644E+00
  weight for this iteration     100.00

 eigenvalues of (default mixing * dielectric matrix)
  average eigenvalue GAMMA=   1.7047
  5.0854  2.9640  2.9640  1.9084  1.9084  0.9086  0.9086  1.1098  1.1098  0.2864
  0.7550  0.5482

 Free energy of the ion-electron system (eV)
  ---------------------------------------------------
  alpha Z        PSCENC =       573.53096271
  Ewald energy   TEWEN  =    -15452.55664149
  -Hartree energ DENC   =     -8719.42995921
  -exchange      EXHF   =         0.00000000
  -V(xc)+E(xc)   XCENC  =      1238.88123679
  PAW double counting   =     65403.85952025   -65088.19856661
  entropy T*S    EENTRO =        -0.01299588
  eigenvalues    EBANDS =     -2171.93335169
  atomic energy  EATOM  =     23659.20686107
  Solvation  Ediel_sol  =         0.00000000
  ---------------------------------------------------
  free energy    TOTEN  =      -556.65293406 eV

  energy without entropy =     -556.63993818  energy(sigma->0) =     -556.64643612


--------------------------------------------------------------------------------------------------------




--------------------------------------- Iteration      1(  18)  ---------------------------------------


    POTLOK:  cpu time      0.0126: real time      0.0128
    SETDIJ:  cpu time      0.0019: real time      0.0020
     EDDAV:  cpu time      3.7857: real time      3.7982
       DOS:  cpu time      0.0011: real time      0.0011
    CHARGE:  cpu time      0.0439: real time      0.0442
    MIXING:  cpu time      0.0009: real time      0.0009
    --------------------------------------------
      LOOP:  cpu time      3.8461: real time      3.8591

 eigenvalue-minimisations  :  3840
 total energy-change (2. order) :-0.1395616E-01  (-0.3126883E-01)
 number of electron     392.0000057 magnetization 
 augmentation part       28.8658794 magnetization 

 Broyden mixing:
  rms(total) = 0.24692E+00    rms(broyden)= 0.24688E+00
  rms(prec ) = 0.31107E+00
  weight for this iteration     100.00

 eigenvalues of (default mixing * dielectric matrix)
  average eigenvalue GAMMA=   1.7170
  5.0910  3.0717  3.0717  1.9145  1.9145  1.4401  1.4401  1.0971  1.0971  0.2864
  0.6972  0.6972  0.5024

 Free energy of the ion-electron system (eV)
  ---------------------------------------------------
  alpha Z        PSCENC =       573.53096271
  Ewald energy   TEWEN  =    -15452.55664149
  -Hartree energ DENC   =     -8720.19176520
  -exchange      EXHF   =         0.00000000
  -V(xc)+E(xc)   XCENC  =      1238.86439414
  PAW double counting   =     65063.12891940   -64747.47964805
  entropy T*S    EENTRO =        -0.01271564
  eigenvalues    EBANDS =     -2171.15725716
  atomic energy  EATOM  =     23659.20686107
  Solvation  Ediel_sol  =         0.00000000
  ---------------------------------------------------
  free energy    TOTEN  =      -556.66689022 eV

  energy without entropy =     -556.65417458  energy(sigma->0) =     -556.66053240


--------------------------------------------------------------------------------------------------------




--------------------------------------- Iteration      1(  19)  ---------------------------------------


    POTLOK:  cpu time      0.0119: real time      0.0122
    SETDIJ:  cpu time      0.0018: real time      0.0018
     EDDAV:  cpu time      3.7763: real time      3.7888
       DOS:  cpu time      0.0008: real time      0.0008
    CHARGE:  cpu time      0.0467: real time      0.0470
    MIXING:  cpu time      0.0011: real time      0.0011
    --------------------------------------------
      LOOP:  cpu time      3.8388: real time      3.8518

 eigenvalue-minimisations  :  3840
 total energy-change (2. order) : 0.2368174E-01  (-0.3597115E-02)
 number of electron     392.0000057 magnetization 
 augmentation part       28.8874660 magnetization 

 Broyden mixing:
  rms(total) = 0.16475E+00    rms(broyden)= 0.16468E+00
  rms(prec ) = 0.20866E+00
  weight for this iteration     100.00

 eigenvalues of (default mixing * dielectric matrix)
  average eigenvalue GAMMA=   1.6627
  5.0632  3.0913  3.0913  1.6190  1.6190  1.7461  1.7006  1.1196  1.1196  0.2864
  0.8128  0.8128  0.5979  0.5979

 Free energy of the ion-electron system (eV)
  ---------------------------------------------------
  alpha Z        PSCENC =       573.53096271
  Ewald energy   TEWEN  =    -15452.55664149
  -Hartree energ DENC   =     -8720.34302615
  -exchange      EXHF   =         0.00000000
  -V(xc)+E(xc)   XCENC  =      1238.85519380
  PAW double counting   =     64805.36669207   -64489.72845500
  entropy T*S    EENTRO =        -0.01480191
  eigenvalues    EBANDS =     -2170.95999357
  atomic energy  EATOM  =     23659.20686107
  Solvation  Ediel_sol  =         0.00000000
  ---------------------------------------------------
  free energy    TOTEN  =      -556.64320848 eV

  energy without entropy =     -556.62840657  energy(sigma->0) =     -556.63580753


--------------------------------------------------------------------------------------------------------




--------------------------------------- Iteration      1(  20)  ---------------------------------------


    POTLOK:  cpu time      0.0154: real time      0.0156
    SETDIJ:  cpu time      0.0020: real time      0.0020
     EDDAV:  cpu time      3.7221: real time      3.7346
       DOS:  cpu time      0.0007: real time      0.0007
    CHARGE:  cpu time      0.0430: real time      0.0433
    MIXING:  cpu time      0.0010: real time      0.0010
    --------------------------------------------
      LOOP:  cpu time      3.7842: real time      3.7973

 eigenvalue-minimisations  :  3776
 total energy-change (2. order) : 0.1257123E-01  (-0.2984515E-02)
 number of electron     392.0000057 magnetization 
 augmentation part       28.8983427 magnetization 

 Broyden mixing:
  rms(total) = 0.10354E+00    rms(broyden)= 0.10350E+00
  rms(prec ) = 0.12665E+00
  weight for this iteration     100.00

 eigenvalues of (default mixing * dielectric matrix)
  average eigenvalue GAMMA=   1.5672
  5.0621  3.1049  3.1049  1.5944  1.5944  1.7523  1.7523  1.1192  1.1192  0.2864
  0.8282  0.8282  0.5963  0.5963  0.1693

 Free energy of the ion-electron system (eV)
  ---------------------------------------------------
  alpha Z        PSCENC =       573.53096271
  Ewald energy   TEWEN  =    -15452.55664149
  -Hartree energ DENC   =     -8720.81172061
  -exchange      EXHF   =         0.00000000
  -V(xc)+E(xc)   XCENC  =      1238.87569823
  PAW double counting   =     64657.78007624   -64342.15638487
[...]
   0.211E+01 0.404E+01 0.760E+01   -.206E+01 -.357E+01 -.697E+01   -.731E-01 -.368E+00 -.248E+00   -.159E-03 -.413E-03 -.232E-02
   -.169E+01 -.258E+01 -.454E+02   0.180E+01 0.312E+01 0.425E+02   -.279E+00 -.652E+00 0.406E+00   0.102E-03 0.902E-03 0.889E-02
   -.139E+01 -.275E+01 0.454E+02   0.180E+01 0.312E+01 -.425E+02   -.425E+00 -.567E+00 -.406E+00   0.730E-03 0.539E-03 -.889E-02
   0.131E+01 -.654E+01 -.442E+01   -.125E+01 0.619E+01 0.344E+01   -.130E+00 0.186E+00 0.513E+00   0.147E-03 0.121E-02 0.110E-02
   0.115E+01 -.327E+01 0.297E+01   -.110E+01 0.286E+01 -.276E+01   -.102E+00 0.267E+00 -.400E-01   0.178E-03 0.482E-03 -.106E-02
   0.493E+02 -.143E+02 -.204E+02   -.458E+02 0.134E+02 0.192E+02   0.316E+00 0.955E-01 -.260E+00   -.829E-02 0.228E-02 0.379E-02
   0.611E+01 -.336E+01 0.646E+01   -.512E+01 0.285E+01 -.567E+01   -.520E+00 0.385E+00 -.361E+00   -.145E-02 0.134E-03 -.166E-02
   -.354E+02 -.103E+02 -.132E+02   0.328E+02 0.937E+01 0.131E+02   0.450E+00 0.411E+00 -.451E+00   0.725E-02 0.128E-02 0.253E-02
   -.371E+01 -.312E+01 0.556E+01   0.293E+01 0.269E+01 -.501E+01   0.283E+00 0.289E+00 -.250E+00   0.138E-02 0.282E-03 -.139E-02
   0.215E+01 0.163E+02 -.766E+01   -.353E+00 -.141E+02 0.586E+01   -.120E+01 -.965E+00 0.106E+01   0.117E-03 -.381E-02 0.158E-02
   0.129E+01 0.116E+01 0.385E+01   -.922E+00 -.118E+01 -.359E+01   -.243E+00 0.210E+00 -.439E-01   -.130E-03 -.104E-02 -.119E-02
   0.466E+02 0.594E+02 0.226E+02   -.548E+02 -.753E+02 -.335E+02   0.813E+01 0.155E+02 0.110E+02   -.706E-03 -.613E-03 0.363E-02
   0.500E+02 0.608E+02 0.437E+02   -.582E+02 -.766E+02 -.534E+02   0.770E+01 0.156E+02 0.903E+01   -.157E-02 -.916E-03 -.359E-02
   0.462E+02 0.505E+02 0.203E+02   -.546E+02 -.671E+02 -.312E+02   0.818E+01 0.165E+02 0.108E+02   -.859E-03 0.247E-02 0.395E-02
   0.505E+02 0.436E+02 0.470E+02   -.582E+02 -.604E+02 -.570E+02   0.709E+01 0.171E+02 0.947E+01   -.215E-02 0.373E-02 -.392E-02
   0.395E+02 0.554E+02 0.229E+02   -.481E+02 -.719E+02 -.338E+02   0.853E+01 0.163E+02 0.108E+02   0.145E-02 0.141E-02 0.361E-02
   0.371E+02 0.540E+02 0.428E+02   -.458E+02 -.703E+02 -.529E+02   0.858E+01 0.162E+02 0.979E+01   0.192E-02 0.130E-02 -.335E-02
   0.359E+02 0.680E+02 -.324E+00   -.445E+02 -.835E+02 -.114E+02   0.866E+01 0.148E+02 0.122E+02   0.156E-02 -.306E-02 0.837E-02
   0.171E+02 0.952E+02 0.108E+03   -.274E+02 -.109E+03 -.114E+03   0.109E+02 0.128E+02 0.325E+01   0.565E-02 -.780E-02 -.148E-01
   0.135E+02 0.268E+02 0.420E+02   0.101E+02 -.254E+02 -.523E+02   -.257E+02 -.245E+01 0.959E+01   -.165E-01 -.303E-02 -.172E-02
   -.657E+02 0.951E+01 0.297E+02   0.843E+02 -.855E+01 -.404E+02   -.184E+02 -.108E+01 0.105E+02   -.246E-02 -.622E-03 0.933E-03
   -.719E+02 -.182E+02 0.349E+02   0.900E+02 0.179E+02 -.455E+02   -.177E+02 0.786E+00 0.107E+02   0.753E-04 0.654E-02 -.462E-03
   -.712E+02 0.419E+01 0.308E+02   0.894E+02 -.371E+01 -.412E+02   -.179E+02 -.356E+00 0.103E+02   -.268E-03 0.203E-02 0.597E-03
   -.704E+02 0.167E+02 0.341E+02   0.891E+02 -.152E+02 -.444E+02   -.186E+02 -.189E+01 0.100E+02   -.525E-03 -.185E-02 -.436E-03
   -.711E+02 0.972E+01 0.310E+02   0.892E+02 -.890E+01 -.415E+02   -.179E+02 -.859E+00 0.103E+02   -.688E-03 -.293E-03 0.721E-03
   -.139E+03 0.224E+02 0.399E+02   0.153E+03 -.207E+02 -.500E+02   -.122E+02 -.184E+01 0.101E+02   0.131E-01 -.317E-02 -.190E-02
   -.765E+02 0.940E+01 0.300E+02   0.943E+02 -.844E+01 -.406E+02   -.173E+02 -.103E+01 0.105E+02   0.174E-02 -.567E-03 0.104E-02
   0.451E+02 -.701E+02 0.201E+02   -.542E+02 0.852E+02 -.311E+02   0.844E+01 -.148E+02 0.112E+02   -.350E-02 0.886E-03 0.344E-02
   0.336E+02 -.671E+02 0.411E+02   -.432E+02 0.824E+02 -.513E+02   0.934E+01 -.150E+02 0.996E+01   -.168E-02 0.262E-04 -.290E-02
   0.249E+02 -.661E+02 0.237E+02   -.349E+02 0.815E+02 -.348E+02   0.989E+01 -.152E+02 0.111E+02   0.107E-02 -.131E-03 0.301E-02
   0.271E+02 -.660E+02 0.395E+02   -.369E+02 0.813E+02 -.496E+02   0.981E+01 -.150E+02 0.973E+01   0.587E-03 -.960E-04 -.270E-02
   0.350E+02 -.470E+02 0.190E+02   -.444E+02 0.632E+02 -.300E+02   0.902E+01 -.162E+02 0.111E+02   -.152E-02 -.484E-02 0.378E-02
   0.303E+02 -.601E+02 0.416E+02   -.400E+02 0.757E+02 -.518E+02   0.955E+01 -.154E+02 0.992E+01   -.563E-03 -.218E-02 -.307E-02
   -.365E+02 -.111E+03 -.553E+02   0.234E+02 0.124E+03 0.403E+02   0.150E+02 -.113E+02 0.176E+02   0.122E-01 0.833E-02 0.169E-01
   0.213E+02 -.703E+02 0.538E+02   -.315E+02 0.857E+02 -.632E+02   0.106E+02 -.150E+02 0.868E+01   0.232E-02 0.684E-03 -.564E-02
   0.497E+02 -.527E+02 -.341E+02   -.577E+02 0.696E+02 0.444E+02   0.768E+01 -.171E+02 -.100E+02   -.134E-02 -.138E-02 0.436E-03
   0.439E+02 -.567E+02 -.310E+02   -.523E+02 0.728E+02 0.415E+02   0.821E+01 -.159E+02 -.103E+02   0.903E-04 -.742E-03 -.721E-03
   0.889E+02 -.109E+03 -.399E+02   -.946E+02 0.123E+03 0.500E+02   0.448E+01 -.114E+02 -.101E+02   -.928E-02 0.973E-02 0.190E-02
   0.464E+02 -.615E+02 -.300E+02   -.544E+02 0.774E+02 0.406E+02   0.778E+01 -.155E+02 -.105E+02   -.136E-02 0.123E-02 -.104E-02
   0.202E+02 -.713E+02 -.349E+02   -.295E+02 0.869E+02 0.455E+02   0.954E+01 -.150E+02 -.107E+02   0.562E-02 0.333E-02 0.462E-03
   0.392E+02 -.596E+02 -.308E+02   -.479E+02 0.755E+02 0.412E+02   0.863E+01 -.157E+02 -.103E+02   0.189E-02 0.783E-03 -.597E-03
   0.165E+02 0.252E+02 -.420E+02   -.271E+02 -.392E+01 0.523E+02   0.107E+02 -.235E+02 -.959E+01   0.561E-02 -.158E-01 0.172E-02
   0.411E+02 -.522E+02 -.297E+02   -.495E+02 0.687E+02 0.404E+02   0.826E+01 -.165E+02 -.105E+02   0.690E-03 -.244E-02 -.933E-03
   0.282E+02 0.591E+02 -.428E+02   -.380E+02 -.748E+02 0.529E+02   0.973E+01 0.155E+02 -.979E+01   0.170E-03 0.232E-02 0.335E-02
   0.282E+02 0.619E+02 -.229E+02   -.382E+02 -.776E+02 0.338E+02   0.986E+01 0.155E+02 -.108E+02   0.499E-03 0.196E-02 -.361E-02
   0.739E+02 0.624E+02 -.108E+03   -.807E+02 -.782E+02 0.114E+03   0.566E+01 0.158E+02 -.325E+01   -.958E-02 0.992E-03 0.148E-01
   0.409E+02 0.651E+02 0.324E+00   -.501E+02 -.802E+02 0.114E+02   0.847E+01 0.149E+02 -.122E+02   -.343E-02 -.176E-03 -.837E-02
   0.125E+02 0.656E+02 -.470E+02   -.232E+02 -.806E+02 0.570E+02   0.113E+02 0.147E+02 -.947E+01   0.431E-02 0.228E-05 0.392E-02
   0.206E+02 0.653E+02 -.203E+02   -.308E+02 -.808E+02 0.312E+02   0.102E+02 0.153E+02 -.108E+02   0.257E-02 0.489E-03 -.395E-02
   0.276E+02 0.737E+02 -.437E+02   -.373E+02 -.887E+02 0.534E+02   0.966E+01 0.145E+02 -.903E+01   -.742E-05 -.182E-02 0.359E-02
   0.282E+02 0.700E+02 -.226E+02   -.378E+02 -.852E+02 0.335E+02   0.936E+01 0.148E+02 -.110E+02   -.178E-03 -.918E-03 -.363E-02
   -.672E+02 -.376E+01 -.416E+02   0.855E+02 0.320E+01 0.518E+02   -.181E+02 0.568E+00 -.992E+01   -.161E-02 -.158E-02 0.307E-02
   -.582E+02 0.678E+01 -.190E+02   0.769E+02 -.681E+01 0.300E+02   -.185E+02 -.290E+00 -.111E+02   -.343E-02 -.374E-02 -.378E-02
   -.716E+02 -.167E+02 -.538E+02   0.900E+02 0.156E+02 0.632E+02   -.183E+02 0.164E+01 -.868E+01   -.566E-03 0.235E-02 0.564E-02
   -.779E+02 -.871E+02 0.553E+02   0.955E+02 0.822E+02 -.403E+02   -.173E+02 0.738E+01 -.176E+02   0.113E-02 0.147E-01 -.169E-01
   -.707E+02 -.950E+01 -.395E+02   0.888E+02 0.866E+01 0.496E+02   -.179E+02 0.987E+00 -.973E+01   -.377E-03 0.461E-03 0.270E-02
   -.697E+02 -.115E+02 -.237E+02   0.880E+02 0.106E+02 0.348E+02   -.181E+02 0.991E+00 -.111E+02   -.646E-03 0.859E-03 -.301E-02
   -.750E+02 -.446E+01 -.411E+02   0.930E+02 0.383E+01 0.513E+02   -.176E+02 0.600E+00 -.996E+01   0.861E-03 -.144E-02 0.290E-02
   -.833E+02 0.396E+01 -.201E+02   0.101E+03 -.431E+01 0.311E+02   -.170E+02 -.672E-01 -.112E+02   0.252E-02 -.259E-02 -.344E-02
   0.210E+02 0.364E+02 0.163E-03   -.209E+02 -.363E+02 -.304E-11   -.910E+00 -.158E+01 -.169E-18   -.752E-03 -.130E-02 -.479E-07
 -----------------------------------------------------------------------------------------------
   0.177E+01 0.306E+01 0.127E-03   0.117E-12 0.597E-12 -.201E-12   -.177E+01 -.306E+01 -.178E-14   0.271E-02 0.469E-02 -.307E-07
 
 
 POSITION                                       TOTAL-FORCE (eV/Angst)
 -----------------------------------------------------------------------------------
      2.61028     -0.00000      0.00000         0.725840      1.103241      0.732848
      2.61028     -0.00000      5.43130         0.106279      0.204249     -0.211899
      5.06777      4.25649      0.00000         0.571574     -2.118147      0.487628
      5.06777      4.25649      5.43130         0.132460     -0.504055     -0.300726
      5.06777     -4.25649      0.00000        -0.108858     -0.143983      0.457518
      5.06777     -4.25649      5.43130        -0.098557     -0.120934     -0.176283
      7.52525      0.00000      0.00000        -2.597017      2.834111      1.416577
      7.52525      0.00000      5.43130        -0.339585      0.340989     -0.422685
      1.15234      1.99591      3.62087        -0.032555      0.050157     -0.718204
      1.15234      1.99591      9.05217         0.037870     -0.166595      0.368762
      3.60982      6.25240      3.62087        -0.163211     -0.050501     -0.368762
      3.60982      6.25240      9.05217         0.059715     -0.003115      0.718204
      3.60982     -2.26057      3.62087         0.102936      0.033557     -0.383008
      3.60982     -2.26057      9.05217        -0.022407      0.105924      0.383008
      6.06731      1.99591      3.62087        -0.168613     -0.116009     -2.571975
      6.06731      1.99591      9.05217        -0.016161     -0.204027      2.571975
      1.15234     -1.99591      1.81043        -0.070264     -0.166265     -0.457518
      1.15234     -1.99591      7.24173        -0.055453     -0.145819      0.176283
      3.60982      2.26057      1.81043         3.752921     -0.832027     -1.416577
      3.60982      2.26057      7.24173         0.465098     -0.123595      0.422685
      3.60982     -6.25240      1.81043        -2.120156     -0.564076     -0.487628
      3.60982     -6.25240      7.24173        -0.502754     -0.137313      0.300726
      6.06731     -1.99591      1.81043         0.592515      1.180216     -0.732848
      6.06731     -1.99591      7.24173         0.123745      0.194165      0.211899
      1.67752      0.61366      4.26298        -0.139981     -0.383664      0.070858
      1.67752      0.61366      9.69428        -0.413143     -0.204097     -0.612843
      4.13500      4.87015      4.26298        -0.169771     -0.085566     -0.038009
      4.13500      4.87015      9.69428        -0.593784      0.291258     -0.549382
      4.13500     -3.64282      4.26298        -0.091629     -0.187113     -0.003754
      4.13500     -3.64282      9.69428        -0.140347     -0.124219     -0.322414
      6.59249      0.61366      4.26298         0.106812     -0.743385      0.505421
      6.59249      0.61366      9.69428         0.557570     -1.028816     -2.586938
      3.54476      1.14594      0.64211        -2.051187     -1.003768     -0.707556
      3.54476      1.14594      6.07341         0.147195     -0.118848     -0.153110
      6.00224      5.40243      0.64211         0.391689      0.525772      0.125830
      6.00224      5.40243      6.07341         0.308099      0.119054     -0.110785
      6.00224     -3.11054      0.64211         0.043885     -0.415885     -0.310989
      6.00224     -3.11054      6.07341         0.281420     -0.042367     -0.150105
      8.45972      1.14594      0.64211         2.156455     -0.158172     -0.055190
      8.45972      1.14594      6.07341         0.425063     -0.069055     -0.125741
      2.15017      2.49688      2.45255        -0.658280      0.303499      0.241494
      2.15017      2.49688      7.88385        -0.197421      0.292176     -0.242910
      4.60765      6.75336      2.45255        -0.111378      0.242485      0.061265
      4.60765      6.75336      7.88385         0.002928      0.296247     -0.361258
      4.60765     -1.75961      2.45255        -0.387020      0.011577      0.143031
      4.60765     -1.75961      7.88385        -0.108305      0.192468     -0.262351
      7.06514      2.49688      2.45255         1.987044      1.509058      2.615377
      7.06514      2.49688      7.88385         0.392992      0.338261     -0.771836
      1.67752     -0.61366      1.16832        -0.382109     -0.169937      0.310989
      1.67752     -0.61366      6.59962        -0.177401      0.222533      0.150105
      4.13500      3.64282      1.16832        -1.215209      1.788458      0.055190
      4.13500      3.64282      6.59962        -0.272335      0.333588      0.125741
      4.13500     -4.87015      1.16832         0.259488      0.602099     -0.125830
      4.13500     -4.87015      6.59962        -0.050946      0.326349      0.110785
      6.59249     -0.61366      1.16832         0.156305     -2.278264      0.707556
      6.59249     -0.61366      6.59962        -0.176523      0.068051      0.153110
      2.15017     -2.49688      2.97876        -0.037403     -0.183654      0.322414
      2.15017     -2.49688      8.41006        -0.116230     -0.172909      0.003754
      4.60765      1.75961      2.97876        -1.169765     -0.031538      2.586938
      4.60765      1.75961      8.41006        -0.697196     -0.279191     -0.505421
      4.60765     -6.75336      2.97876         0.549129     -0.368602      0.549382
      4.60765     -6.75336      8.41006         0.010783     -0.189809      0.038009
      7.06514     -2.49688      2.97876         0.029818     -0.459841      0.612843
      7.06514     -2.49688      8.41006        -0.262272     -0.313060     -0.070858
      3.54476     -1.14594      4.78919         0.220835      0.002439      0.262351
      3.54476     -1.14594     10.22049         0.203536     -0.329381     -0.143031
      6.00224      3.11054      4.78919         0.096446      0.509472      0.771836
      6.00224      3.11054     10.22049         0.313361      2.475360     -2.615377
      6.00224     -5.40243      4.78919         0.255094      0.150659      0.361258
      6.00224     -5.40243     10.22049         0.265687      0.024787     -0.061265
      8.45972     -1.14594      4.78919         0.351742     -0.024883      0.242910
      8.45972     -1.14594     10.22049         0.591978     -0.418338     -0.241494
      5.88240      1.67565      0.90522        -0.861080     -1.491434      0.000000
 -----------------------------------------------------------------------------------
    total drift:                                0.003106      0.004756      0.000127


--------------------------------------------------------------------------------------------------------



  FREE ENERGIE OF THE ION-ELECTRON SYSTEM (eV)
  ---------------------------------------------------
  free  energy   TOTEN  =      -556.62473620 eV

  energy  without entropy=     -556.60909145  energy(sigma->0) =     -556.61691382
 


--------------------------------------------------------------------------------------------------------


    POTLOK:  cpu time      0.0145: real time      0.0146


--------------------------------------------------------------------------------------------------------


 stress matrix after NEB project (eV)
     55.86956      2.85709      3.20074
      2.85709     59.16864     -1.84795
      3.20074     -1.84795     60.56650
  FORCES: max atom, RMS     4.096752    1.401968
  FORCE total and by dimension   11.978420    3.752921
  Stress total and by dimension  101.657669   60.566495
     LOOP+:  cpu time    139.4496: real time    139.9341
    4ORBIT:  cpu time      0.0000: real time      0.0000



 total charge

# of ion       s       p       d       tot
------------------------------------------
    1        0.654   1.014   0.000   1.667
    2        0.651   1.010   0.000   1.661
    3        0.647   1.007   0.000   1.654
    4        0.652   1.011   0.000   1.662
    5        0.651   1.012   0.000   1.663
    6        0.651   1.010   0.000   1.662
    7        0.642   0.998   0.000   1.639
    8        0.651   1.011   0.000   1.662
    9        0.651   1.012   0.000   1.663
   10        0.650   1.010   0.000   1.661
   11        0.650   1.010   0.000   1.661
   12        0.651   1.012   0.000   1.663
   13        0.651   1.011   0.000   1.662
   14        0.651   1.011   0.000   1.662
   15        0.646   1.006   0.000   1.652
   16        0.646   1.006   0.000   1.652
   17        0.651   1.012   0.000   1.663
   18        0.651   1.010   0.000   1.662
   19        0.642   0.998   0.000   1.639
   20        0.651   1.011   0.000   1.662
   21        0.647   1.007   0.000   1.654
   22        0.652   1.011   0.000   1.662
   23        0.654   1.014   0.000   1.667
   24        0.651   1.010   0.000   1.661
   25        1.552   3.707   0.000   5.259
   26        1.551   3.709   0.000   5.260
   27        1.552   3.705   0.000   5.257
   28        1.553   3.706   0.000   5.259
   29        1.553   3.704   0.000   5.257
   30        1.551   3.707   0.000   5.258
   31        1.552   3.705   0.000   5.258
   32        1.552   3.706   0.000   5.258
   33        1.564   3.679   0.000   5.243
   34        1.553   3.705   0.000   5.258
   35        1.551   3.707   0.000   5.259
   36        1.552   3.706   0.000   5.259
   37        1.553   3.705   0.000   5.258
   38        1.553   3.706   0.000   5.259
   39        1.548   3.714   0.000   5.262
   40        1.552   3.707   0.000   5.259
   41        1.551   3.708   0.000   5.259
   42        1.551   3.708   0.000   5.260
   43        1.551   3.707   0.000   5.258
   44        1.552   3.707   0.000   5.259
   45        1.552   3.705   0.000   5.257
   46        1.552   3.707   0.000   5.259
   47        1.567   3.674   0.000   5.241
   48        1.553   3.707   0.000   5.259
   49        1.553   3.705   0.000   5.258
   50        1.553   3.706   0.000   5.259
   51        1.548   3.714   0.000   5.262
   52        1.552   3.707   0.000   5.259
   53        1.551   3.707   0.000   5.259
   54        1.552   3.706   0.000   5.259
   55        1.564   3.679   0.000   5.243
   56        1.553   3.705   0.000   5.258
   57        1.551   3.707   0.000   5.258
   58        1.553   3.704   0.000   5.257
   59        1.552   3.706   0.000   5.258
   60        1.552   3.705   0.000   5.258
   61        1.553   3.706   0.000   5.259
   62        1.552   3.705   0.000   5.257
   63        1.551   3.709   0.000   5.260
   64        1.552   3.707   0.000   5.259
   65        1.552   3.707   0.000   5.259
   66        1.552   3.705   0.000   5.257
   67        1.553   3.707   0.000   5.259
   68        1.567   3.674   0.000   5.241
   69        1.552   3.707   0.000   5.259
   70        1.551   3.707   0.000   5.258
   71        1.551   3.708   0.000   5.260
   72        1.551   3.708   0.000   5.259
   73        1.593   3.341   0.000   4.934
--------------------------------------------------
tot         91.731 205.368   0.000 297.100
 

 total amount of memory used by VASP MPI-rank0   104021. kBytes
=======================================================================

   base      :      30000. kBytes
   nonl-proj :      51791. kBytes
   fftplans  :       1787. kBytes
   grid      :       9701. kBytes
   one-center:        224. kBytes
   wavefun   :      10518. kBytes
 
  
  
 General timing and accounting informations for this job:
 ========================================================
  
                  Total CPU time used (sec):      145.959
                            User time (sec):      144.222
                          System time (sec):        1.737
                         Elapsed time (sec):      147.443
  
                   Maximum memory used (kb):      308728.
                   Average memory used (kb):          N/A
  
                          Minor page faults:       162656
                          Major page faults:           96
                 Voluntary context switches:         4126
