 vasp.5.4.4.18Apr17-6-g9f103f2a35 (build Jun 19 2019 10:34:07) complex          
  
 executed on               LB-5.4 date 2023.05.15  18:42:40
 running on   96 total cores
 distrk:  each k-point on   24 cores,    4 groups
 distr:  one band on NCORES_PER_BAND=   1 cores,   24 groups


--------------------------------------------------------------------------------------------------------


 INCAR:
 POTCAR:    PAW_PBE Si 05Jan2001                  

 ----------------------------------------------------------------------------- 
|                                                                             |
|           W    W    AA    RRRRR   N    N  II  N    N   GGGG   !!!           |
|           W    W   A  A   R    R  NN   N  II  NN   N  G    G  !!!           |
|           W    W  A    A  R    R  N N  N  II  N N  N  G       !!!           |
|           W WW W  AAAAAA  RRRRR   N  N N  II  N  N N  G  GGG   !            |
|           WW  WW  A    A  R   R   N   NN  II  N   NN  G    G                |
|           W    W  A    A  R    R  N    N  II  N    N   GGGG   !!!           |
|                                                                             |
|      For optimal performance we recommend to set                            |
|        NCORE= 4 - approx SQRT( number of cores)                             |
|      NCORE specifies how many cores store one orbital (NPAR=cpu/NCORE).     |
|      This setting can  greatly improve the performance of VASP for DFT.     |
|      The default,   NCORE=1            might be grossly inefficient         |
|      on modern multi-core architectures or massively parallel machines.     |
|      Do your own testing !!!!                                               |
|      Unfortunately you need to use the default for GW and RPA calculations. |
|      (for HF NCORE is supported but not extensively tested yet)             |
|                                                                             |
 ----------------------------------------------------------------------------- 


 ----------------------------------------------------------------------------- 
|                                                                             |
|           W    W    AA    RRRRR   N    N  II  N    N   GGGG   !!!           |
|           W    W   A  A   R    R  NN   N  II  NN   N  G    G  !!!           |
|           W    W  A    A  R    R  N N  N  II  N N  N  G       !!!           |
|           W WW W  AAAAAA  RRRRR   N  N N  II  N  N N  G  GGG   !            |
|           WW  WW  A    A  R   R   N   NN  II  N   NN  G    G                |
|           W    W  A    A  R    R  N    N  II  N    N   GGGG   !!!           |
|                                                                             |
|      You have enabled k-point parallelism (KPAR>1).                         |
|      This developmental code was originally  written by Paul Kent at ORNL,  |
|      and carefully double checked in Vienna.                                |
|      GW as well as linear response parallelism added by Martijn Marsman     |
|      and Georg Kresse.                                                      |
|      Carefully verify results versus KPAR=1.                                |
|      Report problems to Paul Kent and Vienna.                               |
|                                                                             |
 ----------------------------------------------------------------------------- 

 POTCAR:    PAW_PBE Si 05Jan2001                  
   VRHFIN =Si: s2p2                                                             
   LEXCH  = PE                                                                  
   EATOM  =   103.0669 eV,    7.5752 Ry                                         
                                                                                
   TITEL  = PAW_PBE Si 05Jan2001                                                
   LULTRA =        F    use ultrasoft PP ?                                      
   IUNSCR =        1    unscreen: 0-lin 1-nonlin 2-no                           
   RPACOR =    1.500    partial core radius                                     
   POMASS =   28.085; ZVAL   =    4.000    mass and valenz                      
   RCORE  =    1.900    outmost cutoff radius                                   
   RWIGS  =    2.480; RWIGS  =    1.312    wigner-seitz radius (au A)           
   ENMAX  =  245.345; ENMIN  =  184.009 eV                                      
   ICORE  =        2    local potential                                         
   LCOR   =        T    correct aug charges                                     
   LPAW   =        T    paw PP                                                  
   EAUG   =  322.069                                                            
   DEXC   =    0.000                                                            
   RMAX   =    1.950    core radius for proj-oper                               
   RAUG   =    1.300    factor for augmentation sphere                          
   RDEP   =    1.993    radius for radial grids                                 
   RDEPT  =    1.837    core radius for aug-charge                              
                                                                                
   Atomic configuration                                                         
    6 entries                                                                   
     n  l   j            E        occ.                                          
     1  0  0.50     -1785.8828   2.0000                                         
     2  0  0.50      -139.4969   2.0000                                         
     2  1  1.50       -95.5546   6.0000                                         
     3  0  0.50       -10.8127   2.0000                                         
     3  1  0.50        -4.0811   2.0000                                         
     3  2  1.50        -4.0817   0.0000                                         
   Description                                                                  
     l       E           TYP  RCUT    TYP  RCUT                                 
     0    -10.8127223     23  1.900                                             
     0     -7.6451159     23  1.900                                             
     1     -4.0811372     23  1.900                                             
     1      2.4879257     23  1.900                                             
     2     -4.0817478      7  1.900                                             
  local pseudopotential read in
  partial core-charges read in
  partial kinetic energy density read in
  atomic valenz-charges read in
  non local Contribution for L=           0  read in
    real space projection operators read in
  non local Contribution for L=           0  read in
    real space projection operators read in
  non local Contribution for L=           1  read in
    real space projection operators read in
  non local Contribution for L=           1  read in
    real space projection operators read in
    PAW grid and wavefunctions read in
 
   number of l-projection  operators is LMAX  =           4
   number of lm-projection operators is LMMAX =           8
 

 ----------------------------------------------------------------------------- 
|                                                                             |
|  ADVICE TO THIS USER RUNNING 'VASP/VAMP'   (HEAR YOUR MASTER'S VOICE ...):  |
|                                                                             |
|      You have a (more or less) 'large supercell' and for larger cells       |
|      it might be more efficient to use real space projection opertators     |
|      So try LREAL= Auto  in the INCAR   file.                               |
|      Mind:          For very  accurate calculation you might also keep the  |
|      reciprocal projection scheme          (i.e. LREAL=.FALSE.)             |
|                                                                             |
 ----------------------------------------------------------------------------- 

  PAW_PBE Si 05Jan2001                  :
 energy of atom  1       EATOM= -103.0669
 kinetic energy error for atom=    0.0004 (will be added to EATOM!!)
 
 
 POSCAR: Si55                                    
  positions in direct lattice
  velocities in cartesian coordinates
 exchange correlation table for  LEXCH =        8
   RHO(1)=    0.500       N(1)  =     2000
   RHO(2)=  100.500       N(2)  =     4000
 


--------------------------------------------------------------------------------------------------------


 ion  position               nearest neighbor table
   1  0.292  0.292  0.292-  32 2.35  40 2.35  41 2.35  38 2.35
   2  0.292  0.292  0.625-  33 2.35  41 2.35  42 2.35  39 2.35
   3  0.292  0.292  0.958-  31 2.35  40 2.35  42 2.35  37 2.35
   4  0.292  0.625  0.292-  35 2.35  43 2.35  44 2.35  41 2.35
   5  0.292  0.625  0.625-  36 2.35  55 2.35  44 2.35  45 2.35  42 2.35
   6  0.292  0.625  0.958-  34 2.35  43 2.35  45 2.35  40 2.35
   7  0.292  0.958  0.292-  29 2.35  37 2.35  38 2.35  44 2.35
   8  0.292  0.958  0.625-  30 2.35  38 2.35  39 2.35  45 2.35
   9  0.292  0.958  0.958-  28 2.35  37 2.35  39 2.35  43 2.35
  10  0.625  0.292  0.292-  41 2.35  49 2.35  50 2.35  47 2.35
  11  0.625  0.292  0.625-  42 2.35  55 2.35  50 2.35  51 2.35  48 2.35
  12  0.625  0.292  0.958-  40 2.35  49 2.35  51 2.35  46 2.35
  13  0.625  0.625  0.292-  44 2.35  55 2.35  52 2.35  53 2.35  50 2.35
  14  0.625  0.625  0.625-  45 2.35  55 2.35  53 2.35  54 2.35  51 2.35
  15  0.625  0.625  0.958-  43 2.35  52 2.35  54 2.35  49 2.35
  16  0.625  0.958  0.292-  38 2.35  46 2.35  47 2.35  53 2.35
  17  0.625  0.958  0.625-  39 2.35  47 2.35  48 2.35  54 2.35
  18  0.625  0.958  0.958-  37 2.35  46 2.35  48 2.35  52 2.35
  19  0.958  0.292  0.292-  50 2.35  32 2.35  31 2.35  29 2.35
  20  0.958  0.292  0.625-  51 2.35  33 2.35  32 2.35  30 2.35
  21  0.958  0.292  0.958-  49 2.35  31 2.35  33 2.35  28 2.35
  22  0.958  0.625  0.292-  53 2.35  35 2.35  34 2.35  32 2.35
  23  0.958  0.625  0.625-  54 2.35  36 2.35  35 2.35  33 2.35
  24  0.958  0.625  0.958-  52 2.35  34 2.35  36 2.35  31 2.35
  25  0.958  0.958  0.292-  47 2.35  29 2.35  28 2.35  35 2.35
  26  0.958  0.958  0.625-  48 2.35  30 2.35  29 2.35  36 2.35
  27  0.958  0.958  0.958-  46 2.35  28 2.35  30 2.35  34 2.35
  28  0.042  0.042  0.042-   9 2.35  27 2.35  25 2.35  21 2.35
  29  0.042  0.042  0.375-   7 2.35  25 2.35  26 2.35  19 2.35
  30  0.042  0.042  0.708-   8 2.35  26 2.35  27 2.35  20 2.35
  31  0.042  0.375  0.042-   3 2.35  21 2.35  19 2.35  24 2.35
  32  0.042  0.375  0.375-   1 2.35  19 2.35  20 2.35  22 2.35
  33  0.042  0.375  0.708-   2 2.35  20 2.35  21 2.35  23 2.35
  34  0.042  0.708  0.042-   6 2.35  24 2.35  22 2.35  27 2.35
  35  0.042  0.708  0.375-   4 2.35  22 2.35  23 2.35  25 2.35
  36  0.042  0.708  0.708-   5 2.35  23 2.35  24 2.35  26 2.35
  37  0.375  0.042  0.042-  18 2.35   9 2.35   7 2.35   3 2.35
  38  0.375  0.042  0.375-  16 2.35   8 2.35   7 2.35   1 2.35
  39  0.375  0.042  0.708-  17 2.35   9 2.35   8 2.35   2 2.35
  40  0.375  0.375  0.042-  12 2.35   3 2.35   1 2.35   6 2.35
  41  0.375  0.375  0.375-  10 2.35   2 2.35   1 2.35   4 2.35
  42  0.375  0.375  0.708-  11 2.35   3 2.35   2 2.35   5 2.35  55 2.72
  43  0.375  0.708  0.042-  15 2.35   6 2.35   4 2.35   9 2.35
  44  0.375  0.708  0.375-  13 2.35   5 2.35   4 2.35   7 2.35  55 2.72
  45  0.375  0.708  0.708-  14 2.35   6 2.35   5 2.35   8 2.35  55 2.72
  46  0.708  0.042  0.042-  27 2.35  18 2.35  16 2.35  12 2.35
  47  0.708  0.042  0.375-  25 2.35  17 2.35  16 2.35  10 2.35
  48  0.708  0.042  0.708-  26 2.35  18 2.35  17 2.35  11 2.35
  49  0.708  0.375  0.042-  21 2.35  12 2.35  10 2.35  15 2.35
  50  0.708  0.375  0.375-  19 2.35  11 2.35  10 2.35  13 2.35  55 2.72
  51  0.708  0.375  0.708-  20 2.35  12 2.35  11 2.35  14 2.35  55 2.72
  52  0.708  0.708  0.042-  24 2.35  15 2.35  13 2.35  18 2.35
  53  0.708  0.708  0.375-  22 2.35  14 2.35  13 2.35  16 2.35  55 2.72
  54  0.708  0.708  0.708-  23 2.35  15 2.35  14 2.35  17 2.35
  55  0.542  0.542  0.542-  14 2.35   5 2.35  13 2.35  11 2.35  53 2.72  42 2.72  51 2.72  50 2.72
                            45 2.72  44 2.72
 
  LATTYP: Found a face centered cubic cell.
 ALAT       =    16.2915000202
  
  Lattice vectors:
  
 A1 = (   9.9764655300,   0.0000000000,   5.7599150700)
 A2 = (   3.3254885100,   9.4059019200,   5.7599150700)
 A3 = (   0.0000000000,   0.0000000000,  11.5198301400)


Analysis of symmetry for initial positions (statically):
=====================================================================
 Subroutine PRICEL returns:
 Original cell was already a primitive cell.
 

 Routine SETGRP: Setting up the symmetry group for a 
 face centered cubic supercell.


 Subroutine GETGRP returns: Found 24 space group operations
 (whereof  6 operations were pure point group operations)
 out of a pool of 48 trial point group operations.


The static configuration has the point symmetry C_3v.
 The point group associated with its full space group is T_d .


Analysis of symmetry for dynamics (positions and initial velocities):
=====================================================================
 Subroutine PRICEL returns:
 Original cell was already a primitive cell.
 

 Routine SETGRP: Setting up the symmetry group for a 
 face centered cubic supercell.


 Subroutine GETGRP returns: Found 24 space group operations
 (whereof  6 operations were pure point group operations)
 out of a pool of 48 trial point group operations.


The dynamic configuration has the point symmetry C_3v.
 The point group associated with its full space group is T_d .


 Subroutine INISYM returns: Found 24 space group operations
 (whereof  6 operations are pure point group operations),
 and found     1 'primitive' translations

 
 
 KPOINTS: Automatic kpoint scheme                 

Automatic generation of k-mesh.
Space group operators:
 irot       det(A)        alpha          n_x          n_y          n_z        tau_x        tau_y        tau_z
    1     1.000000     0.000000     1.000000     0.000000     0.000000     0.000000     0.000000     0.000000
    2     1.000000   120.000000    -0.471405    -0.333333    -0.816497     0.000000     0.000000     0.000000
    3     1.000000   120.000000     0.471405     0.333333     0.816497     0.000000     0.000000     0.000000
    4    -1.000000   180.000000     0.288675     0.816497    -0.500000     0.000000     0.000000     0.000000
    5    -1.000000   180.000000     0.577350    -0.816497     0.000000     0.000000     0.000000     0.000000
    6    -1.000000   180.000000     0.866025     0.000000    -0.500000     0.000000     0.000000     0.000000
    7    -1.000000    90.000000    -0.816497    -0.577350    -0.000000     0.166667     0.000000     0.000000
    8    -1.000000   180.000000     0.866025     0.000000     0.500000     0.166667     0.000000     0.000000
    9    -1.000000    90.000000     0.408248    -0.577350     0.707107     0.166667     0.000000     0.000000
   10     1.000000   180.000000     0.816497     0.577350     0.000000     0.000000     0.000000     0.166667
   11     1.000000   120.000000     0.942809    -0.333333     0.000000     0.000000     0.000000     0.166667
   12     1.000000   120.000000    -0.000000    -1.000000    -0.000000     0.000000     0.000000     0.166667
   13    -1.000000    90.000000     0.816497     0.577350    -0.000000     0.000000     0.166667     0.000000
   14    -1.000000    90.000000     0.408248    -0.577350    -0.707107     0.000000     0.166667    -0.000000
   15    -1.000000   180.000000     0.288675     0.816497     0.500000    -0.000000     0.166667     0.000000
   16     1.000000   120.000000    -0.000000     1.000000    -0.000000     0.166667     0.000000     0.000000
   17     1.000000   120.000000     0.471405     0.333333    -0.816497     0.166667     0.000000     0.000000
   18     1.000000   180.000000    -0.408248     0.577350     0.707107     0.166667     0.000000     0.000000
   19    -1.000000    90.000000    -0.408248     0.577350    -0.707107     0.000000     0.000000     0.166667
   20    -1.000000   180.000000     0.000000    -0.000000     1.000000     0.000000     0.000000     0.166667
   21    -1.000000    90.000000    -0.408248     0.577350     0.707107     0.000000     0.000000     0.166667
   22     1.000000   120.000000    -0.942809     0.333333     0.000000    -0.000000     0.166667     0.000000
   23     1.000000   180.000000    -0.408248     0.577350    -0.707107     0.000000     0.166667    -0.000000
   24     1.000000   120.000000    -0.471405    -0.333333     0.816497     0.000000     0.166667    -0.000000
 
 Subroutine IBZKPT returns following result:
 ===========================================
 
 Found      8 irreducible k-points:
 
 Following reciprocal coordinates:
            Coordinates               Weight
  0.000000  0.000000  0.000000      1.000000
  0.250000  0.000000  0.000000      8.000000
  0.500000  0.000000  0.000000      4.000000
  0.250000  0.250000  0.000000      6.000000
  0.500000  0.250000  0.000000     24.000000
 -0.250000  0.250000  0.000000     12.000000
  0.500000  0.500000  0.000000      3.000000
 -0.250000  0.500000  0.250000      6.000000
 
 Following cartesian coordinates:
            Coordinates               Weight
  0.000000  0.000000  0.000000      1.000000
  0.025059 -0.008860  0.000000      8.000000
  0.050118 -0.017719  0.000000      4.000000
  0.025059  0.017719  0.000000      6.000000
  0.050118  0.008860  0.000000     24.000000
 -0.025059  0.035439  0.000000     12.000000
  0.050118  0.035439  0.000000      3.000000
 -0.037588  0.053158  0.021702      6.000000
 


--------------------------------------------------------------------------------------------------------




 Dimension of arrays:
   k-points           NKPTS =      8   k-points in BZ     NKDIM =      8   number of bands    NBANDS=    144
   number of dos      NEDOS =    301   number of ions     NIONS =     55
   non local maximal  LDIM  =      4   non local SUM 2l+1 LMDIM =      8
   total plane-waves  NPLWV = 343000
   max r-space proj   IRMAX =      1   max aug-charges    IRDMAX=  10807
   dimension x,y,z NGX =    70 NGY =   70 NGZ =   70
   dimension x,y,z NGXF=   140 NGYF=  140 NGZF=  140
   support grid    NGXF=   140 NGYF=  140 NGZF=  140
   ions per type =              55
   NGX,Y,Z   is equivalent  to a cutoff of  10.10, 10.10, 10.10 a.u.
   NGXF,Y,Z  is equivalent  to a cutoff of  20.20, 20.20, 20.20 a.u.

 SYSTEM =  Si                                      
 POSCAR =  Si55                                    

 Startparameter for this run:
   NWRITE =      2    write-flag & timer
   PREC   = normal    normal or accurate (medium, high low for compatibility)
   ISTART =      1    job   : 0-new  1-cont  2-samecut
   ICHARG =      0    charge: 1-file 2-atom 10-const
   ISPIN  =      1    spin polarized calculation?
   LNONCOLLINEAR =      F non collinear calculations
   LSORBIT =      F    spin-orbit coupling
   INIWAV =      1    electr: 0-lowe 1-rand  2-diag
   LASPH  =      F    aspherical Exc in radial PAW
   METAGGA=      F    non-selfconsistent MetaGGA calc.

 Electronic Relaxation 1
   ENCUT  =  550.0 eV  40.42 Ry    6.36 a.u.  22.03 22.03 22.03*2*pi/ulx,y,z
   ENINI  =  550.0     initial cutoff
   ENAUG  =  322.1 eV  augmentation charge cutoff
   NELM   =    200;   NELMIN=  2; NELMDL=  0     # of ELM steps 
   EDIFF  = 0.1E-04   stopping-criterion for ELM
   LREAL  =      F    real-space projection
   NLSPLINE    = F    spline interpolate recip. space projectors
   LCOMPAT=      F    compatible to vasp.4.4
   GGA_COMPAT  = T    GGA compatible to vasp.4.4-vasp.4.6
   LMAXPAW     = -100 max onsite density
   LMAXMIX     =    2 max onsite mixed and CHGCAR
   VOSKOWN=      0    Vosko Wilk Nusair interpolation
   ROPT   =    0.00000
 Ionic relaxation
   EDIFFG = -.5E-01   stopping-criterion for IOM
   NSW    =    100    number of steps for IOM
   NBLOCK =      1;   KBLOCK =    100    inner block; outer block 
   IBRION =      2    ionic relax: 0-MD 1-quasi-New 2-CG
   NFREE  =      1    steps in history (QN), initial steepest desc. (CG)
   ISIF   =      2    stress and relaxation
   IWAVPR =     11    prediction:  0-non 1-charg 2-wave 3-comb
   ISYM   =      2    0-nonsym 1-usesym 2-fastsym
   LCORR  =      T    Harris-Foulkes like correction to forces

   POTIM  = 0.5000    time-step for ionic-motion
   TEIN   =    0.0    initial temperature
   TEBEG  =    0.0;   TEEND  =   0.0 temperature during run
   SMASS  =  -3.00    Nose mass-parameter (am)
   estimated Nose-frequenzy (Omega)   =  0.10E-29 period in steps =****** mass=  -0.303E-26a.u.
   SCALEE = 1.0000    scale energy and forces
   NPACO  =    256;   APACO  = 16.0  distance and # of slots for P.C.
   PSTRESS=    0.0 pullay stress

  Mass of Ions in am
   POMASS =  28.09
  Ionic Valenz
   ZVAL   =   4.00
  Atomic Wigner-Seitz radii
   RWIGS  =  -1.00
  virtual crystal weights 
   VCA    =   1.00
   NELECT =     219.0000    total number of electrons
   NUPDOWN=      -1.0000    fix difference up-down

 DOS related values:
   EMIN   =  10.00;   EMAX   =-10.00  energy-range for DOS
   EFERMI =   0.00
   ISMEAR =     0;   SIGMA  =   0.05  broadening in eV -4-tet -1-fermi 0-gaus

 Electronic relaxation 2 (details)
   IALGO  =     38    algorithm
   LDIAG  =      T    sub-space diagonalisation (order eigenvalues)
   LSUBROT=      F    optimize rotation matrix (better conditioning)
   TURBO    =      0    0=normal 1=particle mesh
   IRESTART =      0    0=no restart 2=restart with 2 vectors
   NREBOOT  =      0    no. of reboots
   NMIN     =      0    reboot dimension
   EREF     =   0.00    reference energy to select bands
   IMIX   =      4    mixing-type and parameters
     AMIX     =   0.20;   BMIX     =  1.00
     AMIX_MAG =   0.80;   BMIX_MAG =  1.00
     AMIN     =   0.10
     WC   =   100.;   INIMIX=   1;  MIXPRE=   1;  MAXMIX= -45

 Intra band minimization:
   WEIMIN = 0.0010     energy-eigenvalue tresh-hold
   EBREAK =  0.17E-07  absolut break condition
   DEPER  =   0.30     relativ break condition  

   TIME   =   0.40     timestep for ELM

  volume/ion in A,a.u.               =      19.65       132.63
  Fermi-wavevector in a.u.,A,eV,Ry     =   0.961498  1.816968 12.578297  0.924479
  Thomas-Fermi vector in A             =   2.090875
 
 Write flags
   LWAVE        =      T    write WAVECAR
   LDOWNSAMPLE  =      F    k-point downsampling of WAVECAR
   LCHARG       =      T    write CHGCAR
   LVTOT        =      F    write LOCPOT, total local potential
   LVHAR        =      F    write LOCPOT, Hartree potential only
   LELF         =      F    write electronic localiz. function (ELF)
   LORBIT       =     10    0 simple, 1 ext, 2 COOP (PROOUT), +10 PAW based schemes


 Dipole corrections
   LMONO  =      F    monopole corrections only (constant potential shift)
   LDIPOL =      F    correct potential (dipole corrections)
   IDIPOL =      0    1-x, 2-y, 3-z, 4-all directions 
   EPSILON=  1.0000000 bulk dielectric constant

 Exchange correlation treatment:
   GGA     =    --    GGA type
   LEXCH   =     8    internal setting for exchange type
   VOSKOWN=      0    Vosko Wilk Nusair interpolation
   LHFCALC =     F    Hartree Fock is set to
   LHFONE  =     F    Hartree Fock one center treatment
   AEXX    =    0.0000 exact exchange contribution

 Linear response parameters
   LEPSILON=     F    determine dielectric tensor
   LRPA    =     F    only Hartree local field effects (RPA)
   LNABLA  =     F    use nabla operator in PAW spheres
   LVEL    =     F    velocity operator in full k-point grid
   LINTERFAST=   F  fast interpolation
   KINTER  =     0    interpolate to denser k-point grid
   CSHIFT  =0.1000    complex shift for real part using Kramers Kronig
   OMEGAMAX=  -1.0    maximum frequency
   DEG_THRESHOLD= 0.2000000E-02 threshold for treating states as degnerate
   RTIME   =   -0.100 relaxation time in fs
  (WPLASMAI=    0.000 imaginary part of plasma frequency in eV, 0.658/RTIME)
   DFIELD  = 0.0000000 0.0000000 0.0000000 field for delta impulse in time
 
 Orbital magnetization related:
   ORBITALMAG=     F  switch on orbital magnetization
   LCHIMAG   =     F  perturbation theory with respect to B field
   DQ        =  0.001000  dq finite difference perturbation B field
   LLRAUG    =     F  two centre corrections for induced B field



--------------------------------------------------------------------------------------------------------


 conjugate gradient relaxation of ions
 charge density and potential will be updated during run
 non-spin polarized calculation
 Variant of blocked Davidson
 Davidson routine will perform the subspace rotation
 perform sub-space diagonalisation
    after iterative eigenvector-optimisation
 modified Broyden-mixing scheme, WC =      100.0
 initial mixing is a Kerker type mixing with AMIX =  0.2000 and BMIX =      1.0000
 Hartree-type preconditioning will be used
 using additional bands           34
 reciprocal scheme for non local part
 use partial core corrections
 calculate Harris-corrections to forces 
   (improved forces if not selfconsistent)
 use gradient corrections 
 use of overlap-Matrix (Vanderbilt PP)
 Gauss-broadening in eV      SIGMA  =   0.05


--------------------------------------------------------------------------------------------------------


  energy-cutoff  :      550.00
  volume of cell :     1080.99
      direct lattice vectors                 reciprocal lattice vectors
     9.976465530  0.000000000  5.759915070     0.100235900 -0.035438742  0.000000000
     3.325488510  9.405901920  5.759915070     0.000000000  0.106316227  0.000000000
     0.000000000  0.000000000 11.519830140    -0.050117950 -0.035438742  0.086806836

  length of vectors
    11.519830124 11.519830136 11.519830140     0.106316227  0.106316227  0.106316227


 
 old parameters found on file WAVECAR:
  energy-cutoff  :      550.00
  volume of cell :     1080.99
      direct lattice vectors                 reciprocal lattice vectors
     9.976465530  0.000000000  5.759915070     0.100235900 -0.035438742  0.000000000
     3.325488510  9.405901920  5.759915070     0.000000000  0.106316227  0.000000000
     0.000000000  0.000000000 11.519830140    -0.050117950 -0.035438742  0.086806836

  length of vectors

 
 k-points in units of 2pi/SCALE and weight: Automatic kpoint scheme                 
   0.00000000  0.00000000  0.00000000       0.016
   0.02505897 -0.00885969  0.00000000       0.125
   0.05011795 -0.01771937  0.00000000       0.062
   0.02505897  0.01771937  0.00000000       0.094
   0.05011795  0.00885969  0.00000000       0.375
  -0.02505897  0.03543874  0.00000000       0.188
   0.05011795  0.03543874  0.00000000       0.047
  -0.03758846  0.05315811  0.02170171       0.094
 
 k-points in reciprocal lattice and weights: Automatic kpoint scheme                 
   0.00000000  0.00000000  0.00000000       0.016
   0.25000000  0.00000000  0.00000000       0.125
   0.50000000  0.00000000  0.00000000       0.062
   0.25000000  0.25000000  0.00000000       0.094
   0.50000000  0.25000000  0.00000000       0.375
  -0.25000000  0.25000000  0.00000000       0.188
   0.50000000  0.50000000  0.00000000       0.047
  -0.25000000  0.50000000  0.25000000       0.094
 
 position of ions in fractional coordinates (direct lattice) 
   0.29166667  0.29166667  0.29166667
   0.29166667  0.29166667  0.62500000
   0.29166667  0.29166667  0.95833333
   0.29166667  0.62500000  0.29166667
   0.29166667  0.62500000  0.62500000
   0.29166667  0.62500000  0.95833333
   0.29166667  0.95833333  0.29166667
   0.29166667  0.95833333  0.62500000
   0.29166667  0.95833333  0.95833333
   0.62500000  0.29166667  0.29166667
   0.62500000  0.29166667  0.62500000
   0.62500000  0.29166667  0.95833333
   0.62500000  0.62500000  0.29166667
   0.62500000  0.62500000  0.62500000
   0.62500000  0.62500000  0.95833333
   0.62500000  0.95833333  0.29166667
   0.62500000  0.95833333  0.62500000
   0.62500000  0.95833333  0.95833333
   0.95833333  0.29166667  0.29166667
   0.95833333  0.29166667  0.62500000
   0.95833333  0.29166667  0.95833333
   0.95833333  0.62500000  0.29166667
   0.95833333  0.62500000  0.62500000
   0.95833333  0.62500000  0.95833333
   0.95833333  0.95833333  0.29166667
   0.95833333  0.95833333  0.62500000
   0.95833333  0.95833333  0.95833333
   0.04166667  0.04166667  0.04166667
   0.04166667  0.04166667  0.37500000
   0.04166667  0.04166667  0.70833333
   0.04166667  0.37500000  0.04166667
   0.04166667  0.37500000  0.37500000
   0.04166667  0.37500000  0.70833333
   0.04166667  0.70833333  0.04166667
   0.04166667  0.70833333  0.37500000
   0.04166667  0.70833333  0.70833333
   0.37500000  0.04166667  0.04166667
   0.37500000  0.04166667  0.37500000
   0.37500000  0.04166667  0.70833333
   0.37500000  0.37500000  0.04166667
   0.37500000  0.37500000  0.37500000
   0.37500000  0.37500000  0.70833333
   0.37500000  0.70833333  0.04166667
   0.37500000  0.70833333  0.37500000
   0.37500000  0.70833333  0.70833333
   0.70833333  0.04166667  0.04166667
   0.70833333  0.04166667  0.37500000
   0.70833333  0.04166667  0.70833333
   0.70833333  0.37500000  0.04166667
   0.70833333  0.37500000  0.37500000
   0.70833333  0.37500000  0.70833333
   0.70833333  0.70833333  0.04166667
   0.70833333  0.70833333  0.37500000
   0.70833333  0.70833333  0.70833333
   0.54166667  0.54166667  0.54166667
 
 position of ions in cartesian coordinates  (Angst):
   3.87973659  2.74338806  6.71990091
   3.87973659  2.74338806 10.55984429
   3.87973659  2.74338806 14.39978767
   4.98823276  5.87868870  8.63987260
   4.98823276  5.87868870 12.47981598
   4.98823276  5.87868870 16.31975937
   6.09672893  9.01398934 10.55984429
   6.09672893  9.01398934 14.39978767
   6.09672893  9.01398934 18.23973106
   7.20522510  2.74338806  8.63987260
   7.20522510  2.74338806 12.47981598
   7.20522510  2.74338806 16.31975937
   8.31372128  5.87868870 10.55984429
   8.31372128  5.87868870 14.39978767
   8.31372128  5.87868870 18.23973106
   9.42221745  9.01398934 12.47981598
   9.42221745  9.01398934 16.31975937
   9.42221745  9.01398934 20.15970275
  10.53071362  2.74338806 10.55984429
  10.53071362  2.74338806 14.39978767
  10.53071362  2.74338806 18.23973106
  11.63920979  5.87868870 12.47981598
  11.63920979  5.87868870 16.31975937
  11.63920979  5.87868870 20.15970275
  12.74770596  9.01398934 14.39978767
  12.74770596  9.01398934 18.23973106
  12.74770596  9.01398934 22.07967444
   0.55424808  0.39191258  0.95998584
   0.55424808  0.39191258  4.79992922
   0.55424808  0.39191258  8.63987260
   1.66274425  3.52721322  2.87995753
   1.66274425  3.52721322  6.71990091
   1.66274425  3.52721322 10.55984430
   2.77124042  6.66251386  4.79992922
   2.77124042  6.66251386  8.63987261
   2.77124042  6.66251386 12.47981599
   3.87973659  0.39191258  2.87995753
   3.87973659  0.39191258  6.71990091
   3.87973659  0.39191258 10.55984430
   4.98823277  3.52721322  4.79992922
   4.98823277  3.52721322  8.63987261
   4.98823277  3.52721322 12.47981599
   6.09672894  6.66251386  6.71990091
   6.09672894  6.66251386 10.55984430
   6.09672894  6.66251386 14.39978768
   7.20522511  0.39191258  4.79992922
   7.20522511  0.39191258  8.63987261
   7.20522511  0.39191258 12.47981599
   8.31372128  3.52721322  6.71990091
   8.31372128  3.52721322 10.55984430
   8.31372128  3.52721322 14.39978768
   9.42221745  6.66251386  8.63987260
   9.42221745  6.66251386 12.47981599
   9.42221745  6.66251386 16.31975937
   7.20522511  5.09486354 12.47981599
 


--------------------------------------------------------------------------------------------------------


 k-point  1 :   0.0000 0.0000 0.0000  plane waves:   31415
 k-point  2 :   0.2500 0.0000 0.0000  plane waves:   31608
 k-point  3 :   0.5000 0.0000 0.0000  plane waves:   31638
 k-point  4 :   0.2500 0.2500 0.0000  plane waves:   31695
 k-point  5 :   0.5000 0.2500 0.0000  plane waves:   31649
 k-point  6 :  -0.2500 0.2500 0.0000  plane waves:   31674
 k-point  7 :   0.5000 0.5000 0.0000  plane waves:   31716
 k-point  8 :  -0.2500 0.5000 0.2500  plane waves:   31684

 maximum and minimum number of plane-waves per node :     31716    31415

 maximum number of plane-waves:     31716
 maximum index in each direction: 
   IXMAX=   22   IYMAX=   22   IZMAX=   22
   IXMIN=  -22   IYMIN=  -22   IZMIN=  -22


 serial   3D FFT for wavefunctions
 parallel 3D FFT for charge:
    minimum data exchange during FFTs selected (reduces bandwidth)


 total amount of memory used by VASP MPI-rank0   123928. kBytes
=======================================================================

   base      :      30000. kBytes
   nonl-proj :      44165. kBytes
   fftplans  :       5382. kBytes
   grid      :      19496. kBytes
   one-center:        168. kBytes
   wavefun   :      24717. kBytes
 
     INWAV:  cpu time    9.7899: real time   10.7354
 Broyden mixing: mesh for mixing (old mesh)
   NGX = 45   NGY = 45   NGZ = 45
  (NGX  =140   NGY  =140   NGZ  =140)
  gives a total of  91125 points

 charge density for first step will be calculated from the start-wavefunctions


--------------------------------------------------------------------------------------------------------


 Maximum index for augmentation-charges          503 (set IRDMAX)


--------------------------------------------------------------------------------------------------------


 initial charge from wavefunction
 First call to EWALD:  gamma=   0.173
 Maximum number of real-space cells 3x 3x 3
 Maximum number of reciprocal cells 3x 3x 3

    FEWALD:  cpu time    0.0067: real time    0.0067


--------------------------------------- Iteration      1(   1)  ---------------------------------------


    POTLOK:  cpu time    0.1183: real time    0.1292
    SETDIJ:  cpu time    0.0875: real time    0.0886
     EDDAV:  cpu time    2.8280: real time    2.8573
       DOS:  cpu time    0.0120: real time    0.0132
    CHARGE:  cpu time    0.1663: real time    0.1674
    MIXING:  cpu time    0.0289: real time    0.0296
    --------------------------------------------
      LOOP:  cpu time    3.2410: real time    3.2853

 eigenvalue-minimisations  :  1656
 total energy-change (2. order) :-0.3007278E+03  (-0.8875911E-07)
 number of electron     219.0000000 magnetization 
 augmentation part      -12.6635312 magnetization 

 Broyden mixing:
  rms(total) = 0.11331E-03    rms(broyden)= 0.11331E-03
  rms(prec ) = 0.16605E-03
  weight for this iteration     100.00

 Free energy of the ion-electron system (eV)
  ---------------------------------------------------
  alpha Z        PSCENC =        94.20124788
  Ewald energy   TEWEN  =     -6283.32455330
  -Hartree energ DENC   =      -437.15015708
  -exchange      EXHF   =         0.00000000
  -V(xc)+E(xc)   XCENC  =      -495.21922261
  PAW double counting   =     23968.74294539   -23006.99001280
  entropy T*S    EENTRO =        -0.01340574
  eigenvalues    EBANDS =       190.36957029
  atomic energy  EATOM  =      5668.65580356
  Solvation  Ediel_sol  =         0.00000000
  ---------------------------------------------------
  free energy    TOTEN  =      -300.72778439 eV

  energy without entropy =     -300.71437866  energy(sigma->0) =     -300.72108153


--------------------------------------------------------------------------------------------------------




--------------------------------------- Iteration      1(   2)  ---------------------------------------


    POTLOK:  cpu time    0.0822: real time    0.0831
    SETDIJ:  cpu time    0.1755: real time    0.1774
     EDDAV:  cpu time    3.6434: real time    3.6810
       DOS:  cpu time    0.0521: real time    0.0525
    --------------------------------------------
      LOOP:  cpu time    3.9532: real time    3.9938

 eigenvalue-minimisations  :  1656
 total energy-change (2. order) : 0.2419620E-07  (-0.1867230E-07)
 number of electron     219.0000000 magnetization 
 augmentation part      -12.6635312 magnetization 

 Free energy of the ion-electron system (eV)
  ---------------------------------------------------
  alpha Z        PSCENC =        94.20124788
  Ewald energy   TEWEN  =     -6283.32455330
  -Hartree energ DENC   =      -437.15013436
  -exchange      EXHF   =         0.00000000
  -V(xc)+E(xc)   XCENC  =      -495.21922311
  PAW double counting   =     23968.77344979   -23007.02050719
  entropy T*S    EENTRO =        -0.01340563
  eigenvalues    EBANDS =       190.36953799
  atomic energy  EATOM  =      5668.65580356
  Solvation  Ediel_sol  =         0.00000000
  ---------------------------------------------------
  free energy    TOTEN  =      -300.72778437 eV

  energy without entropy =     -300.71437874  energy(sigma->0) =     -300.72108156


--------------------------------------------------------------------------------------------------------




 average (electrostatic) potential at core
  the test charge radii are     0.9892
  (the norm of the test charge is              1.0000)
       1 -82.9969       2 -83.0835       3 -83.0835       4 -83.0835       5 -83.4661
       6 -83.0835       7 -83.0835       8 -83.0835       9 -82.9346      10 -83.0835
      11 -83.4661      12 -83.0835      13 -83.4661      14 -83.4661      15 -83.0364
      16 -83.0835      17 -83.0364      18 -83.0364      19 -83.0835      20 -83.0835
      21 -82.9346      22 -83.0835      23 -83.0364      24 -83.0364      25 -82.9346
      26 -83.0364      27 -82.9346      28 -82.9135      29 -83.0129      30 -83.0129
      31 -83.0129      32 -82.9876      33 -83.0129      34 -83.0129      35 -83.0129
      36 -83.1583      37 -83.0129      38 -82.9876      39 -83.0129      40 -82.9876
      41 -82.9876      42 -83.3950      43 -83.0129      44 -83.3950      45 -83.3950
      46 -83.0129      47 -83.0129      48 -83.1583      49 -83.0129      50 -83.3950
      51 -83.3950      52 -83.1583      53 -83.3950      54 -83.1583      55 -84.1259
 
 
 
 E-fermi :   6.6311     XC(G=0):  -9.4712     alpha+bet :-12.2011


 k-point     1 :       0.0000    0.0000    0.0000
  band No.  band energies     occupation 
      1      -6.9281      2.00000
      2      -5.5553      2.00000
      3      -4.9375      2.00000
      4      -4.9375      2.00000
      5      -4.9375      2.00000
      6      -4.5353      2.00000
      7      -4.5274      2.00000
      8      -4.5274      2.00000
      9      -4.5274      2.00000
     10      -4.1364      2.00000
     11      -4.1209      2.00000
     12      -4.1209      2.00000
     13      -4.1209      2.00000
     14      -4.0773      2.00000
     15      -4.0773      2.00000
     16      -3.0879      2.00000
     17      -3.0879      2.00000
     18      -3.0879      2.00000
     19      -2.7905      2.00000
     20      -2.7905      2.00000
     21      -2.7638      2.00000
     22      -2.6847      2.00000
     23      -2.6847      2.00000
     24      -2.6847      2.00000
     25      -2.6431      2.00000
     26      -2.6431      2.00000
     27      -2.6431      2.00000
     28      -1.5715      2.00000
     29      -1.0113      2.00000
     30      -1.0113      2.00000
     31      -1.0113      2.00000
     32      -0.9170      2.00000
     33      -0.9170      2.00000
     34      -0.8806      2.00000
     35      -0.8806      2.00000
     36      -0.8806      2.00000
     37      -0.7204      2.00000
     38      -0.7204      2.00000
     39      -0.7204      2.00000
     40      -0.3175      2.00000
     41       0.4810      2.00000
     42       0.4810      2.00000
     43       0.4810      2.00000
     44       0.5774      2.00000
     45       0.5774      2.00000
     46       0.5774      2.00000
     47       0.6289      2.00000
     48       0.8807      2.00000
     49       0.8807      2.00000
     50       0.9020      2.00000
     51       0.9020      2.00000
     52       0.9020      2.00000
     53       0.9442      2.00000
     54       1.0663      2.00000
     55       1.3609      2.00000
     56       1.3609      2.00000
     57       1.3609      2.00000
     58       1.5104      2.00000
     59       1.5104      2.00000
     60       1.5104      2.00000
     61       1.6420      2.00000
     62       1.6420      2.00000
     63       1.6804      2.00000
     64       1.6804      2.00000
     65       1.6804      2.00000
     66       2.8180      2.00000
     67       2.8180      2.00000
     68       2.8180      2.00000
     69       3.4672      2.00000
     70       3.4672      2.00000
     71       3.4672      2.00000
     72       3.5400      2.00000
     73       3.5400      2.00000
     74       3.5400      2.00000
     75       3.6136      2.00000
     76       3.6136      2.00000
     77       3.6136      2.00000
     78       3.6690      2.00000
     79       3.6690      2.00000
     80       3.8504      2.00000
     81       3.8504      2.00000
     82       3.8504      2.00000
     83       3.8728      2.00000
     84       3.8728      2.00000
     85       3.8728      2.00000
     86       3.9087      2.00000
     87       3.9087      2.00000
     88       3.9087      2.00000
     89       3.9377      2.00000
     90       4.3245      2.00000
     91       4.7706      2.00000
     92       4.7706      2.00000
     93       4.7908      2.00000
     94       4.7908      2.00000
     95       4.7908      2.00000
     96       4.9311      2.00000
     97       4.9311      2.00000
     98       4.9311      2.00000
     99       4.9635      2.00000
    100       4.9635      2.00000
    101       4.9635      2.00000
    102       5.0627      2.00000
    103       5.0627      2.00000
    104       5.0627      2.00000
    105       5.0640      2.00000
    106       5.0640      2.00000
    107       5.9453      2.00000
    108       5.9453      2.00000
    109       5.9453      2.00000
    110       6.5613      1.95172
    111       6.5613      1.95172
    112       6.5613      1.95172
    113       6.6736      0.22984
    114       6.6736      0.22983
    115       6.6736      0.22983
    116       6.6838      0.13637
    117       6.6838      0.13637
    118       7.0572      0.00000
    119       7.4293      0.00000
    120       7.4293      0.00000
    121       7.4293      0.00000
    122       7.5461      0.00000
    123       7.5461      0.00000
    124       7.5521      0.00000
    125       7.5521      0.00000
    126       7.5521      0.00000
    127       7.6766      0.00000
    128       7.7258      0.00000
    129       7.7258      0.00000
    130       7.7258      0.00000
    131       7.7458      0.00000
    132       7.7625      0.00000
    133       7.7625      0.00000
    134       7.7625      0.00000
    135       7.9091      0.00000
    136       7.9091      0.00000
    137       7.9091      0.00000
    138       7.9608      0.00000
    139       7.9914      0.00000
    140       7.9914      0.00000
    141       8.3126      0.00000
    142       8.3126      0.00000
    143       8.3126      0.00000
    144       8.9424      0.00000

 k-point     2 :       0.2500    0.0000    0.0000
  band No.  band energies     occupation 
      1      -6.9145      2.00000
      2      -5.5857      2.00000
      3      -5.0826      2.00000
      4      -4.9630      2.00000
      5      -4.9630      2.00000
      6      -4.5815      2.00000
      7      -4.5051      2.00000
      8      -4.5051      2.00000
      9      -4.4680      2.00000
     10      -4.3076      2.00000
     11      -4.3076      2.00000
     12      -4.0696      2.00000
     13      -3.6251      2.00000
     14      -3.6035      2.00000
     15      -3.6035      2.00000
     16      -3.5323      2.00000
     17      -3.3915      2.00000
     18      -3.3915      2.00000
     19      -2.9136      2.00000
     20      -2.9136      2.00000
     21      -2.7516      2.00000
     22      -2.7250      2.00000
     23      -2.7250      2.00000
     24      -2.6378      2.00000
     25      -2.5756      2.00000
     26      -2.4512      2.00000
     27      -2.4512      2.00000
     28      -1.6762      2.00000
     29      -1.2048      2.00000
     30      -1.2048      2.00000
     31      -1.0830      2.00000
     32      -0.9752      2.00000
     33      -0.9752      2.00000
     34      -0.8930      2.00000
     35      -0.8930      2.00000
     36      -0.7610      2.00000
     37      -0.6657      2.00000
     38      -0.4948      2.00000
     39      -0.3836      2.00000
     40      -0.3836      2.00000
     41      -0.0920      2.00000
     42       0.0921      2.00000
     43       0.0921      2.00000
     44       0.1759      2.00000
     45       0.2203      2.00000
     46       0.2203      2.00000
     47       0.5272      2.00000
     48       0.9966      2.00000
     49       0.9966      2.00000
     50       1.1750      2.00000
     51       1.2864      2.00000
     52       1.4303      2.00000
     53       1.4303      2.00000
     54       1.5871      2.00000
     55       1.5871      2.00000
     56       1.6259      2.00000
     57       1.6809      2.00000
     58       1.7467      2.00000
     59       1.7467      2.00000
     60       1.8492      2.00000
     61       1.8492      2.00000
     62       1.9231      2.00000
     63       1.9654      2.00000
     64       1.9654      2.00000
     65       2.0914      2.00000
     66       2.5014      2.00000
     67       2.7085      2.00000
     68       2.7085      2.00000
     69       3.1031      2.00000
     70       3.1031      2.00000
     71       3.3332      2.00000
     72       3.3722      2.00000
     73       3.3862      2.00000
     74       3.3862      2.00000
     75       3.4880      2.00000
     76       3.4880      2.00000
     77       3.5720      2.00000
     78       3.5720      2.00000
     79       3.5930      2.00000
     80       3.6283      2.00000
     81       3.6478      2.00000
     82       3.6874      2.00000
     83       3.6874      2.00000
     84       3.7693      2.00000
     85       3.7693      2.00000
     86       3.8591      2.00000
     87       4.0121      2.00000
     88       4.1110      2.00000
     89       4.1110      2.00000
     90       4.1842      2.00000
     91       4.1842      2.00000
     92       4.2808      2.00000
     93       4.5336      2.00000
     94       4.5392      2.00000
     95       4.5392      2.00000
     96       4.6652      2.00000
     97       4.6652      2.00000
     98       4.6726      2.00000
     99       4.7928      2.00000
    100       4.7928      2.00000
    101       4.8936      2.00000
    102       4.9598      2.00000
    103       4.9598      2.00000
    104       5.0165      2.00000
    105       5.1183      2.00000
    106       5.1932      2.00000
    107       5.1932      2.00000
    108       5.8056      2.00000
    109       5.8056      2.00000
    110       6.5345      1.99370
    111       6.7437      0.00145
    112       6.7437      0.00145
    113       6.8453      0.00000
    114       6.8453      0.00000
    115       6.8918      0.00000
    116       7.1747      0.00000
    117       7.1747      0.00000
    118       7.3474      0.00000
    119       7.4010      0.00000
    120       7.4010      0.00000
    121       7.5400      0.00000
    122       7.6143      0.00000
    123       7.8308      0.00000
    124       7.8308      0.00000
    125       7.9546      0.00000
    126       8.0136      0.00000
    127       8.0136      0.00000
    128       8.0310      0.00000
    129       8.1018      0.00000
    130       8.1018      0.00000
    131       8.1205      0.00000
    132       8.1346      0.00000
    133       8.1672      0.00000
    134       8.1672      0.00000
    135       8.2649      0.00000
    136       8.2658      0.00000
    137       8.2658      0.00000
    138       8.4084      0.00000
    139       8.5202      0.00000
    140       8.5202      0.00000
    141       8.6229      0.00000
    142       8.7289      0.00000
    143       8.7289      0.00000
    144       8.9231      0.00000

 k-point     3 :       0.5000    0.0000    0.0000
  band No.  band energies     occupation 
      1      -6.9002      2.00000
      2      -5.6127      2.00000
      3      -5.2064      2.00000
      4      -4.9742      2.00000
      5      -4.9742      2.00000
      6      -4.6175      2.00000
      7      -4.6175      2.00000
      8      -4.5938      2.00000
      9      -4.2981      2.00000
     10      -4.0585      2.00000
     11      -4.0150      2.00000
     12      -4.0150      2.00000
     13      -3.8469      2.00000
     14      -3.8469      2.00000
     15      -3.6637      2.00000
     16      -3.0884      2.00000
     17      -3.0669      2.00000
     18      -3.0669      2.00000
     19      -3.0668      2.00000
     20      -2.9594      2.00000
     21      -2.9594      2.00000
     22      -2.7988      2.00000
     23      -2.7988      2.00000
     24      -2.6991      2.00000
     25      -2.6956      2.00000
     26      -2.6956      2.00000
     27      -2.6325      2.00000
     28      -1.6878      2.00000
     29      -1.0941      2.00000
     30      -1.0941      2.00000
     31      -1.0160      2.00000
     32      -0.9366      2.00000
     33      -0.9366      2.00000
     34      -0.7993      2.00000
     35      -0.7598      2.00000
     36      -0.7598      2.00000
     37      -0.6394      2.00000
     38      -0.5589      2.00000
     39      -0.5516      2.00000
     40      -0.5516      2.00000
     41      -0.4831      2.00000
     42      -0.0937      2.00000
     43      -0.0937      2.00000
     44      -0.0443      2.00000
     45      -0.0443      2.00000
     46       0.0033      2.00000
     47       0.7296      2.00000
     48       0.9975      2.00000
     49       1.4292      2.00000
     50       1.4292      2.00000
     51       1.4551      2.00000
     52       1.4551      2.00000
     53       1.6387      2.00000
     54       1.7775      2.00000
     55       1.8587      2.00000
     56       1.8587      2.00000
     57       1.8942      2.00000
     58       2.0625      2.00000
     59       2.0625      2.00000
     60       2.1679      2.00000
     61       2.1679      2.00000
     62       2.3055      2.00000
     63       2.3644      2.00000
     64       2.3644      2.00000
     65       2.6452      2.00000
     66       2.6452      2.00000
     67       2.7383      2.00000
     68       2.7979      2.00000
     69       2.7979      2.00000
     70       2.8205      2.00000
     71       3.0240      2.00000
     72       3.0240      2.00000
     73       3.1643      2.00000
     74       3.2056      2.00000
     75       3.2056      2.00000
     76       3.2691      2.00000
     77       3.2773      2.00000
     78       3.2773      2.00000
     79       3.3524      2.00000
     80       3.4551      2.00000
     81       3.4551      2.00000
     82       3.4982      2.00000
     83       3.5139      2.00000
     84       3.5811      2.00000
     85       3.8230      2.00000
     86       3.8712      2.00000
     87       3.8712      2.00000
     88       3.9999      2.00000
     89       3.9999      2.00000
     90       4.0786      2.00000
     91       4.0901      2.00000
     92       4.0901      2.00000
     93       4.1674      2.00000
     94       4.1674      2.00000
     95       4.2040      2.00000
     96       4.2682      2.00000
     97       4.5672      2.00000
     98       4.5672      2.00000
     99       4.6455      2.00000
    100       4.6455      2.00000
    101       4.6957      2.00000
    102       4.7289      2.00000
    103       4.7956      2.00000
    104       4.7956      2.00000
    105       5.1980      2.00000
    106       5.4385      2.00000
    107       5.4385      2.00000
    108       5.5524      2.00000
    109       5.5524      2.00000
    110       6.5329      1.99453
    111       6.7728      0.00006
    112       6.7728      0.00006
    113       7.0041      0.00000
    114       7.0041      0.00000
    115       7.1163      0.00000
    116       7.3526      0.00000
    117       7.5776      0.00000
    118       7.6876      0.00000
    119       7.6876      0.00000
    120       7.8484      0.00000
    121       7.8484      0.00000
    122       7.9308      0.00000
    123       7.9308      0.00000
    124       7.9670      0.00000
    125       8.2104      0.00000
    126       8.3033      0.00000
    127       8.3721      0.00000
    128       8.3981      0.00000
    129       8.3981      0.00000
    130       8.4757      0.00000
    131       8.4757      0.00000
    132       8.4850      0.00000
    133       8.5541      0.00000
    134       8.5541      0.00000
    135       8.6922      0.00000
    136       8.8190      0.00000
    137       8.8190      0.00000
    138       9.0592      0.00000
    139       9.1338      0.00000
    140       9.1455      0.00000
    141       9.1455      0.00000
    142       9.1906      0.00000
    143       9.1908      0.00000
    144       9.3170      0.00000

 k-point     4 :       0.2500    0.2500    0.0000
  band No.  band energies     occupation 
      1      -6.9101      2.00000
      2      -5.5739      2.00000
      3      -5.0773      2.00000
      4      -5.0773      2.00000
      5      -4.9172      2.00000
      6      -4.8304      2.00000
      7      -4.6505      2.00000
      8      -4.3084      2.00000
      9      -4.3084      2.00000
     10      -4.0460      2.00000
     11      -3.9838      2.00000
     12      -3.9828      2.00000
     13      -3.9522      2.00000
     14      -3.9522      2.00000
     15      -3.5811      2.00000
     16      -3.3699      2.00000
     17      -3.3699      2.00000
     18      -3.2426      2.00000
     19      -3.1351      2.00000
     20      -2.9988      2.00000
     21      -2.9657      2.00000
     22      -2.9657      2.00000
     23      -2.9147      2.00000
     24      -2.2803      2.00000
     25      -2.2708      2.00000
     26      -2.2708      2.00000
     27      -2.1941      2.00000
     28      -1.7705      2.00000
     29      -1.3864      2.00000
     30      -1.3864      2.00000
     31      -1.2994      2.00000
     32      -1.2598      2.00000
     33      -0.8934      2.00000
     34      -0.8691      2.00000
     35      -0.8691      2.00000
     36      -0.6343      2.00000
     37      -0.4980      2.00000
     38      -0.3395      2.00000
     39      -0.3395      2.00000
     40      -0.2756      2.00000
     41      -0.2551      2.00000
     42      -0.1788      2.00000
     43      -0.1788      2.00000
     44      -0.1114      2.00000
     45       0.4578      2.00000
     46       0.7198      2.00000
     47       0.7198      2.00000
     48       0.7283      2.00000
     49       0.7658      2.00000
     50       1.3192      2.00000
     51       1.3192      2.00000
     52       1.4205      2.00000
     53       1.5559      2.00000
     54       1.6585      2.00000
     55       1.6585      2.00000
     56       1.7040      2.00000
     57       1.7324      2.00000
     58       1.8023      2.00000
     59       1.8023      2.00000
     60       1.8614      2.00000
     61       1.9522      2.00000
     62       2.0467      2.00000
     63       2.1110      2.00000
     64       2.1110      2.00000
     65       2.3854      2.00000
     66       2.4725      2.00000
     67       2.6722      2.00000
     68       2.6722      2.00000
     69       3.0871      2.00000
     70       3.1401      2.00000
     71       3.1401      2.00000
     72       3.1743      2.00000
     73       3.2284      2.00000
     74       3.2365      2.00000
     75       3.2365      2.00000
     76       3.4437      2.00000
     77       3.4660      2.00000
     78       3.4660      2.00000
     79       3.5798      2.00000
     80       3.7587      2.00000
     81       3.7674      2.00000
     82       3.7674      2.00000
     83       3.7690      2.00000
     84       3.9057      2.00000
     85       3.9057      2.00000
     86       3.9534      2.00000
     87       3.9706      2.00000
     88       4.0670      2.00000
     89       4.1183      2.00000
     90       4.1183      2.00000
     91       4.2074      2.00000
     92       4.2444      2.00000
     93       4.2444      2.00000
     94       4.3499      2.00000
     95       4.4213      2.00000
     96       4.4213      2.00000
     97       4.4363      2.00000
     98       4.5187      2.00000
     99       4.5229      2.00000
    100       4.5229      2.00000
    101       4.5914      2.00000
    102       4.9773      2.00000
    103       5.2370      2.00000
    104       5.2408      2.00000
    105       5.2408      2.00000
    106       5.2816      2.00000
    107       5.3176      2.00000
    108       5.5300      2.00000
    109       5.5300      2.00000
    110       6.5025      1.99973
    111       6.6750      0.21446
    112       6.8807      0.00000
    113       6.8807      0.00000
    114       7.0811      0.00000
    115       7.2412      0.00000
    116       7.2412      0.00000
    117       7.3290      0.00000
    118       7.4039      0.00000
    119       7.5162      0.00000
    120       7.6881      0.00000
    121       7.6881      0.00000
    122       7.6921      0.00000
    123       7.7287      0.00000
    124       7.8482      0.00000
    125       7.9570      0.00000
    126       7.9789      0.00000
    127       7.9789      0.00000
    128       8.0745      0.00000
    129       8.1581      0.00000
    130       8.1581      0.00000
    131       8.2729      0.00000
    132       8.3332      0.00000
    133       8.3919      0.00000
    134       8.3919      0.00000
    135       8.4351      0.00000
    136       8.4666      0.00000
    137       8.5236      0.00000
    138       8.5273      0.00000
    139       8.5618      0.00000
    140       8.5618      0.00000
    141       8.6809      0.00000
    142       8.7463      0.00000
    143       8.7463      0.00000
    144       9.0571      0.00000

 k-point     5 :       0.5000    0.2500    0.0000
  band No.  band energies     occupation 
      1      -6.8961      2.00000
      2      -5.5485      2.00000
      3      -5.3175      2.00000
      4      -5.0922      2.00000
      5      -5.0172      2.00000
      6      -4.6665      2.00000
      7      -4.5853      2.00000
      8      -4.3754      2.00000
      9      -4.2199      2.00000
     10      -4.0576      2.00000
     11      -3.9409      2.00000
     12      -3.9283      2.00000
     13      -3.7800      2.00000
     14      -3.6680      2.00000
     15      -3.5515      2.00000
     16      -3.4191      2.00000
     17      -3.4066      2.00000
     18      -3.3364      2.00000
     19      -3.1943      2.00000
     20      -3.1709      2.00000
     21      -3.0659      2.00000
     22      -3.0285      2.00000
     23      -2.5459      2.00000
     24      -2.5136      2.00000
     25      -2.4212      2.00000
     26      -2.2595      2.00000
     27      -2.2513      2.00000
     28      -1.6768      2.00000
     29      -1.3761      2.00000
     30      -1.3159      2.00000
     31      -1.2965      2.00000
     32      -1.1741      2.00000
     33      -1.0821      2.00000
     34      -0.8854      2.00000
     35      -0.8312      2.00000
     36      -0.8139      2.00000
     37      -0.5475      2.00000
     38      -0.5359      2.00000
     39      -0.4863      2.00000
     40      -0.4262      2.00000
     41      -0.4161      2.00000
     42      -0.1014      2.00000
     43      -0.0965      2.00000
     44       0.0833      2.00000
     45       0.2242      2.00000
     46       0.2688      2.00000
     47       0.7183      2.00000
     48       0.8878      2.00000
     49       0.9404      2.00000
     50       1.1249      2.00000
     51       1.5108      2.00000
     52       1.6829      2.00000
     53       1.8115      2.00000
     54       1.9015      2.00000
     55       1.9710      2.00000
     56       2.0656      2.00000
     57       2.1369      2.00000
     58       2.1583      2.00000
     59       2.2943      2.00000
     60       2.3128      2.00000
     61       2.3756      2.00000
     62       2.4468      2.00000
     63       2.5216      2.00000
     64       2.5596      2.00000
     65       2.5652      2.00000
     66       2.6471      2.00000
     67       2.6697      2.00000
     68       2.7748      2.00000
     69       2.8006      2.00000
     70       2.8372      2.00000
     71       2.9116      2.00000
     72       3.0095      2.00000
     73       3.0096      2.00000
     74       3.0591      2.00000
     75       3.0890      2.00000
     76       3.1454      2.00000
     77       3.2429      2.00000
     78       3.2729      2.00000
     79       3.3017      2.00000
     80       3.3467      2.00000
     81       3.3785      2.00000
     82       3.4326      2.00000
     83       3.5454      2.00000
     84       3.6691      2.00000
     85       3.6698      2.00000
     86       3.7428      2.00000
     87       3.7786      2.00000
     88       3.8258      2.00000
     89       3.9363      2.00000
     90       4.0163      2.00000
     91       4.0344      2.00000
     92       4.0928      2.00000
     93       4.0940      2.00000
     94       4.2357      2.00000
     95       4.2759      2.00000
     96       4.3379      2.00000
     97       4.3761      2.00000
     98       4.4128      2.00000
     99       4.4183      2.00000
    100       4.4749      2.00000
    101       4.5778      2.00000
    102       4.5788      2.00000
    103       4.9521      2.00000
    104       4.9546      2.00000
    105       5.0284      2.00000
    106       5.1680      2.00000
    107       5.3213      2.00000
    108       5.4393      2.00000
    109       5.6050      2.00000
    110       6.6589      0.43131
    111       6.7733      0.00006
    112       7.0500      0.00000
    113       7.1247      0.00000
    114       7.4131      0.00000
    115       7.5341      0.00000
    116       7.5574      0.00000
    117       7.5941      0.00000
    118       7.7313      0.00000
    119       7.7972      0.00000
    120       7.8836      0.00000
    121       8.0084      0.00000
    122       8.0292      0.00000
    123       8.0998      0.00000
    124       8.1757      0.00000
    125       8.2589      0.00000
    126       8.3478      0.00000
    127       8.3886      0.00000
    128       8.4982      0.00000
    129       8.5070      0.00000
    130       8.5712      0.00000
    131       8.5783      0.00000
    132       8.6875      0.00000
    133       8.6880      0.00000
    134       8.7126      0.00000
    135       8.7975      0.00000
    136       8.8643      0.00000
    137       8.9105      0.00000
    138       9.0071      0.00000
    139       9.0103      0.00000
    140       9.0465      0.00000
    141       9.0855      0.00000
    142       9.1334      0.00000
    143       9.1468      0.00000
    144       9.2054      0.00000

 k-point     6 :      -0.2500    0.2500    0.0000
  band No.  band energies     occupation 
      1      -6.9006      2.00000
      2      -5.5674      2.00000
      3      -5.3047      2.00000
      4      -4.9891      2.00000
      5      -4.9620      2.00000
      6      -4.6798      2.00000
      7      -4.5327      2.00000
      8      -4.5078      2.00000
      9      -4.2924      2.00000
     10      -4.1604      2.00000
     11      -4.0406      2.00000
     12      -3.9392      2.00000
     13      -3.8157      2.00000
     14      -3.6989      2.00000
     15      -3.5056      2.00000
     16      -3.4554      2.00000
     17      -3.3113      2.00000
     18      -3.2198      2.00000
     19      -3.0808      2.00000
     20      -3.0053      2.00000
     21      -2.9634      2.00000
     22      -2.8435      2.00000
     23      -2.7921      2.00000
     24      -2.7201      2.00000
     25      -2.5337      2.00000
     26      -2.5121      2.00000
     27      -2.0687      2.00000
     28      -1.7582      2.00000
     29      -1.5145      2.00000
     30      -1.1175      2.00000
     31      -1.0194      2.00000
     32      -0.9624      2.00000
     33      -0.8900      2.00000
     34      -0.8377      2.00000
     35      -0.8218      2.00000
     36      -0.7229      2.00000
     37      -0.6431      2.00000
     38      -0.6427      2.00000
     39      -0.5655      2.00000
     40      -0.5471      2.00000
     41      -0.4916      2.00000
     42      -0.4681      2.00000
     43       0.0567      2.00000
     44       0.3756      2.00000
     45       0.4037      2.00000
     46       0.5682      2.00000
     47       0.5976      2.00000
     48       0.6712      2.00000
     49       0.6891      2.00000
     50       1.0462      2.00000
     51       1.4183      2.00000
     52       1.6143      2.00000
     53       1.7293      2.00000
     54       1.9062      2.00000
     55       1.9242      2.00000
     56       1.9767      2.00000
     57       2.0772      2.00000
     58       2.1089      2.00000
     59       2.1721      2.00000
     60       2.2240      2.00000
     61       2.2525      2.00000
     62       2.3077      2.00000
     63       2.4272      2.00000
     64       2.4283      2.00000
     65       2.5129      2.00000
     66       2.5249      2.00000
     67       2.5778      2.00000
     68       2.6561      2.00000
     69       2.8406      2.00000
     70       2.8615      2.00000
     71       2.9676      2.00000
     72       3.0288      2.00000
     73       3.0536      2.00000
     74       3.0545      2.00000
     75       3.2330      2.00000
     76       3.3306      2.00000
     77       3.3462      2.00000
     78       3.3479      2.00000
     79       3.4256      2.00000
     80       3.4734      2.00000
     81       3.5131      2.00000
     82       3.5662      2.00000
     83       3.5814      2.00000
     84       3.6225      2.00000
     85       3.6586      2.00000
     86       3.7591      2.00000
     87       3.7901      2.00000
     88       3.8913      2.00000
     89       3.9540      2.00000
     90       4.0383      2.00000
     91       4.0729      2.00000
     92       4.1043      2.00000
     93       4.2913      2.00000
     94       4.3362      2.00000
     95       4.3907      2.00000
     96       4.4950      2.00000
     97       4.5071      2.00000
     98       4.5488      2.00000
     99       4.6610      2.00000
    100       4.6673      2.00000
    101       4.7398      2.00000
    102       4.7659      2.00000
    103       4.8524      2.00000
    104       4.9132      2.00000
    105       4.9597      2.00000
    106       5.0188      2.00000
    107       5.0956      2.00000
    108       5.3404      2.00000
    109       5.8363      2.00000
    110       6.6680      0.29670
    111       6.8003      0.00000
    112       7.0743      0.00000
    113       7.1381      0.00000
    114       7.1449      0.00000
    115       7.2495      0.00000
    116       7.3963      0.00000
    117       7.5476      0.00000
    118       7.6527      0.00000
    119       7.7695      0.00000
    120       7.8392      0.00000
    121       7.8410      0.00000
    122       7.8954      0.00000
    123       7.9936      0.00000
    124       8.0181      0.00000
    125       8.1191      0.00000
    126       8.1479      0.00000
    127       8.1803      0.00000
    128       8.3438      0.00000
    129       8.4443      0.00000
    130       8.4758      0.00000
    131       8.4783      0.00000
    132       8.5701      0.00000
    133       8.6160      0.00000
    134       8.6422      0.00000
    135       8.6524      0.00000
    136       8.7202      0.00000
    137       8.7570      0.00000
    138       8.7759      0.00000
    139       8.8863      0.00000
    140       8.9295      0.00000
    141       9.0338      0.00000
    142       9.0707      0.00000
    143       9.1611      0.00000
    144       9.2386      0.00000

 k-point     7 :       0.5000    0.5000    0.0000
  band No.  band energies     occupation 
      1      -6.8919      2.00000
      2      -5.5232      2.00000
      3      -5.2135      2.00000
      4      -5.1626      2.00000
      5      -5.1626      2.00000
      6      -4.9663      2.00000
      7      -4.2233      2.00000
      8      -4.1940      2.00000
      9      -4.1246      2.00000
     10      -4.1246      2.00000
     11      -3.7752      2.00000
     12      -3.6334      2.00000
     13      -3.6334      2.00000
     14      -3.6014      2.00000
     15      -3.5430      2.00000
     16      -3.5214      2.00000
     17      -3.5008      2.00000
     18      -3.5008      2.00000
     19      -3.4599      2.00000
     20      -3.4174      2.00000
     21      -3.4174      2.00000
     22      -3.3937      2.00000
     23      -2.0723      2.00000
     24      -2.0064      2.00000
     25      -1.9580      2.00000
     26      -1.9580      2.00000
     27      -1.9333      2.00000
     28      -1.8019      2.00000
     29      -1.6990      2.00000
     30      -1.6990      2.00000
     31      -1.6902      2.00000
     32      -1.6635      2.00000
     33      -1.3988      2.00000
     34      -0.7550      2.00000
     35      -0.7524      2.00000
     36      -0.7524      2.00000
     37      -0.6239      2.00000
     38      -0.6239      2.00000
     39      -0.5942      2.00000
     40      -0.5667      2.00000
     41       0.1340      2.00000
     42       0.1340      2.00000
     43       0.1490      2.00000
     44       0.1684      2.00000
     45       0.3045      2.00000
     46       0.3765      2.00000
     47       0.3765      2.00000
     48       0.4043      2.00000
     49       0.8020      2.00000
     50       1.3927      2.00000
     51       1.7090      2.00000
     52       1.7090      2.00000
     53       2.1976      2.00000
     54       2.2068      2.00000
     55       2.2634      2.00000
     56       2.2634      2.00000
     57       2.2641      2.00000
     58       2.3021      2.00000
     59       2.3021      2.00000
     60       2.3531      2.00000
     61       2.4167      2.00000
     62       2.4167      2.00000
     63       2.4236      2.00000
     64       2.4538      2.00000
     65       2.4575      2.00000
     66       2.4575      2.00000
     67       2.4768      2.00000
     68       2.4793      2.00000
     69       2.9010      2.00000
     70       2.9010      2.00000
     71       2.9074      2.00000
     72       3.0418      2.00000
     73       3.0992      2.00000
     74       3.1292      2.00000
     75       3.1292      2.00000
     76       3.1402      2.00000
     77       3.2481      2.00000
     78       3.2481      2.00000
     79       3.3783      2.00000
     80       3.3783      2.00000
     81       3.3856      2.00000
     82       3.4981      2.00000
     83       3.6343      2.00000
     84       3.6363      2.00000
     85       3.6363      2.00000
     86       3.6475      2.00000
     87       3.6486      2.00000
     88       3.7655      2.00000
     89       3.7655      2.00000
     90       3.7837      2.00000
     91       3.9373      2.00000
     92       3.9617      2.00000
     93       4.0052      2.00000
     94       4.0236      2.00000
     95       4.0236      2.00000
     96       4.1454      2.00000
     97       4.1950      2.00000
     98       4.1950      2.00000
     99       4.2893      2.00000
    100       4.2918      2.00000
    101       4.7208      2.00000
    102       4.7208      2.00000
    103       4.7775      2.00000
    104       4.7775      2.00000
    105       5.3345      2.00000
    106       5.4034      2.00000
    107       5.4034      2.00000
    108       5.4333      2.00000
    109       5.4714      2.00000
    110       6.4183      2.00000
    111       6.8360      0.00000
    112       7.0083      0.00000
    113       7.1972      0.00000
    114       7.1972      0.00000
    115       7.6396      0.00000
    116       7.7504      0.00000
    117       7.9710      0.00000
    118       8.0589      0.00000
    119       8.0779      0.00000
    120       8.0779      0.00000
    121       8.1806      0.00000
    122       8.2110      0.00000
    123       8.2110      0.00000
    124       8.3099      0.00000
    125       8.3258      0.00000
    126       8.3258      0.00000
    127       8.5153      0.00000
    128       8.6895      0.00000
    129       8.7480      0.00000
    130       8.8087      0.00000
    131       8.8153      0.00000
    132       8.8153      0.00000
    133       8.8273      0.00000
    134       8.8273      0.00000
    135       8.8806      0.00000
    136       8.8809      0.00000
    137       8.9482      0.00000
    138       8.9482      0.00000
    139       8.9895      0.00000
    140       9.0193      0.00000
    141       9.1684      0.00000
    142       9.1684      0.00000
    143       9.2789      0.00000
    144       9.3999      0.00000

 k-point     8 :      -0.2500    0.5000    0.2500
  band No.  band energies     occupation 
      1      -6.8916      2.00000
      2      -5.4360      2.00000
      3      -5.3862      2.00000
      4      -5.3512      2.00000
      5      -4.7585      2.00000
      6      -4.7205      2.00000
      7      -4.6029      2.00000
      8      -4.4725      2.00000
      9      -4.0931      2.00000
     10      -3.9969      2.00000
     11      -3.9707      2.00000
     12      -3.7569      2.00000
     13      -3.6208      2.00000
     14      -3.5560      2.00000
     15      -3.5535      2.00000
     16      -3.5438      2.00000
     17      -3.5213      2.00000
     18      -3.4289      2.00000
     19      -3.3746      2.00000
     20      -3.3607      2.00000
     21      -2.9263      2.00000
     22      -2.8894      2.00000
     23      -2.7328      2.00000
     24      -2.7298      2.00000
     25      -2.0227      2.00000
     26      -1.9446      2.00000
     27      -1.9403      2.00000
     28      -1.9025      2.00000
     29      -1.7283      2.00000
     30      -1.6747      2.00000
     31      -1.4826      2.00000
     32      -1.0087      2.00000
     33      -0.9414      2.00000
     34      -0.9253      2.00000
     35      -0.8326      2.00000
     36      -0.7559      2.00000
     37      -0.7257      2.00000
     38      -0.6100      2.00000
     39      -0.3095      2.00000
     40      -0.2099      2.00000
     41      -0.2072      2.00000
     42      -0.1510      2.00000
     43      -0.0872      2.00000
     44      -0.0595      2.00000
     45      -0.0205      2.00000
     46       0.0088      2.00000
     47       0.8380      2.00000
     48       0.9015      2.00000
     49       1.2335      2.00000
     50       1.2531      2.00000
     51       1.3215      2.00000
     52       1.7426      2.00000
     53       1.8373      2.00000
     54       1.8745      2.00000
     55       2.1017      2.00000
     56       2.1373      2.00000
     57       2.2479      2.00000
     58       2.3141      2.00000
     59       2.4224      2.00000
     60       2.4552      2.00000
     61       2.6084      2.00000
     62       2.6643      2.00000
     63       2.6979      2.00000
     64       2.7030      2.00000
     65       2.7351      2.00000
     66       2.7955      2.00000
     67       2.8270      2.00000
     68       2.8287      2.00000
     69       2.8464      2.00000
     70       2.8713      2.00000
     71       2.8789      2.00000
     72       2.8913      2.00000
     73       2.9141      2.00000
     74       2.9416      2.00000
     75       2.9444      2.00000
     76       2.9471      2.00000
     77       3.1749      2.00000
     78       3.1826      2.00000
     79       3.2511      2.00000
     80       3.2620      2.00000
     81       3.3263      2.00000
     82       3.3310      2.00000
     83       3.3649      2.00000
     84       3.3861      2.00000
     85       3.5248      2.00000
     86       3.6349      2.00000
     87       3.7837      2.00000
     88       3.8132      2.00000
     89       3.8357      2.00000
     90       3.8439      2.00000
     91       3.8482      2.00000
     92       3.8690      2.00000
     93       4.1593      2.00000
     94       4.1962      2.00000
     95       4.2195      2.00000
     96       4.2389      2.00000
     97       4.2694      2.00000
     98       4.3732      2.00000
     99       4.4010      2.00000
    100       4.4011      2.00000
    101       4.6506      2.00000
    102       4.6578      2.00000
    103       4.7202      2.00000
    104       4.7261      2.00000
    105       5.1383      2.00000
    106       5.2173      2.00000
    107       5.2910      2.00000
    108       5.3237      2.00000
    109       5.6102      2.00000
    110       6.7293      0.00547
    111       7.0347      0.00000
    112       7.0846      0.00000
    113       7.2987      0.00000
    114       7.3368      0.00000
    115       7.6010      0.00000
    116       7.6076      0.00000
    117       7.9854      0.00000
    118       8.0291      0.00000
    119       8.1478      0.00000
    120       8.1795      0.00000
    121       8.2269      0.00000
    122       8.2751      0.00000
    123       8.2913      0.00000
    124       8.3001      0.00000
    125       8.3569      0.00000
    126       8.3707      0.00000
    127       8.3744      0.00000
    128       8.4405      0.00000
    129       8.5294      0.00000
    130       8.5726      0.00000
    131       8.5866      0.00000
    132       8.6334      0.00000
    133       8.7418      0.00000
    134       8.8044      0.00000
    135       8.8471      0.00000
    136       8.8740      0.00000
    137       8.9629      0.00000
    138       9.0122      0.00000
    139       9.0442      0.00000
    140       9.0952      0.00000
    141       9.0962      0.00000
    142       9.1547      0.00000
    143       9.1650      0.00000
    144       9.2389      0.00000


--------------------------------------------------------------------------------------------------------


 soft charge-density along one line, spin component           1
         0         1         2         3         4         5         6         7         8         9
 total charge-density along one line
 
 pseudopotential strength for first ion, spin component:           1
 18.381  25.645  -0.000  -0.000  -0.000  -0.000  -0.000  -0.000
 25.645  35.783  -0.000  -0.000  -0.000  -0.000  -0.000  -0.000
 -0.000  -0.000   4.173   0.000   0.000   7.775   0.000   0.000
 -0.000  -0.000   0.000   4.173   0.000   0.000   7.775   0.000
 -0.000  -0.000   0.000   0.000   4.173   0.000   0.000   7.775
 -0.000  -0.000   7.775   0.000   0.000  14.499   0.000   0.000
 -0.000  -0.000   0.000   7.775   0.000   0.000  14.499   0.000
 -0.000  -0.000   0.000   0.000   7.775   0.000   0.000  14.499
 total augmentation occupancy for first ion, spin component:           1
  5.672  -2.144  -0.000   0.000  -0.000  -0.000   0.000   0.000
 -2.144   0.926   0.000  -0.000   0.000  -0.000   0.000  -0.000
 -0.000  -0.000   2.962   0.000  -0.000  -0.668  -0.000   0.000
  0.000   0.000   0.000   2.962   0.000   0.000  -0.668   0.000
  0.000  -0.000  -0.000   0.000   2.962   0.000   0.000  -0.668
 -0.000  -0.000  -0.668   0.000   0.000   0.159  -0.000  -0.000
  0.000  -0.000   0.000  -0.668   0.000  -0.000   0.159   0.000
  0.000  -0.000   0.000   0.000  -0.668  -0.000   0.000   0.159


------------------------ aborting loop because EDIFF is reached ----------------------------------------


 


 total charge     
 
# of ion       s       p       d       tot
------------------------------------------
    1        0.751   0.935   0.000   1.685
    2        0.753   0.931   0.000   1.683
[...]
tot         41.598  51.103   0.000  92.700
 
    CHARGE:  cpu time    0.1595: real time    0.1606
    FORLOC:  cpu time    0.0324: real time    0.0326
    FORNL :  cpu time    1.5627: real time    1.5745
    STRESS:  cpu time    5.6526: real time    5.7003
    FORCOR:  cpu time    0.0998: real time    0.1005
    FORHAR:  cpu time    0.0461: real time    0.0464
    MIXING:  cpu time    0.0052: real time    0.0052
    OFIELD:  cpu time    0.0001: real time    0.0001

  FORCE on cell =-STRESS in cart. coord.  units (eV):
  Direction    XX          YY          ZZ          XY          YZ          ZX
  --------------------------------------------------------------------------------------
  Alpha Z    94.20125    94.20125    94.20125
  Ewald   -2102.16404 -2102.16404 -2102.16404    -0.00000     0.00000     0.00000
  Hartree   139.10134   139.10134   139.10134     0.00000     0.00000     0.00000
  E(xc)    -695.43737  -695.43736  -695.43738    -0.00001    -0.00001    -0.00001
  Local    -800.37912  -800.37922  -800.37871     0.00015     0.00025     0.00036
  n-local  2125.73417  2139.25970  2150.42951    -1.17652    -0.89664     0.63404
  augment  -321.69834  -321.69824  -321.69877    -0.00015    -0.00026    -0.00037
  Kinetic  1529.26982  1556.93318  1584.19350    -1.76385    -1.39428     0.98591
  Fock        0.00000     0.00000     0.00000     0.00000     0.00000     0.00000
  -------------------------------------------------------------------------------------
  Total       8.89701     8.89701     8.89701     0.00000    -0.00000     0.00000
  in kB      13.18656    13.18656    13.18656     0.00000    -0.00000     0.00000
  external pressure =       13.19 kB  Pullay stress =        0.00 kB


 VOLUME and BASIS-vectors are now :
 -----------------------------------------------------------------------------
  energy-cutoff  :      550.00
  volume of cell :     1080.99
      direct lattice vectors                 reciprocal lattice vectors
     9.976465530  0.000000000  5.759915070     0.100235900 -0.035438742  0.000000000
     3.325488510  9.405901920  5.759915070     0.000000000  0.106316227  0.000000000
     0.000000000  0.000000000 11.519830140    -0.050117950 -0.035438742  0.086806836

  length of vectors
    11.519830124 11.519830136 11.519830140     0.106316227  0.106316227  0.106316227


 FORCES acting on ions
    electron-ion (+dipol)            ewald-force                    non-local-force                 convergence-correction
 -----------------------------------------------------------------------------------------------
   -.983E-06 -.696E-06 -.166E-05   0.130E-06 -.688E-07 0.105E-10   0.477E-17 -.347E-17 -.121E-16   0.224E-07 0.159E-07 0.388E-07
   0.313E+01 0.222E+01 0.185E+01   -.336E+01 -.237E+01 -.204E+01   0.241E+00 0.171E+00 0.198E+00   -.136E-02 -.962E-03 0.616E-03
   0.313E+01 0.222E+01 -.185E+01   -.336E+01 -.237E+01 0.204E+01   0.241E+00 0.171E+00 -.198E+00   -.136E-02 -.962E-03 -.616E-03
   0.210E+01 -.702E+00 0.364E+01   -.227E+01 0.707E+00 -.393E+01   0.178E+00 -.882E-02 0.308E+00   -.502E-03 0.147E-02 -.870E-03
   0.266E+02 -.939E+01 -.572E-06   -.270E+02 0.954E+01 0.177E-11   0.386E+00 -.136E+00 -.104E-16   0.662E-04 -.234E-04 -.312E-08
   0.210E+01 -.702E+00 -.364E+01   -.227E+01 0.707E+00 0.393E+01   0.178E+00 -.882E-02 -.308E+00   -.502E-03 0.147E-02 0.870E-03
   0.103E+01 -.373E+01 0.179E+01   -.109E+01 0.404E+01 -.189E+01   0.634E-01 -.332E+00 0.110E+00   -.858E-03 0.458E-03 -.149E-02
   0.103E+01 -.373E+01 -.179E+01   -.109E+01 0.404E+01 0.189E+01   0.634E-01 -.332E+00 -.110E+00   -.858E-03 0.458E-03 0.149E-02
   0.135E+01 -.479E+00 0.903E-06   -.139E+01 0.493E+00 -.116E-10   0.342E-01 -.121E-01 -.226E-16   -.994E-04 0.351E-04 -.492E-08
   0.388E-01 0.222E+01 0.364E+01   -.896E-01 -.237E+01 -.393E+01   0.510E-01 0.171E+00 0.308E+00   0.121E-02 -.962E-03 -.870E-03
   -.285E-06 0.282E+02 -.570E-06   0.753E-07 -.286E+02 0.176E-11   -.347E-17 0.409E+00 0.156E-16   -.176E-08 0.702E-04 -.312E-08
   0.388E-01 0.222E+01 -.364E+01   -.896E-01 -.237E+01 0.393E+01   0.510E-01 0.171E+00 -.308E+00   0.121E-02 -.962E-03 0.870E-03
   -.133E+02 -.939E+01 0.230E+02   0.135E+02 0.954E+01 -.234E+02   -.193E+00 -.136E+00 0.334E+00   -.331E-04 -.234E-04 0.573E-04
   -.133E+02 -.939E+01 -.230E+02   0.135E+02 0.954E+01 0.234E+02   -.193E+00 -.136E+00 -.334E+00   -.331E-04 -.234E-04 -.574E-04
   0.211E+01 0.149E+01 0.626E-06   -.204E+01 -.145E+01 0.799E-11   -.923E-01 -.652E-01 0.295E-16   -.246E-02 -.174E-02 0.103E-06
   -.206E+01 -.373E+01 -.360E-06   0.218E+01 0.404E+01 -.209E-11   -.127E+00 -.332E+00 -.781E-17   0.172E-02 0.458E-03 -.172E-07
   0.105E+01 -.149E+01 0.183E+01   -.102E+01 0.145E+01 -.177E+01   -.461E-01 0.652E-01 -.799E-01   -.123E-02 0.174E-02 -.213E-02
   0.105E+01 -.149E+01 -.183E+01   -.102E+01 0.145E+01 0.177E+01   -.461E-01 0.652E-01 0.799E-01   -.123E-02 0.174E-02 0.213E-02
   -.317E+01 0.222E+01 0.179E+01   0.345E+01 -.237E+01 -.189E+01   -.292E+00 0.171E+00 0.110E+00   0.146E-03 -.962E-03 -.149E-02
   -.317E+01 0.222E+01 -.179E+01   0.345E+01 -.237E+01 0.189E+01   -.292E+00 0.171E+00 -.110E+00   0.146E-03 -.962E-03 0.149E-02
   0.511E-06 0.144E+01 0.897E-06   0.115E-06 -.148E+01 -.116E-10   0.173E-17 0.363E-01 -.104E-16   -.290E-08 -.105E-03 -.490E-08
   -.420E+01 -.702E+00 -.376E-06   0.454E+01 0.707E+00 -.207E-11   -.356E+00 -.882E-02 -.147E-16   0.100E-02 0.147E-02 -.172E-07
   -.105E+01 0.149E+01 0.183E+01   0.102E+01 -.145E+01 -.177E+01   0.461E-01 -.652E-01 -.799E-01   0.123E-02 -.174E-02 -.213E-02
   -.105E+01 0.149E+01 -.183E+01   0.102E+01 -.145E+01 0.177E+01   0.461E-01 -.652E-01 0.799E-01   0.123E-02 -.174E-02 0.213E-02
   -.677E+00 -.479E+00 0.117E+01   0.697E+00 0.493E+00 -.121E+01   -.171E-01 -.121E-01 0.296E-01   0.497E-04 0.351E-04 -.860E-04
   -.211E+01 -.149E+01 0.407E-06   0.204E+01 0.145E+01 0.280E-12   0.923E-01 0.652E-01 0.347E-16   0.246E-02 0.174E-02 -.240E-07
   -.677E+00 -.479E+00 -.117E+01   0.697E+00 0.493E+00 0.121E+01   -.171E-01 -.121E-01 -.296E-01   0.497E-04 0.351E-04 0.860E-04
   0.754E-06 0.348E-06 0.107E-05   -.119E-06 0.629E-07 0.621E-11   -.867E-18 -.347E-17 -.330E-16   -.443E-08 -.304E-08 -.758E-08
   0.444E-01 0.314E-01 0.150E+01   -.398E-01 -.281E-01 -.160E+01   0.281E-02 0.199E-02 0.750E-01   0.311E-04 0.220E-04 -.149E-02
   0.444E-01 0.314E-01 -.150E+01   -.398E-01 -.281E-01 0.160E+01   0.281E-02 0.199E-02 -.750E-01   0.311E-04 0.220E-04 0.149E-02
   0.455E+00 0.119E+01 0.788E+00   -.480E+00 -.127E+01 -.832E+00   0.231E-01 0.593E-01 0.400E-01   -.415E-03 -.124E-02 -.718E-03
   -.286E+01 0.101E+01 -.216E-05   0.301E+01 -.106E+01 0.109E-10   -.143E+00 0.504E-01 -.694E-17   0.252E-02 -.892E-03 -.173E-07
   0.455E+00 0.119E+01 -.788E+00   -.480E+00 -.127E+01 0.832E+00   0.231E-01 0.593E-01 -.400E-01   -.415E-03 -.124E-02 0.718E-03
   -.411E+00 -.126E+01 -.711E+00   0.441E+00 0.133E+01 0.763E+00   -.203E-01 -.633E-01 -.351E-01   0.446E-03 0.119E-02 0.772E-03
   -.411E+00 -.126E+01 0.711E+00   0.441E+00 0.133E+01 -.763E+00   -.203E-01 -.633E-01 0.351E-01   0.446E-03 0.119E-02 -.772E-03
   0.269E+01 -.952E+00 -.354E-06   -.281E+01 0.995E+00 -.685E-11   0.104E+00 -.368E-01 0.867E-18   0.396E-02 -.140E-02 0.366E-07
   0.128E+01 0.314E-01 0.788E+00   -.136E+01 -.281E-01 -.832E+00   0.636E-01 0.199E-02 0.400E-01   -.131E-02 0.220E-04 -.718E-03
   -.113E-05 -.304E+01 -.216E-05   -.120E-06 0.319E+01 0.109E-10   -.325E-17 -.151E+00 -.173E-17   -.992E-08 0.268E-02 -.173E-07
   0.128E+01 0.314E-01 -.788E+00   -.136E+01 -.281E-01 0.832E+00   0.636E-01 0.199E-02 -.400E-01   -.131E-02 0.221E-04 0.718E-03
   0.143E+01 0.101E+01 -.248E+01   -.150E+01 -.106E+01 0.260E+01   0.713E-01 0.504E-01 -.123E+00   -.126E-02 -.892E-03 0.218E-02
   0.143E+01 0.101E+01 0.248E+01   -.150E+01 -.106E+01 -.260E+01   0.713E-01 0.504E-01 0.123E+00   -.126E-02 -.892E-03 -.218E-02
   0.148E+02 0.104E+02 0.148E-05   -.162E+02 -.115E+02 -.604E-11   0.146E+01 0.103E+01 -.694E-17   0.109E-03 0.772E-04 -.418E-07
   0.821E+00 -.126E+01 0.132E-05   -.881E+00 0.133E+01 0.389E-11   0.405E-01 -.633E-01 -.243E-16   -.892E-03 0.119E-02 0.480E-07
   0.738E+01 -.104E+02 0.128E+02   -.810E+01 0.115E+02 -.140E+02   0.728E+00 -.103E+01 0.126E+01   0.546E-04 -.773E-04 0.946E-04
   0.738E+01 -.104E+02 -.128E+02   -.810E+01 0.115E+02 0.140E+02   0.728E+00 -.103E+01 -.126E+01   0.546E-04 -.772E-04 -.946E-04
   -.132E+01 0.314E-01 -.711E+00   0.140E+01 -.281E-01 0.763E+00   -.664E-01 0.199E-02 -.351E-01   0.128E-02 0.220E-04 0.772E-03
   -.132E+01 0.314E-01 0.711E+00   0.140E+01 -.281E-01 -.763E+00   -.664E-01 0.199E-02 0.351E-01   0.128E-02 0.221E-04 -.772E-03
   -.793E-07 0.286E+01 -.359E-06   -.134E-06 -.298E+01 -.683E-11   -.954E-17 0.110E+00 -.347E-17   0.212E-07 0.420E-02 0.366E-07
   -.910E+00 0.119E+01 0.132E-05   0.961E+00 -.127E+01 0.387E-11   -.461E-01 0.593E-01 -.173E-16   0.829E-03 -.124E-02 0.480E-07
   -.738E+01 0.104E+02 0.128E+02   0.810E+01 -.115E+02 -.140E+02   -.728E+00 0.103E+01 0.126E+01   -.546E-04 0.772E-04 0.946E-04
   -.738E+01 0.104E+02 -.128E+02   0.810E+01 -.115E+02 0.140E+02   -.728E+00 0.103E+01 -.126E+01   -.546E-04 0.772E-04 -.946E-04
   -.135E+01 -.952E+00 0.233E+01   0.141E+01 0.995E+00 -.244E+01   -.521E-01 -.368E-01 0.902E-01   -.198E-02 -.140E-02 0.343E-02
   -.148E+02 -.104E+02 -.106E-05   0.162E+02 0.115E+02 -.403E-11   -.146E+01 -.103E+01 -.416E-16   -.109E-03 -.772E-04 -.314E-07
   -.135E+01 -.952E+00 -.233E+01   0.141E+01 0.995E+00 0.244E+01   -.521E-01 -.368E-01 -.902E-01   -.198E-02 -.140E-02 -.343E-02
   0.235E-06 0.412E-06 0.691E-06   0.801E-08 -.425E-08 -.185E-11   0.520E-17 -.694E-17 0.132E-15   -.233E-07 -.166E-07 -.405E-07
 -----------------------------------------------------------------------------------------------
   0.687E-05 -.263E-06 0.631E-05   -.304E-13 -.380E-13 0.213E-13   -.503E-16 -.243E-15 -.895E-15   -.497E-08 -.357E-08 -.870E-08
 
 
 POSITION                                       TOTAL-FORCE (eV/Angst)
 -----------------------------------------------------------------------------------
      3.87974      2.74339      6.71990        -0.000000     -0.000000     -0.000000
      3.86874      2.73561     10.53777         0.016077      0.011368      0.010806
      3.86874      2.73561     14.42186         0.016077      0.011368     -0.010806
      4.97636      5.86845      8.61931         0.011158     -0.002545      0.019326
      4.90039      5.90975     12.47982        -0.031655      0.011192      0.000000
      4.97636      5.86845     16.34032         0.011158     -0.002545     -0.019326
      6.09760      9.03978     10.56136         0.004919     -0.020191      0.008520
      6.09760      9.03978     14.39828         0.004919     -0.020191     -0.008520
      6.09196      9.01567     18.23973        -0.005922      0.002094     -0.000000
      7.19161      2.73561      8.61931         0.001320      0.011368      0.019326
      7.20523      2.65021     12.47982        -0.000000     -0.033575      0.000000
      7.19161      2.73561     16.34032         0.001320      0.011368     -0.019326
      8.35764      5.90975     10.48377         0.015827      0.011192     -0.027414
      8.35764      5.90975     14.47586         0.015827      0.011192      0.027414
      8.29822      5.86773     18.23973        -0.029785     -0.021061     -0.000000
      9.42047      9.03978     12.47982        -0.009838     -0.020191     -0.000000
      9.41447      9.02495     16.30634        -0.014892      0.021061     -0.025794
      9.41447      9.02495     20.17312        -0.014892      0.021061      0.025794
     10.55532      2.73561     10.56136        -0.017397      0.011368      0.008520
     10.55532      2.73561     14.39828        -0.017397      0.011368     -0.008520
     10.53071      2.73833     18.23973        -0.000000     -0.006281     -0.000000
     11.66295      5.86845     12.47982        -0.022316     -0.002545     -0.000000
     11.64696      5.86773     16.30634         0.014892     -0.021061     -0.025794
     11.64696      5.86773     20.17312         0.014892     -0.021061      0.025794
     12.75009      9.01567     14.39566         0.002961      0.002094     -0.005129
     12.76320      9.02495     18.23973         0.029785      0.021061     -0.000000
     12.75009      9.01567     22.08380         0.002961      0.002094      0.005129
      0.55425      0.39191      0.95999        -0.000000     -0.000000     -0.000000
      0.54878      0.38805      4.79409         0.007466      0.005279     -0.022216
      0.54878      0.38805      8.64572         0.007466      0.005279      0.022216
      1.65833      3.52631      2.87230        -0.002680     -0.023418     -0.004642
      1.66878      3.52508      6.71990         0.003545     -0.001253     -0.000000
      1.65833      3.52631     10.56750        -0.002680     -0.023418      0.004642
      2.77020      6.67115      4.79812         0.010146      0.012860      0.017573
      2.77020      6.67115      8.64168         0.010146      0.012860     -0.017573
      2.68825      6.69186     12.47982        -0.012256      0.004333     -0.000000
      3.87741      0.38805      2.87230        -0.022972      0.005279     -0.004642
      3.87974      0.39832      6.71990        -0.000000      0.003760     -0.000000
      3.87741      0.38805     10.56750        -0.022972      0.005279      0.004642
      4.98521      3.52508      4.80516        -0.001772     -0.001253      0.003070
      4.98521      3.52508      8.63464        -0.001772     -0.001253     -0.003070
      4.94955      3.49986     12.47982         0.028360      0.020054     -0.000000
      6.09882      6.67115      6.71990        -0.020292      0.012860     -0.000000
      6.07739      6.68987     10.52635         0.014180     -0.020054      0.024561
      6.07739      6.68987     14.43329         0.014180     -0.020054     -0.024561
      7.21302      0.38805      4.79812         0.015507      0.005279      0.017573
      7.21302      0.38805      8.64168         0.015507      0.005279     -0.017573
      7.20523      0.30389     12.47982        -0.000000     -0.013000     -0.000000
      8.32256      3.52631      6.71990         0.005361     -0.023418     -0.000000
      8.33306      3.49986     10.52635        -0.014180      0.020054      0.024561
      8.33306      3.49986     14.43329        -0.014180      0.020054     -0.024561
      9.46371      6.69186      8.56800         0.006128      0.004333     -0.010614
      9.46090      6.68987     12.47982        -0.028360     -0.020054      0.000000
      9.46371      6.69186     16.39163         0.006128      0.004333      0.010614
      7.20523      5.09486     12.47982        -0.000000     -0.000000     -0.000000
 -----------------------------------------------------------------------------------
    total drift:                                0.000007     -0.000000      0.000006


--------------------------------------------------------------------------------------------------------



  FREE ENERGIE OF THE ION-ELECTRON SYSTEM (eV)
  ---------------------------------------------------
  free  energy   TOTEN  =      -301.15348041 eV

  energy  without entropy=     -301.13567515  energy(sigma->0) =     -301.14457778
 
 d Force = 0.4283349E-02[ 0.286E-02, 0.570E-02]  d Energy = 0.4276569E-02 0.678E-05
 d Force = 0.2466049E+00[ 0.242E+00, 0.251E+00]  d Ewald  = 0.2466068E+00-0.198E-05


--------------------------------------------------------------------------------------------------------


    POTLOK:  cpu time    0.0896: real time    0.0902


--------------------------------------------------------------------------------------------------------


 Conjugate gradient step on ions:
 trial-energy change:   -0.004277  1 .order   -0.004283   -0.005702   -0.002864
  (g-gl).g = 0.516E-02      g.g   = 0.493E-02  gl.gl    = 0.104E+00
 g(Force)  = 0.493E-02   g(Stress)= 0.000E+00 ortho     = 0.638E-03
 gamma     =   0.04959
 trial     =   1.14828
 opt step  =   2.30730  (harmonic =   2.30730) maximal distance =0.00707425
 next E    =  -301.154933   (d E  =  -0.00573)


--------------------------------------------------------------------------------------------------------


  
 reached required accuracy - stopping structural energy minimisation
 writing wavefunctions
     LOOP+:  cpu time   30.1262: real time   30.4501
    4ORBIT:  cpu time    0.0000: real time    0.0000
 


 total charge     
 
# of ion       s       p       d       tot
------------------------------------------
    1        0.751   0.940   0.000   1.692
    2        0.753   0.935   0.000   1.687
    3        0.753   0.935   0.000   1.687
    4        0.753   0.936   0.000   1.689
    5        0.758   0.906   0.000   1.664
    6        0.753   0.936   0.000   1.689
    7        0.753   0.935   0.000   1.688
    8        0.752   0.935   0.000   1.688
    9        0.750   0.941   0.000   1.692
   10        0.754   0.938   0.000   1.692
   11        0.761   0.907   0.000   1.668
   12        0.754   0.938   0.000   1.692
   13        0.762   0.909   0.000   1.671
   14        0.762   0.909   0.000   1.671
   15        0.753   0.947   0.000   1.699
   16        0.754   0.937   0.000   1.691
   17        0.751   0.945   0.000   1.696
   18        0.751   0.945   0.000   1.696
   19        0.751   0.935   0.000   1.686
   20        0.751   0.936   0.000   1.687
   21        0.750   0.942   0.000   1.692
   22        0.752   0.935   0.000   1.687
   23        0.751   0.944   0.000   1.695
   24        0.751   0.944   0.000   1.694
   25        0.751   0.942   0.000   1.692
   26        0.751   0.945   0.000   1.696
   27        0.751   0.942   0.000   1.692
   28        0.750   0.941   0.000   1.691
   29        0.750   0.940   0.000   1.690
   30        0.750   0.940   0.000   1.690
   31        0.750   0.939   0.000   1.688
   32        0.751   0.942   0.000   1.693
   33        0.750   0.939   0.000   1.689
   34        0.750   0.939   0.000   1.689
   35        0.750   0.939   0.000   1.689
   36        0.757   0.938   0.000   1.695
   37        0.751   0.940   0.000   1.691
   38        0.751   0.942   0.000   1.693
   39        0.751   0.940   0.000   1.691
   40        0.751   0.943   0.000   1.693
   41        0.751   0.943   0.000   1.693
   42        0.758   0.905   0.000   1.663
   43        0.752   0.941   0.000   1.693
   44        0.760   0.907   0.000   1.666
   45        0.759   0.907   0.000   1.666
   46        0.751   0.940   0.000   1.691
   47        0.751   0.940   0.000   1.691
   48        0.759   0.938   0.000   1.696
   49        0.752   0.941   0.000   1.693
   50        0.759   0.906   0.000   1.665
   51        0.760   0.906   0.000   1.666
   52        0.761   0.938   0.000   1.698
   53        0.757   0.905   0.000   1.662
   54        0.761   0.938   0.000   1.698
   55        0.913   0.692   0.000   1.605
--------------------------------------------------
tot         41.598  51.103   0.000  92.700
 

 total amount of memory used by VASP MPI-rank0   123928. kBytes
=======================================================================

   base      :      30000. kBytes
   nonl-proj :      44165. kBytes
   fftplans  :       5382. kBytes
   grid      :      19496. kBytes
   one-center:        168. kBytes
   wavefun   :      24717. kBytes
 
  
  
 General timing and accounting informations for this job:
 ========================================================
  
                  Total CPU time used (sec):      214.642
                            User time (sec):      207.887
                          System time (sec):        6.756
                         Elapsed time (sec):      230.921
  
                   Maximum memory used (kb):      415996.
                   Average memory used (kb):           0.
  
                          Minor page faults:        37265
                          Major page faults:            0
                 Voluntary context switches:        10018
