<?xml version="1.0" encoding="ISO-8859-1"?>
<modeling>
 <generator>
  <i name="program" type="string">vasp </i>
  <i name="version" type="string">5.4.4.18Apr17-6-g9f103f2a35  </i>
  <i name="subversion" type="string">(build Jun 19 2019 10:34:07) complex            parallel </i>
  <i name="platform" type="string">LB-5.4 </i>
  <i name="date" type="string">2023 05 15 </i>
  <i name="time" type="string">18:42:40 </i>
 </generator>
 <incar>
  <i type="string" name="SYSTEM"> Si</i>
  <i type="string" name="PREC">normal</i>
  <i type="string" name="ALGO"> Normal</i>
  <i type="int" name="ISPIN">     1</i>
  <i name="AMIX">      0.20000000</i>
  <i type="int" name="NELM">   200</i>
  <i type="int" name="IBRION">     2</i>
  <i name="EDIFF">      0.00001000</i>
  <i name="EDIFFG">     -0.05000000</i>
  <i type="int" name="NSW">   100</i>
  <i type="int" name="ISIF">     2</i>
  <i type="int" name="ISYM">     2</i>
  <i name="ENCUT">    550.00000000</i>
  <i name="NELECT">    219.00000000</i>
  <i type="logical" name="LREAL"> F  </i>
  <i type="int" name="ISMEAR">     0</i>
  <i name="SIGMA">      0.05000000</i>
  <i type="logical" name="LWAVE"> T  </i>
  <i type="logical" name="LCHARG"> T  </i>
  <i type="int" name="LORBIT">    10</i>
  <v type="int" name="KPOINT_BSE">    -1     0     0     0</v>
  <i type="int" name="NELM">   200</i>
 </incar>
 <structure name="primitive_cell" >
  <crystal>
   <varray name="basis" >
    <v>       9.97646553       0.00000000       5.75991507 </v>
    <v>       3.32548851       9.40590192       5.75991507 </v>
    <v>       0.00000000       0.00000000      11.51983014 </v>
   </varray>
   <i name="volume">   1080.99386112 </i>
   <varray name="rec_basis" >
    <v>       0.10023590      -0.03543874       0.00000000 </v>
    <v>       0.00000000       0.10631623       0.00000000 </v>
    <v>      -0.05011795      -0.03543874       0.08680684 </v>
   </varray>
  </crystal>
  <varray name="positions" >
   <v>       0.29166667       0.29166667       0.29166667 </v>
   <v>       0.04166667       0.37500000       0.37500000 </v>
   <v>       0.37500000       0.37500000       0.04166667 </v>
   <v>       0.37500000       0.37500000       0.37500000 </v>
   <v>       0.37500000       0.04166667       0.37500000 </v>
   <v>      -0.04166667       0.29166667       0.29166667 </v>
   <v>      -0.37500000       0.29166667      -0.04166667 </v>
   <v>      -0.04166667       0.29166667      -0.37500000 </v>
   <v>      -0.37500000       0.29166667       0.29166667 </v>
   <v>      -0.37500000      -0.04166667       0.29166667 </v>
   <v>      -0.04166667      -0.37500000       0.29166667 </v>
   <v>       0.29166667      -0.04166667       0.29166667 </v>
   <v>       0.29166667      -0.37500000      -0.04166667 </v>
   <v>       0.29166667      -0.04166667      -0.37500000 </v>
   <v>       0.29166667      -0.37500000       0.29166667 </v>
   <v>       0.29166667       0.29166667      -0.04166667 </v>
   <v>       0.29166667       0.29166667      -0.37500000 </v>
   <v>      -0.29166667       0.37500000       0.04166667 </v>
   <v>       0.04166667       0.04166667       0.37500000 </v>
   <v>      -0.29166667       0.04166667       0.04166667 </v>
   <v>       0.04166667       0.04166667      -0.29166667 </v>
   <v>      -0.29166667       0.04166667       0.37500000 </v>
   <v>       0.37500000      -0.29166667       0.04166667 </v>
   <v>       0.04166667       0.37500000       0.04166667 </v>
   <v>       0.04166667       0.37500000      -0.29166667 </v>
   <v>       0.04166667      -0.29166667       0.04166667 </v>
   <v>       0.04166667      -0.29166667       0.37500000 </v>
   <v>       0.37500000       0.04166667       0.04166667 </v>
   <v>       0.37500000       0.04166667      -0.29166667 </v>
   <v>      -0.04166667      -0.04166667      -0.37500000 </v>
   <v>      -0.37500000      -0.37500000      -0.04166667 </v>
   <v>      -0.37500000      -0.04166667      -0.04166667 </v>
   <v>      -0.04166667      -0.37500000      -0.04166667 </v>
   <v>      -0.37500000      -0.04166667      -0.37500000 </v>
   <v>      -0.04166667      -0.37500000      -0.37500000 </v>
   <v>      -0.29166667       0.37500000       0.37500000 </v>
   <v>      -0.29166667       0.37500000      -0.29166667 </v>
   <v>      -0.29166667      -0.29166667       0.37500000 </v>
   <v>       0.37500000      -0.29166667      -0.29166667 </v>
   <v>       0.37500000      -0.29166667       0.37500000 </v>
   <v>       0.37500000       0.37500000      -0.29166667 </v>
   <v>      -0.37500000       0.29166667      -0.37500000 </v>
   <v>      -0.04166667       0.29166667      -0.04166667 </v>
   <v>      -0.37500000      -0.37500000       0.29166667 </v>
   <v>      -0.04166667      -0.04166667      -0.04166667 </v>
   <v>      -0.37500000      -0.37500000      -0.37500000 </v>
   <v>      -0.04166667      -0.04166667       0.29166667 </v>
   <v>       0.29166667      -0.37500000      -0.37500000 </v>
   <v>       0.29166667      -0.04166667      -0.04166667 </v>
   <v>      -0.45833333      -0.45833333      -0.45833333 </v>
   <v>      -0.29166667       0.04166667      -0.29166667 </v>
   <v>       0.04166667       0.04166667       0.04166667 </v>
   <v>      -0.29166667      -0.29166667      -0.29166667 </v>
   <v>      -0.29166667      -0.29166667       0.04166667 </v>
   <v>       0.04166667      -0.29166667      -0.29166667 </v>
  </varray>
 </structure>
 <varray name="primitive_index" >
  <v type="int" >        1 </v>
  <v type="int" >       32 </v>
  <v type="int" >       40 </v>
  <v type="int" >       41 </v>
  <v type="int" >       38 </v>
  <v type="int" >       19 </v>
  <v type="int" >       12 </v>
  <v type="int" >       20 </v>
  <v type="int" >       10 </v>
  <v type="int" >       16 </v>
  <v type="int" >       22 </v>
  <v type="int" >        7 </v>
  <v type="int" >        6 </v>
  <v type="int" >        8 </v>
  <v type="int" >        4 </v>
  <v type="int" >        3 </v>
  <v type="int" >        2 </v>
  <v type="int" >       49 </v>
  <v type="int" >       29 </v>
  <v type="int" >       46 </v>
  <v type="int" >       30 </v>
  <v type="int" >       47 </v>
  <v type="int" >       43 </v>
  <v type="int" >       31 </v>
  <v type="int" >       33 </v>
  <v type="int" >       34 </v>
  <v type="int" >       35 </v>
  <v type="int" >       37 </v>
  <v type="int" >       39 </v>
  <v type="int" >       26 </v>
  <v type="int" >       15 </v>
  <v type="int" >       18 </v>
  <v type="int" >       24 </v>
  <v type="int" >       17 </v>
  <v type="int" >       23 </v>
  <v type="int" >       50 </v>
  <v type="int" >       51 </v>
  <v type="int" >       53 </v>
  <v type="int" >       45 </v>
  <v type="int" >       44 </v>
  <v type="int" >       42 </v>
  <v type="int" >       11 </v>
  <v type="int" >       21 </v>
  <v type="int" >       13 </v>
  <v type="int" >       27 </v>
  <v type="int" >       14 </v>
  <v type="int" >       25 </v>
  <v type="int" >        5 </v>
  <v type="int" >        9 </v>
  <v type="int" >       55 </v>
  <v type="int" >       48 </v>
  <v type="int" >       28 </v>
  <v type="int" >       54 </v>
  <v type="int" >       52 </v>
  <v type="int" >       36 </v>
 </varray>
 <kpoints>
  <generation param="Gamma">
   <v type="int" name="divisions">       4        4        4 </v>
   <v name="usershift">      0.00000000       0.00000000       0.00000000 </v>
   <v name="genvec1">      0.25000000       0.00000000       0.00000000 </v>
   <v name="genvec2">      0.00000000       0.25000000       0.00000000 </v>
   <v name="genvec3">     -0.00000000      -0.00000000       0.25000000 </v>
   <v name="shift">      0.00000000       0.00000000       0.00000000 </v>
  </generation>
  <varray name="kpointlist" >
   <v>       0.00000000       0.00000000       0.00000000 </v>
   <v>       0.25000000       0.00000000       0.00000000 </v>
   <v>       0.50000000       0.00000000       0.00000000 </v>
   <v>       0.25000000       0.25000000       0.00000000 </v>
   <v>       0.50000000       0.25000000       0.00000000 </v>
   <v>      -0.25000000       0.25000000       0.00000000 </v>
   <v>       0.50000000       0.50000000       0.00000000 </v>
   <v>      -0.25000000       0.50000000       0.25000000 </v>
  </varray>
  <varray name="weights" >
   <v>       0.01562500 </v>
   <v>       0.12500000 </v>
   <v>       0.06250000 </v>
   <v>       0.09375000 </v>
   <v>       0.37500000 </v>
   <v>       0.18750000 </v>
   <v>       0.04687500 </v>
   <v>       0.09375000 </v>
  </varray>
 </kpoints>
 <parameters>
  <separator name="general" >
   <i type="string" name="SYSTEM">Si</i>
   <i type="logical" name="LCOMPAT"> F  </i>
  </separator>
  <separator name="electronic" >
   <i type="string" name="PREC">normal</i>
   <i name="ENMAX">    550.00000000</i>
   <i name="ENAUG">    322.06900000</i>
   <i name="EDIFF">      0.00001000</i>
   <i type="int" name="IALGO">    38</i>
   <i type="int" name="IWAVPR">    11</i>
   <i type="int" name="NBANDS">   144</i>
   <i name="NELECT">    219.00000000</i>
   <i type="int" name="TURBO">     0</i>
   <i type="int" name="IRESTART">     0</i>
   <i type="int" name="NREBOOT">     0</i>
   <i type="int" name="NMIN">     0</i>
   <i name="EREF">      0.00000000</i>
   <separator name="electronic smearing" >
    <i type="int" name="ISMEAR">     0</i>
    <i name="SIGMA">      0.05000000</i>
    <i name="KSPACING">      0.50000000</i>
    <i type="logical" name="KGAMMA"> T  </i>
   </separator>
   <separator name="electronic projectors" >
    <i type="logical" name="LREAL"> F  </i>
    <v name="ROPT">      0.00000000</v>
    <i type="int" name="LMAXPAW">  -100</i>
    <i type="int" name="LMAXMIX">     2</i>
    <i type="logical" name="NLSPLINE"> F  </i>
   </separator>
   <separator name="electronic startup" >
    <i type="int" name="ISTART">     1</i>
    <i type="int" name="ICHARG">     0</i>
    <i type="int" name="INIWAV">     1</i>
   </separator>
   <separator name="electronic spin" >
    <i type="int" name="ISPIN">     1</i>
    <i type="logical" name="LNONCOLLINEAR"> F  </i>
    <v name="MAGMOM">      1.00000000      1.00000000      1.00000000      1.00000000      1.00000000      1.00000000      1.00000000      1.00000000      1.00000000      1.00000000      1.00000000      1.00000000      1.00000000      1.00000000      1.00000000      1.00000000      1.00000000      1.00000000      1.00000000      1.00000000
      1.00000000      1.00000000      1.00000000      1.00000000      1.00000000      1.00000000      1.00000000      1.00000000      1.00000000      1.00000000      1.00000000      1.00000000      1.00000000      1.00000000      1.00000000      1.00000000      1.00000000      1.00000000      1.00000000      1.00000000
      1.00000000      1.00000000      1.00000000      1.00000000      1.00000000      1.00000000      1.00000000      1.00000000      1.00000000      1.00000000      1.00000000      1.00000000      1.00000000      1.00000000      1.00000000</v>
    <i name="NUPDOWN">     -1.00000000</i>
    <i type="logical" name="LSORBIT"> F  </i>
    <v name="SAXIS">      0.00000000      0.00000000      1.00000000</v>
    <i type="logical" name="LSPIRAL"> F  </i>
    <v name="QSPIRAL">      0.00000000      0.00000000      0.00000000</v>
    <i type="logical" name="LZEROZ"> F  </i>
   </separator>
   <separator name="electronic exchange-correlation" >
    <i type="logical" name="LASPH"> F  </i>
    <i type="logical" name="LMETAGGA"> F  </i>
   </separator>
   <separator name="electronic convergence" >
    <i type="int" name="NELM">   200</i>
    <i type="int" name="NELMDL">     0</i>
    <i type="int" name="NELMIN">     2</i>
    <i name="ENINI">    550.00000000</i>
    <separator name="electronic convergence detail" >
     <i type="logical" name="LDIAG"> T  </i>
     <i type="logical" name="LSUBROT"> F  </i>
     <i name="WEIMIN">      0.00100000</i>
     <i name="EBREAK">      0.00000002</i>
     <i name="DEPER">      0.30000000</i>
     <i type="int" name="NRMM">     4</i>
     <i name="TIME">      0.40000000</i>
    </separator>
   </separator>
   <separator name="electronic mixer" >
    <i name="AMIX">      0.20000000</i>
    <i name="BMIX">      1.00000000</i>
    <i name="AMIN">      0.10000000</i>
    <i name="AMIX_MAG">      0.80000000</i>
    <i name="BMIX_MAG">      1.00000000</i>
    <separator name="electronic mixer details" >
     <i type="int" name="IMIX">     4</i>
     <i type="logical" name="MIXFIRST"> F  </i>
     <i type="int" name="MAXMIX">   -45</i>
     <i name="WC">    100.00000000</i>
     <i type="int" name="INIMIX">     1</i>
     <i type="int" name="MIXPRE">     1</i>
     <i type="int" name="MREMOVE">     5</i>
    </separator>
   </separator>
   <separator name="electronic dipolcorrection" >
    <i type="logical" name="LDIPOL"> F  </i>
    <i type="logical" name="LMONO"> F  </i>
    <i type="int" name="IDIPOL">     0</i>
    <i name="EPSILON">      1.00000000</i>
    <v name="DIPOL">   -100.00000000   -100.00000000   -100.00000000</v>
    <i name="EFIELD">      0.00000000</i>
   </separator>
  </separator>
  <separator name="grids" >
   <i type="int" name="NGX">    70</i>
   <i type="int" name="NGY">    70</i>
   <i type="int" name="NGZ">    70</i>
   <i type="int" name="NGXF">   140</i>
   <i type="int" name="NGYF">   140</i>
   <i type="int" name="NGZF">   140</i>
   <i type="logical" name="ADDGRID"> F  </i>
  </separator>
  <separator name="ionic" >
   <i type="int" name="NSW">   100</i>
   <i type="int" name="IBRION">     2</i>
   <i type="int" name="MDALGO">     0</i>
   <i type="int" name="ISIF">     2</i>
   <i name="PSTRESS">      0.00000000</i>
   <i name="EDIFFG">     -0.05000000</i>
   <i type="int" name="NFREE">     1</i>
   <i name="POTIM">      0.50000000</i>
   <i name="SMASS">     -3.00000000</i>
   <i name="SCALEE">      1.00000000</i>
  </separator>
  <separator name="ionic md" >
   <i name="TEBEG">      0.00010000</i>
   <i name="TEEND">      0.00010000</i>
   <i type="int" name="NBLOCK">     1</i>
   <i type="int" name="KBLOCK">   100</i>
   <i type="int" name="NPACO">   256</i>
   <i name="APACO">     16.00000000</i>
  </separator>
  <separator name="symmetry" >
   <i type="int" name="ISYM">     2</i>
   <i name="SYMPREC">      0.00001000</i>
  </separator>
  <separator name="dos" >
   <i type="int" name="LORBIT">    10</i>
   <v name="RWIGS">     -1.00000000</v>
   <i type="int" name="NEDOS">   301</i>
   <i name="EMIN">     10.00000000</i>
   <i name="EMAX">    -10.00000000</i>
   <i name="EFERMI">      0.00000000</i>
  </separator>
  <separator name="writing" >
   <i type="int" name="NWRITE">     2</i>
   <i type="logical" name="LWAVE"> T  </i>
   <i type="logical" name="LDOWNSAMPLE"> F  </i>
   <i type="logical" name="LCHARG"> T  </i>
   <i type="logical" name="LPARD"> F  </i>
   <i type="logical" name="LVTOT"> F  </i>
   <i type="logical" name="LVHAR"> F  </i>
   <i type="logical" name="LELF"> F  </i>
   <i type="logical" name="LOPTICS"> F  </i>
   <v name="STM">      0.00000000      0.00000000      0.00000000      0.00000000      0.00000000      0.00000000      0.00000000</v>
  </separator>
  <separator name="performance" >
   <i type="int" name="NPAR">    24</i>
   <i type="int" name="NSIM">     4</i>
   <i type="int" name="NBLK">    -1</i>
   <i type="logical" name="LPLANE"> T  </i>
   <i type="logical" name="LSCALAPACK"> T  </i>
   <i type="logical" name="LSCAAWARE"> F  </i>
   <i type="logical" name="LSCALU"> F  </i>
   <i type="logical" name="LASYNC"> F  </i>
   <i type="logical" name="LORBITALREAL"> F  </i>
  </separator>
  <separator name="miscellaneous" >
   <i type="int" name="IDIOT">     3</i>
   <i type="int" name="ISPECIAL">     0</i>
   <i type="logical" name="LMUSIC"> F  </i>
   <v name="POMASS">     28.08500000</v>
   <v name="DARWINR">      0.00000000</v>
   <v name="DARWINV">      1.00000000</v>
   <i type="logical" name="LCORR"> T  </i>
  </separator>
  <i type="logical" name="GGA_COMPAT"> T  </i>
  <i type="logical" name="LBERRY"> F  </i>
  <i type="int" name="ICORELEVEL">     0</i>
  <i type="logical" name="LDAU"> F  </i>
  <i type="int" name="I_CONSTRAINED_M">     0</i>
  <separator name="electronic exchange-correlation" >
   <i type="string" name="GGA">--</i>
   <i type="int" name="VOSKOWN">     0</i>
   <i type="logical" name="LHFCALC"> F  </i>
   <i type="string" name="PRECFOCK"></i>
   <i type="logical" name="LSYMGRAD"> F  </i>
   <i type="logical" name="LHFONE"> F  </i>
   <i type="logical" name="LRHFCALC"> F  </i>
   <i type="logical" name="LTHOMAS"> F  </i>
   <i type="logical" name="LMODELHF"> F  </i>
   <i name="ENCUT4O">     -1.00000000</i>
   <i type="int" name="EXXOEP">     0</i>
   <i type="int" name="FOURORBIT">     0</i>
   <i name="AEXX">      0.00000000</i>
   <i name="HFALPHA">      0.00000000</i>
   <i name="MCALPHA">      0.00000000</i>
   <i name="ALDAX">      1.00000000</i>
   <i name="AGGAX">      1.00000000</i>
   <i name="ALDAC">      1.00000000</i>
   <i name="AGGAC">      1.00000000</i>
   <i type="int" name="NKREDX">     1</i>
   <i type="int" name="NKREDY">     1</i>
   <i type="int" name="NKREDZ">     1</i>
   <i type="logical" name="SHIFTRED"> F  </i>
   <i type="logical" name="ODDONLY"> F  </i>
   <i type="logical" name="EVENONLY"> F  </i>
   <i type="int" name="LMAXFOCK">     0</i>
   <i type="int" name="NMAXFOCKAE">     0</i>
   <i type="logical" name="LFOCKAEDFT"> F  </i>
   <i name="HFSCREEN">      0.00000000</i>
   <i name="HFSCREENC">      0.00000000</i>
   <i type="int" name="NBANDSGWLOW">     0</i>
  </separator>
  <separator name="vdW DFT" >
   <i type="logical" name="LUSE_VDW"> F  </i>
   <i name="Zab_VDW">     -0.84910000</i>
   <i name="PARAM1">      0.12340000</i>
   <i name="PARAM2">      1.00000000</i>
   <i name="PARAM3">      0.00000000</i>
  </separator>
  <separator name="model GW" >
   <i type="int" name="MODEL_GW">     0</i>
   <i name="MODEL_EPS0">     11.79266030</i>
   <i name="MODEL_ALPHA">      1.00000000</i>
  </separator>
  <separator name="linear response parameters" >
   <i type="logical" name="LEPSILON"> F  </i>
   <i type="logical" name="LRPA"> F  </i>
   <i type="logical" name="LNABLA"> F  </i>
   <i type="logical" name="LVEL"> F  </i>
   <i type="int" name="KINTER">     0</i>
   <i name="CSHIFT">      0.10000000</i>
   <i name="OMEGAMAX">     -1.00000000</i>
   <i name="DEG_THRESHOLD">      0.00200000</i>
   <i name="RTIME">     -0.10000000</i>
   <i name="WPLASMAI">      0.00000000</i>
   <v name="DFIELD">      0.00000000      0.00000000      0.00000000</v>
   <v name="WPLASMA">      0.00000000      0.00000000      0.00000000      0.00000000      0.00000000      0.00000000      0.00000000      0.00000000      0.00000000</v>
  </separator>
  <separator name="orbital magnetization" >
   <i type="logical" name="NUCIND"> F  </i>
   <v name="MAGPOS">      0.00000000      0.00000000      0.00000000</v>
   <i type="logical" name="LNICSALL"> T  </i>
   <i type="logical" name="ORBITALMAG"> F  </i>
   <i type="logical" name="LMAGBLOCH"> F  </i>
   <i type="logical" name="LCHIMAG"> F  </i>
   <i type="logical" name="LGAUGE"> T  </i>
   <i type="int" name="MAGATOM">     0</i>
   <v name="MAGDIPOL">      0.00000000      0.00000000      0.00000000</v>
   <v name="AVECCONST">      0.00000000      0.00000000      0.00000000</v>
  </separator>
  <separator name="response functions" >
   <i type="logical" name="LADDER"> F  </i>
   <i type="logical" name="LRPAFORCE"> F  </i>
   <i type="logical" name="LFXC"> F  </i>
   <i type="logical" name="LHARTREE"> T  </i>
   <i type="int" name="IBSE">     0</i>
   <v type="int" name="KPOINT">    -1     0     0     0</v>
   <i type="logical" name="LTCTE"> F  </i>
   <i type="logical" name="LTETE"> F  </i>
   <i type="logical" name="LTRIPLET"> F  </i>
   <i type="logical" name="LFXCEPS"> F  </i>
   <i type="logical" name="LFXHEG"> F  </i>
   <i type="int" name="NATURALO">     2</i>
   <i type="logical" name="L2ORDER"> F  </i>
   <i type="logical" name="LMP2LT"> F  </i>
   <i type="logical" name="LUSEW"> F  </i>
   <i name="ENCUTGW">     -2.00000000</i>
   <i name="ENCUTGWSOFT">     -2.00000000</i>
   <i name="ENCUTLF">     -1.00000000</i>
   <i type="int" name="LMAXMP2">    -1</i>
   <i name="SCISSOR">      0.00000000</i>
   <i type="int" name="NOMEGA">     0</i>
   <i type="int" name="NOMEGAR">     0</i>
   <i type="int" name="NBANDSGW">    -1</i>
   <i type="int" name="NBANDSO">    -1</i>
   <i type="int" name="NBANDSV">    -1</i>
   <i type="int" name="NELM">   200</i>
   <i type="int" name="NELMHF">     1</i>
   <i type="int" name="DIM">     3</i>
   <i type="int" name="ANTIRES">     0</i>
   <i name="OMEGAMAX">    -30.00000000</i>
   <i name="OMEGAMIN">    -30.00000000</i>
   <i name="OMEGATL">   -200.00000000</i>
   <i type="int" name="OMEGAGRID">   140</i>
   <i name="CSHIFT">     -0.10000000</i>
   <i type="logical" name="SELFENERGY"> F  </i>
   <i type="logical" name="LSPECTRAL"> F  </i>
   <i type="logical" name="LSPECTRALGW"> F  </i>
   <i type="logical" name="LSINGLES"> F  </i>
   <i type="logical" name="LFERMIGW"> F  </i>
   <i type="logical" name="ODDONLYGW"> F  </i>
   <i type="logical" name="EVENONLYGW"> F  </i>
   <i type="int" name="NKREDLFX">     1</i>
   <i type="int" name="NKREDLFY">     1</i>
   <i type="int" name="NKREDLFZ">     1</i>
   <i type="int" name="MAXMEM">  2800</i>
   <i type="int" name="TELESCOPE">     0</i>
   <i type="int" name="TAUPAR">     1</i>
   <i type="int" name="OMEGAPAR">    -1</i>
   <i name="LAMBDA">      1.00000000</i>
  </separator>
  <separator name="External order field" >
   <i name="OFIELD_KAPPA">      0.00000000</i>
   <v name="OFIELD_K">      0.00000000      0.00000000      0.00000000</v>
   <i name="OFIELD_Q6_NEAR">      0.00000000</i>
   <i name="OFIELD_Q6_FAR">      0.00000000</i>
   <i name="OFIELD_A">      0.00000000</i>
  </separator>
 </parameters>
 <atominfo>
  <atoms>      55 </atoms>
  <types>       1 </types>
  <array name="atoms" >
   <dimension dim="1">ion</dimension>
   <field type="string">element</field>
   <field type="int">atomtype</field>
   <set>
    <rc><c>Si</c><c>   1</c></rc>
    <rc><c>Si</c><c>   1</c></rc>
    <rc><c>Si</c><c>   1</c></rc>
    <rc><c>Si</c><c>   1</c></rc>
    <rc><c>Si</c><c>   1</c></rc>
    <rc><c>Si</c><c>   1</c></rc>
    <rc><c>Si</c><c>   1</c></rc>
    <rc><c>Si</c><c>   1</c></rc>
    <rc><c>Si</c><c>   1</c></rc>
    <rc><c>Si</c><c>   1</c></rc>
    <rc><c>Si</c><c>   1</c></rc>
    <rc><c>Si</c><c>   1</c></rc>
    <rc><c>Si</c><c>   1</c></rc>
    <rc><c>Si</c><c>   1</c></rc>
    <rc><c>Si</c><c>   1</c></rc>
    <rc><c>Si</c><c>   1</c></rc>
    <rc><c>Si</c><c>   1</c></rc>
    <rc><c>Si</c><c>   1</c></rc>
    <rc><c>Si</c><c>   1</c></rc>
    <rc><c>Si</c><c>   1</c></rc>
    <rc><c>Si</c><c>   1</c></rc>
    <rc><c>Si</c><c>   1</c></rc>
    <rc><c>Si</c><c>   1</c></rc>
    <rc><c>Si</c><c>   1</c></rc>
    <rc><c>Si</c><c>   1</c></rc>
    <rc><c>Si</c><c>   1</c></rc>
    <rc><c>Si</c><c>   1</c></rc>
    <rc><c>Si</c><c>   1</c></rc>
    <rc><c>Si</c><c>   1</c></rc>
    <rc><c>Si</c><c>   1</c></rc>
    <rc><c>Si</c><c>   1</c></rc>
    <rc><c>Si</c><c>   1</c></rc>
    <rc><c>Si</c><c>   1</c></rc>
    <rc><c>Si</c><c>   1</c></rc>
    <rc><c>Si</c><c>   1</c></rc>
    <rc><c>Si</c><c>   1</c></rc>
    <rc><c>Si</c><c>   1</c></rc>
    <rc><c>Si</c><c>   1</c></rc>
    <rc><c>Si</c><c>   1</c></rc>
    <rc><c>Si</c><c>   1</c></rc>
    <rc><c>Si</c><c>   1</c></rc>
    <rc><c>Si</c><c>   1</c></rc>
    <rc><c>Si</c><c>   1</c></rc>
    <rc><c>Si</c><c>   1</c></rc>
    <rc><c>Si</c><c>   1</c></rc>
    <rc><c>Si</c><c>   1</c></rc>
    <rc><c>Si</c><c>   1</c></rc>
    <rc><c>Si</c><c>   1</c></rc>
    <rc><c>Si</c><c>   1</c></rc>
    <rc><c>Si</c><c>   1</c></rc>
    <rc><c>Si</c><c>   1</c></rc>
    <rc><c>Si</c><c>   1</c></rc>
    <rc><c>Si</c><c>   1</c></rc>
    <rc><c>Si</c><c>   1</c></rc>
    <rc><c>Si</c><c>   1</c></rc>
   </set>
  </array>
  <array name="atomtypes" >
   <dimension dim="1">type</dimension>
   <field type="int">atomspertype</field>
   <field type="string">element</field>
   <field>mass</field>
   <field>valence</field>
   <field type="string">pseudopotential</field>
   <set>
    <rc><c>  55</c><c>Si</c><c>     28.08500000</c><c>      4.00000000</c><c>  PAW_PBE Si 05Jan2001                  </c></rc>
   </set>
  </array>
 </atominfo>
 <structure name="initialpos" >
  <crystal>
   <varray name="basis" >
    <v>       9.97646553       0.00000000       5.75991507 </v>
    <v>       3.32548851       9.40590192       5.75991507 </v>
    <v>       0.00000000       0.00000000      11.51983014 </v>
   </varray>
   <i name="volume">   1080.99386112 </i>
   <varray name="rec_basis" >
    <v>       0.10023590      -0.03543874       0.00000000 </v>
    <v>       0.00000000       0.10631623       0.00000000 </v>
    <v>      -0.05011795      -0.03543874       0.08680684 </v>
   </varray>
  </crystal>
  <varray name="positions" >
   <v>       0.29166667       0.29166667       0.29166667 </v>
   <v>       0.29166667       0.29166667       0.62500000 </v>
   <v>       0.29166667       0.29166667       0.95833333 </v>
   <v>       0.29166667       0.62500000       0.29166667 </v>
   <v>       0.29166667       0.62500000       0.62500000 </v>
   <v>       0.29166667       0.62500000       0.95833333 </v>
   <v>       0.29166667       0.95833333       0.29166667 </v>
   <v>       0.29166667       0.95833333       0.62500000 </v>
   <v>       0.29166667       0.95833333       0.95833333 </v>
   <v>       0.62500000       0.29166667       0.29166667 </v>
   <v>       0.62500000       0.29166667       0.62500000 </v>
   <v>       0.62500000       0.29166667       0.95833333 </v>
   <v>       0.62500000       0.62500000       0.29166667 </v>
   <v>       0.62500000       0.62500000       0.62500000 </v>
   <v>       0.62500000       0.62500000       0.95833333 </v>
   <v>       0.62500000       0.95833333       0.29166667 </v>
   <v>       0.62500000       0.95833333       0.62500000 </v>
   <v>       0.62500000       0.95833333       0.95833333 </v>
   <v>       0.95833333       0.29166667       0.29166667 </v>
   <v>       0.95833333       0.29166667       0.62500000 </v>
   <v>       0.95833333       0.29166667       0.95833333 </v>
   <v>       0.95833333       0.62500000       0.29166667 </v>
   <v>       0.95833333       0.62500000       0.62500000 </v>
   <v>       0.95833333       0.62500000       0.95833333 </v>
   <v>       0.95833333       0.95833333       0.29166667 </v>
   <v>       0.95833333       0.95833333       0.62500000 </v>
   <v>       0.95833333       0.95833333       0.95833333 </v>
   <v>       0.04166667       0.04166667       0.04166667 </v>
   <v>       0.04166667       0.04166667       0.37500000 </v>
   <v>       0.04166667       0.04166667       0.70833333 </v>
   <v>       0.04166667       0.37500000       0.04166667 </v>
   <v>       0.04166667       0.37500000       0.37500000 </v>
   <v>       0.04166667       0.37500000       0.70833333 </v>
   <v>       0.04166667       0.70833333       0.04166667 </v>
   <v>       0.04166667       0.70833333       0.37500000 </v>
   <v>       0.04166667       0.70833333       0.70833333 </v>
   <v>       0.37500000       0.04166667       0.04166667 </v>
   <v>       0.37500000       0.04166667       0.37500000 </v>
   <v>       0.37500000       0.04166667       0.70833333 </v>
   <v>       0.37500000       0.37500000       0.04166667 </v>
   <v>       0.37500000       0.37500000       0.37500000 </v>
   <v>       0.37500000       0.37500000       0.70833333 </v>
   <v>       0.37500000       0.70833333       0.04166667 </v>
   <v>       0.37500000       0.70833333       0.37500000 </v>
   <v>       0.37500000       0.70833333       0.70833333 </v>
   <v>       0.70833333       0.04166667       0.04166667 </v>
   <v>       0.70833333       0.04166667       0.37500000 </v>
   <v>       0.70833333       0.04166667       0.70833333 </v>
   <v>       0.70833333       0.37500000       0.04166667 </v>
   <v>       0.70833333       0.37500000       0.37500000 </v>
   <v>       0.70833333       0.37500000       0.70833333 </v>
   <v>       0.70833333       0.70833333       0.04166667 </v>
   <v>       0.70833333       0.70833333       0.37500000 </v>
   <v>       0.70833333       0.70833333       0.70833333 </v>
   <v>       0.54166667       0.54166667       0.54166667 </v>
  </varray>
 </structure>
 <calculation>
  <scstep>
   <time name="dav">    2.83    2.86</time>
   <time name="total">    3.24    3.29</time>
   <energy>
    <i name="alphaZ">     94.20124788 </i>
    <i name="ewald">  -6283.32455330 </i>
    <i name="hartreedc">   -437.15015708 </i>
    <i name="XCdc">   -495.21922261 </i>
    <i name="pawpsdc">  23968.74294539 </i>
    <i name="pawaedc"> -23006.99001280 </i>
    <i name="eentropy">     -0.01340574 </i>
    <i name="bandstr">    190.36957029 </i>
    <i name="atom">   5668.65580356 </i>
    <i name="e_fr_energy">   -300.72778439 </i>
    <i name="e_wo_entrp">   -300.71437866 </i>
    <i name="e_0_energy">   -300.72108153 </i>
   </energy>
  </scstep>
  <scstep>
   <time name="dav">    3.64    3.68</time>
   <time name="total">    3.95    3.99</time>
   <energy>
    <i name="alphaZ">     94.20124788 </i>
    <i name="ewald">  -6283.32455330 </i>
    <i name="hartreedc">   -437.15013436 </i>
    <i name="XCdc">   -495.21922311 </i>
    <i name="pawpsdc">  23968.77344979 </i>
    <i name="pawaedc"> -23007.02050719 </i>
    <i name="eentropy">     -0.01340563 </i>
    <i name="bandstr">    190.36953799 </i>
    <i name="atom">   5668.65580356 </i>
    <i name="e_fr_energy">   -300.72778437 </i>
    <i name="e_wo_entrp">   -300.71437874 </i>
    <i name="e_0_energy">   -300.72108156 </i>
   </energy>
  </scstep>
  <structure>
   <crystal>
    <varray name="basis" >
     <v>       9.97646553       0.00000000       5.75991507 </v>
     <v>       3.32548851       9.40590192       5.75991507 </v>
     <v>       0.00000000       0.00000000      11.51983014 </v>
    </varray>
    <i name="volume">   1080.99386112 </i>
    <varray name="rec_basis" >
     <v>       0.10023590      -0.03543874       0.00000000 </v>
     <v>       0.00000000       0.10631623       0.00000000 </v>
     <v>      -0.05011795      -0.03543874       0.08680684 </v>
    </varray>
   </crystal>
   <varray name="positions" >
    <v>       0.29166667       0.29166667       0.29166667 </v>
    <v>       0.29166667       0.29166667       0.62500000 </v>
    <v>       0.29166667       0.29166667       0.95833333 </v>
    <v>       0.29166667       0.62500000       0.29166667 </v>
    <v>       0.29166667       0.62500000       0.62500000 </v>
    <v>       0.29166667       0.62500000       0.95833333 </v>
    <v>       0.29166667       0.95833333       0.29166667 </v>
    <v>       0.29166667       0.95833333       0.62500000 </v>
    <v>       0.29166667       0.95833333       0.95833333 </v>
    <v>       0.62500000       0.29166667       0.29166667 </v>
    <v>       0.62500000       0.29166667       0.62500000 </v>
    <v>       0.62500000       0.29166667       0.95833333 </v>
    <v>       0.62500000       0.62500000       0.29166667 </v>
    <v>       0.62500000       0.62500000       0.62500000 </v>
    <v>       0.62500000       0.62500000       0.95833333 </v>
    <v>       0.62500000       0.95833333       0.29166667 </v>
    <v>       0.62500000       0.95833333       0.62500000 </v>
    <v>       0.62500000       0.95833333       0.95833333 </v>
    <v>       0.95833333       0.29166667       0.29166667 </v>
    <v>       0.95833333       0.29166667       0.62500000 </v>
    <v>       0.95833333       0.29166667       0.95833333 </v>
    <v>       0.95833333       0.62500000       0.29166667 </v>
    <v>       0.95833333       0.62500000       0.62500000 </v>
    <v>       0.95833333       0.62500000       0.95833333 </v>
    <v>       0.95833333       0.95833333       0.29166667 </v>
    <v>       0.95833333       0.95833333       0.62500000 </v>
    <v>       0.95833333       0.95833333       0.95833333 </v>
    <v>       0.04166667       0.04166667       0.04166667 </v>
    <v>       0.04166667       0.04166667       0.37500000 </v>
    <v>       0.04166667       0.04166667       0.70833333 </v>
    <v>       0.04166667       0.37500000       0.04166667 </v>
    <v>       0.04166667       0.37500000       0.37500000 </v>
    <v>       0.04166667       0.37500000       0.70833333 </v>
    <v>       0.04166667       0.70833333       0.04166667 </v>
    <v>       0.04166667       0.70833333       0.37500000 </v>
    <v>       0.04166667       0.70833333       0.70833333 </v>
    <v>       0.37500000       0.04166667       0.04166667 </v>
    <v>       0.37500000       0.04166667       0.37500000 </v>
    <v>       0.37500000       0.04166667       0.70833333 </v>
    <v>       0.37500000       0.37500000       0.04166667 </v>
    <v>       0.37500000       0.37500000       0.37500000 </v>
    <v>       0.37500000       0.37500000       0.70833333 </v>
    <v>       0.37500000       0.70833333       0.04166667 </v>
    <v>       0.37500000       0.70833333       0.37500000 </v>
    <v>       0.37500000       0.70833333       0.70833333 </v>
    <v>       0.70833333       0.04166667       0.04166667 </v>
    <v>       0.70833333       0.04166667       0.37500000 </v>
    <v>       0.70833333       0.04166667       0.70833333 </v>
    <v>       0.70833333       0.37500000       0.04166667 </v>
    <v>       0.70833333       0.37500000       0.37500000 </v>
    <v>       0.70833333       0.37500000       0.70833333 </v>
    <v>       0.70833333       0.70833333       0.04166667 </v>
    <v>       0.70833333       0.70833333       0.37500000 </v>
    <v>       0.70833333       0.70833333       0.70833333 </v>
    <v>       0.54166667       0.54166667       0.54166667 </v>
   </varray>
  </structure>
  <varray name="forces" >
   <v>       0.00000000      -0.00000000      -0.00000000 </v>
   <v>      -0.02632607      -0.01861535      -0.21996300 </v>
   <v>      -0.02632607      -0.01861535       0.21996300 </v>
   <v>      -0.07666089      -0.16098369      -0.13278055 </v>
   <v>      -1.04113564       0.36809704      -0.00000000 </v>
   <v>      -0.07666089      -0.16098369       0.13278055 </v>
   <v>       0.05033481       0.19821438       0.08718245 </v>
   <v>       0.05033481       0.19821438      -0.08718245 </v>
   <v>      -0.02881968       0.01018929      -0.00000000 </v>
   <v>      -0.17733051      -0.01861535      -0.13278055 </v>
   <v>       0.00000000      -1.10429111       0.00000000 </v>
   <v>      -0.17733051      -0.01861535       0.13278055 </v>
   <v>       0.52056782       0.36809704      -0.90164992 </v>
   <v>       0.52056782       0.36809704       0.90164992 </v>
   <v>      -0.13167198      -0.09310615      -0.00000000 </v>
   <v>      -0.10066962       0.19821438      -0.00000000 </v>
   <v>      -0.06583599       0.09310615      -0.11403128 </v>
   <v>      -0.06583599       0.09310615       0.11403128 </v>
   <v>       0.20365658      -0.01861535       0.08718245 </v>
   <v>       0.20365658      -0.01861535      -0.08718245 </v>
   <v>       0.00000000      -0.03056788      -0.00000000 </v>
   <v>       0.15332177      -0.16098369      -0.00000000 </v>
   <v>       0.06583599      -0.09310615      -0.11403128 </v>
   <v>       0.06583599      -0.09310615       0.11403128 </v>
   <v>       0.01440984       0.01018929      -0.02495857 </v>
   <v>       0.13167198       0.09310615      -0.00000000 </v>
   <v>       0.01440984       0.01018929       0.02495857 </v>
   <v>       0.00000000      -0.00000000      -0.00000000 </v>
   <v>      -0.11551522      -0.08168159      -0.01766835 </v>
   <v>      -0.11551522      -0.08168159       0.01766835 </v>
   <v>      -0.06285802       0.06725545      -0.10887329 </v>
   <v>      -0.01931671       0.00682949      -0.00000000 </v>
   <v>      -0.06285802       0.06725545       0.10887329 </v>
   <v>      -0.05265719       0.09610774      -0.09120494 </v>
   <v>      -0.05265719       0.09610774       0.09120494 </v>
   <v>      -0.52215488       0.18460963      -0.00000000 </v>
   <v>       0.04245637      -0.08168159      -0.10887329 </v>
   <v>       0.00000000      -0.02048846      -0.00000000 </v>
   <v>       0.04245637      -0.08168159       0.10887329 </v>
   <v>       0.00965835       0.00682949      -0.01672876 </v>
   <v>       0.00965835       0.00682949       0.01672876 </v>
   <v>      -0.49440504      -0.34959716      -0.00000000 </v>
   <v>       0.10531439       0.09610774      -0.00000000 </v>
   <v>      -0.24720252       0.34959716      -0.42816733 </v>
   <v>      -0.24720252       0.34959716       0.42816733 </v>
   <v>       0.07305885      -0.08168159      -0.09120494 </v>
   <v>       0.07305885      -0.08168159       0.09120494 </v>
   <v>       0.00000000      -0.55382888      -0.00000000 </v>
   <v>       0.12571604       0.06725545      -0.00000000 </v>
   <v>       0.24720252      -0.34959716      -0.42816733 </v>
   <v>       0.24720252      -0.34959716       0.42816733 </v>
   <v>       0.26107744       0.18460963      -0.45219939 </v>
   <v>       0.49440504       0.34959716      -0.00000000 </v>
   <v>       0.26107744       0.18460963       0.45219939 </v>
   <v>       0.00000000      -0.00000000      -0.00000000 </v>
  </varray>
  <varray name="stress" >
   <v>      16.03970371       0.00000000       0.00000000 </v>
   <v>       0.00000000      16.03970376       0.00000000 </v>
   <v>      -0.00000000       0.00000000      16.03970377 </v>
  </varray>
  <energy>
   <i name="e_fr_energy">   -300.72778437 </i>
   <i name="e_wo_entrp">   -300.72108156 </i>
   <i name="e_0_energy">     -0.01340563 </i>
  </energy>
  <time name="totalsc">   20.20   20.44</time>
 </calculation>
 <calculation>
  <scstep>
   <time name="dav">    4.18    4.22</time>
   <time name="total">    4.58    4.63</time>
   <energy>
    <i name="alphaZ">     94.20124788 </i>
    <i name="ewald">  -6296.70450061 </i>
    <i name="hartreedc">   -426.11929247 </i>
    <i name="XCdc">   -495.42493270 </i>
    <i name="pawpsdc">  23968.86182137 </i>
    <i name="pawaedc"> -23007.10886040 </i>
    <i name="eentropy">     -0.01679297 </i>
    <i name="bandstr">    192.64146350 </i>
    <i name="atom">   5668.65580356 </i>
    <i name="e_fr_energy">   -301.01404284 </i>
    <i name="e_wo_entrp">   -300.99724987 </i>
    <i name="e_0_energy">   -301.00564636 </i>
   </energy>
  </scstep>
  <scstep>
   <time name="dav">    3.99    4.11</time>
   <time name="total">    4.31    4.44</time>
   <energy>
    <i name="e_fr_energy">   -301.04077756 </i>
    <i name="e_wo_entrp">   -301.02478305 </i>
    <i name="e_0_energy">   -301.03278031 </i>
   </energy>
  </scstep>
  <scstep>
   <time name="dav">    4.07    4.10</time>
   <time name="total">    4.38    4.42</time>
   <energy>
    <i name="e_fr_energy">   -301.03437402 </i>
    <i name="e_wo_entrp">   -301.01906808 </i>
    <i name="e_0_energy">   -301.02672105 </i>
   </energy>
  </scstep>
  <scstep>
   <time name="dav">    4.02    4.06</time>
   <time name="total">    4.35    4.38</time>
   <energy>
    <i name="e_fr_energy">   -301.03315733 </i>
    <i name="e_wo_entrp">   -301.01813429 </i>
    <i name="e_0_energy">   -301.02564581 </i>
   </energy>
  </scstep>
  <scstep>
   <time name="dav">    4.20    4.24</time>
   <time name="total">    4.46    4.50</time>
   <energy>
    <i name="e_fr_energy">   -301.03288102 </i>
    <i name="e_wo_entrp">   -301.01775680 </i>
    <i name="e_0_energy">   -301.02531891 </i>
   </energy>
  </scstep>
  <scstep>
   <time name="dav">    4.35    4.39</time>
   <time name="total">    4.61    4.65</time>
   <energy>
    <i name="e_fr_energy">   -301.03294470 </i>
    <i name="e_wo_entrp">   -301.01780237 </i>
    <i name="e_0_energy">   -301.02537354 </i>
   </energy>
  </scstep>
  <scstep>
   <time name="dav">    3.95    4.00</time>
   <time name="total">    4.22    4.27</time>
   <energy>
    <i name="e_fr_energy">   -301.03290675 </i>
    <i name="e_wo_entrp">   -301.01773689 </i>
    <i name="e_0_energy">   -301.02532182 </i>
   </energy>
  </scstep>
  <scstep>
   <time name="dav">    3.93    3.96</time>
   <time name="total">    4.19    4.23</time>
   <energy>
    <i name="e_fr_energy">   -301.03289632 </i>
    <i name="e_wo_entrp">   -301.01771956 </i>
    <i name="e_0_energy">   -301.02530794 </i>
   </energy>
  </scstep>
  <scstep>
   <time name="dav">    2.85    2.88</time>
   <time name="total">    2.95    2.97</time>
   <energy>
    <i name="alphaZ">     94.20124788 </i>
    <i name="ewald">  -6296.70450061 </i>
    <i name="hartreedc">   -425.66836154 </i>
    <i name="XCdc">   -495.43364092 </i>
    <i name="pawpsdc">  23858.36730363 </i>
    <i name="pawaedc"> -22896.58207353 </i>
    <i name="eentropy">     -0.01518184 </i>
    <i name="bandstr">    192.14650825 </i>
    <i name="atom">   5668.65580356 </i>
    <i name="e_fr_energy">   -301.03289513 </i>
    <i name="e_wo_entrp">   -301.01771329 </i>
    <i name="e_0_energy">   -301.02530421 </i>
   </energy>
  </scstep>
  <structure>
   <crystal>
    <varray name="basis" >
     <v>       9.97646553       0.00000000       5.75991507 </v>
     <v>       3.32548851       9.40590192       5.75991507 </v>
     <v>       0.00000000       0.00000000      11.51983014 </v>
    </varray>
    <i name="volume">   1080.99386112 </i>
    <varray name="rec_basis" >
     <v>       0.10023590      -0.03543874       0.00000000 </v>
     <v>       0.00000000       0.10631623       0.00000000 </v>
     <v>      -0.05011795      -0.03543874       0.08680684 </v>
    </varray>
   </crystal>
   <varray name="positions" >
    <v>       0.29166667       0.29166667       0.29166667 </v>
    <v>       0.29157119       0.29157119       0.62417432 </v>
    <v>       0.29157119       0.29157119       0.95934997 </v>
    <v>       0.29157119       0.62417432       0.29157119 </v>
    <v>       0.28600278       0.62688796       0.62688796 </v>
    <v>       0.29157119       0.62417432       0.95934997 </v>
    <v>       0.29157119       0.95934997       0.29157119 </v>
    <v>       0.29157119       0.95934997       0.62417432 </v>
    <v>       0.29150988       0.95838559       0.95838559 </v>
    <v>       0.62417432       0.29157119       0.29157119 </v>
    <v>       0.62688796       0.28600278       0.62688796 </v>
    <v>       0.62417432       0.29157119       0.95934997 </v>
    <v>       0.62688796       0.62688796       0.28600278 </v>
    <v>       0.62688796       0.62688796       0.62688796 </v>
    <v>       0.62452246       0.62452246       0.95881087 </v>
    <v>       0.62417432       0.95934997       0.29157119 </v>
    <v>       0.62452246       0.95881087       0.62452246 </v>
    <v>       0.62452246       0.95881087       0.95881087 </v>
    <v>       0.95934997       0.29157119       0.29157119 </v>
    <v>       0.95934997       0.29157119       0.62417432 </v>
    <v>       0.95838559       0.29150988       0.95838559 </v>
    <v>       0.95934997       0.62417432       0.29157119 </v>
    <v>       0.95881087       0.62452246       0.62452246 </v>
    <v>       0.95881087       0.62452246       0.95881087 </v>
    <v>       0.95838559       0.95838559       0.29150988 </v>
    <v>       0.95881087       0.95881087       0.62452246 </v>
    <v>       0.95838559       0.95838559       0.95838559 </v>
    <v>       0.04166667       0.04166667       0.04166667 </v>
    <v>       0.04124772       0.04124772       0.37534495 </v>
    <v>       0.04124772       0.04124772       0.70882627 </v>
    <v>       0.04124772       0.37534495       0.04124772 </v>
    <v>       0.04156158       0.37503503       0.37503503 </v>
    <v>       0.04124772       0.37534495       0.70882627 </v>
    <v>       0.04124772       0.70882627       0.04124772 </v>
    <v>       0.04124772       0.70882627       0.37534495 </v>
    <v>       0.03882609       0.70928019       0.70928019 </v>
    <v>       0.37534495       0.04124772       0.04124772 </v>
    <v>       0.37503503       0.04156158       0.37503503 </v>
    <v>       0.37534495       0.04124772       0.70882627 </v>
    <v>       0.37503503       0.37503503       0.04156158 </v>
    <v>       0.37503503       0.37503503       0.37503503 </v>
    <v>       0.37320692       0.37320692       0.71012641 </v>
    <v>       0.37534495       0.70882627       0.04124772 </v>
    <v>       0.37320692       0.71012641       0.37320692 </v>
    <v>       0.37320692       0.71012641       0.71012641 </v>
    <v>       0.70882627       0.04124772       0.04124772 </v>
    <v>       0.70882627       0.04124772       0.37534495 </v>
    <v>       0.70928019       0.03882609       0.70928019 </v>
    <v>       0.70882627       0.37534495       0.04124772 </v>
    <v>       0.71012641       0.37320692       0.37320692 </v>
    <v>       0.71012641       0.37320692       0.71012641 </v>
    <v>       0.70928019       0.70928019       0.03882609 </v>
    <v>       0.71012641       0.71012641       0.37320692 </v>
    <v>       0.70928019       0.70928019       0.70928019 </v>
    <v>       0.54166667       0.54166667       0.54166667 </v>
   </varray>
  </structure>
  <varray name="forces" >
   <v>      -0.00000000       0.00000000       0.00000000 </v>
   <v>      -0.09540385      -0.06746071      -0.11337471 </v>
   <v>      -0.09540385      -0.06746071       0.11337471 </v>
   <v>      -0.08043039      -0.02510935      -0.13930952 </v>
   <v>      -0.25264665       0.08932408      -0.00000000 </v>
   <v>      -0.08043039      -0.02510935       0.13930952 </v>
   <v>      -0.01497347       0.16003077      -0.02593481 </v>
   <v>      -0.01497347       0.16003077       0.02593481 </v>
   <v>      -0.02741071       0.00969115       0.00000000 </v>
   <v>      -0.05048345      -0.06746071      -0.13930952 </v>
   <v>       0.00000000      -0.26797224      -0.00000000 </v>
   <v>      -0.05048345      -0.06746071       0.13930952 </v>
   <v>       0.12632332       0.08932408      -0.21879841 </v>
   <v>       0.12632332       0.08932408       0.21879841 </v>
   <v>      -0.04989751      -0.03528287       0.00000000 </v>
   <v>       0.02994693       0.16003077       0.00000000 </v>
   <v>      -0.02494875       0.03528287      -0.04321251 </v>
   <v>      -0.02494875       0.03528287       0.04321251 </v>
   <v>       0.14588730      -0.06746071      -0.02593481 </v>
   <v>       0.14588730      -0.06746071       0.02593481 </v>
   <v>      -0.00000000      -0.02907344       0.00000000 </v>
   <v>       0.16086077      -0.02510935       0.00000000 </v>
   <v>       0.02494875      -0.03528287      -0.04321251 </v>
   <v>       0.02494875      -0.03528287       0.04321251 </v>
   <v>       0.01370535       0.00969115      -0.02373837 </v>
   <v>       0.04989751       0.03528287       0.00000000 </v>
   <v>       0.01370535       0.00969115       0.02373837 </v>
   <v>      -0.00000000       0.00000000       0.00000000 </v>
   <v>       0.00309452       0.00218816      -0.02898824 </v>
   <v>       0.00309452       0.00218816       0.02898824 </v>
   <v>      -0.00682092      -0.02585695      -0.01181418 </v>
   <v>       0.04478840      -0.01583509       0.00000000 </v>
   <v>      -0.00682092      -0.02585695       0.01181418 </v>
   <v>       0.00991544       0.02148064       0.01717405 </v>
   <v>       0.00991544       0.02148064      -0.01717405 </v>
   <v>      -0.53428796       0.18889932       0.00000000 </v>
   <v>      -0.02665181       0.00218816      -0.01181418 </v>
   <v>      -0.00000000       0.04750527       0.00000000 </v>
   <v>      -0.02665181       0.00218816       0.01181418 </v>
   <v>      -0.02239420      -0.01583509       0.03878789 </v>
   <v>      -0.02239420      -0.01583509      -0.03878789 </v>
   <v>      -0.13438601      -0.09502526       0.00000000 </v>
   <v>      -0.01983089       0.02148064       0.00000000 </v>
   <v>      -0.06719300       0.09502526      -0.11638170 </v>
   <v>      -0.06719300       0.09502526       0.11638170 </v>
   <v>       0.02355729       0.00218816       0.01717405 </v>
   <v>       0.02355729       0.00218816      -0.01717405 </v>
   <v>      -0.00000000      -0.56669796       0.00000000 </v>
   <v>       0.01364184      -0.02585695       0.00000000 </v>
   <v>       0.06719300      -0.09502526      -0.11638170 </v>
   <v>       0.06719300      -0.09502526       0.11638170 </v>
   <v>       0.26714398       0.18889932      -0.46270695 </v>
   <v>       0.13438601       0.09502526      -0.00000000 </v>
   <v>       0.26714398       0.18889932       0.46270695 </v>
   <v>      -0.00000000       0.00000000       0.00000000 </v>
  </varray>
  <varray name="stress" >
   <v>      14.31475751       0.00000000       0.00000000 </v>
   <v>       0.00000000      14.31475756       0.00000000 </v>
   <v>       0.00000000      -0.00000000      14.31475756 </v>
  </varray>
  <energy>
   <i name="e_fr_energy">   -301.03289513 </i>
   <i name="e_wo_entrp">   -301.02530421 </i>
   <i name="e_0_energy">     -0.01518184 </i>
  </energy>
  <time name="totalsc">   46.84   47.38</time>
 </calculation>
 <calculation>
  <scstep>
   <time name="dav">    3.73    3.77</time>
   <time name="total">    4.00    4.04</time>
   <energy>
    <i name="alphaZ">     94.20124788 </i>
    <i name="ewald">  -6303.95775925 </i>
    <i name="hartreedc">   -419.60990694 </i>
    <i name="XCdc">   -495.55737717 </i>
    <i name="pawpsdc">  23858.59213473 </i>
    <i name="pawaedc"> -22896.80691430 </i>
    <i name="eentropy">     -0.01918308 </i>
    <i name="bandstr">    193.42367247 </i>
    <i name="atom">   5668.65580356 </i>
    <i name="e_fr_energy">   -301.07828210 </i>
    <i name="e_wo_entrp">   -301.05909902 </i>
    <i name="e_0_energy">   -301.06869056 </i>
   </energy>
  </scstep>
  <scstep>
   <time name="dav">    4.10    4.13</time>
   <time name="total">    4.36    4.40</time>
   <energy>
    <i name="e_fr_energy">   -301.08849415 </i>
    <i name="e_wo_entrp">   -301.06973930 </i>
    <i name="e_0_energy">   -301.07911673 </i>
   </energy>
  </scstep>
  <scstep>
   <time name="dav">    4.06    4.10</time>
   <time name="total">    4.32    4.36</time>
   <energy>
    <i name="e_fr_energy">   -301.08610733 </i>
    <i name="e_wo_entrp">   -301.06777352 </i>
    <i name="e_0_energy">   -301.07694042 </i>
   </energy>
  </scstep>
  <scstep>
   <time name="dav">    4.03    4.07</time>
   <time name="total">    4.29    4.33</time>
   <energy>
    <i name="e_fr_energy">   -301.08567355 </i>
    <i name="e_wo_entrp">   -301.06752629 </i>
    <i name="e_0_energy">   -301.07659992 </i>
   </energy>
  </scstep>
  <scstep>
   <time name="dav">    4.33    4.37</time>
   <time name="total">    4.59    4.63</time>
   <energy>
    <i name="e_fr_energy">   -301.08556875 </i>
    <i name="e_wo_entrp">   -301.06734115 </i>
    <i name="e_0_energy">   -301.07645495 </i>
   </energy>
  </scstep>
  <scstep>
   <time name="dav">    4.18    4.22</time>
   <time name="total">    4.45    4.49</time>
   <energy>
    <i name="e_fr_energy">   -301.08559253 </i>
    <i name="e_wo_entrp">   -301.06734874 </i>
    <i name="e_0_energy">   -301.07647064 </i>
   </energy>
  </scstep>
  <scstep>
   <time name="dav">    3.12    3.14</time>
   <time name="total">    3.38    3.41</time>
   <energy>
    <i name="e_fr_energy">   -301.08558071 </i>
    <i name="e_wo_entrp">   -301.06732219 </i>
    <i name="e_0_energy">   -301.07645145 </i>
   </energy>
  </scstep>
  <scstep>
   <time name="dav">    3.88    3.92</time>
   <time name="total">    3.98    4.02</time>
   <energy>
    <i name="alphaZ">     94.20124788 </i>
    <i name="ewald">  -6303.95775925 </i>
    <i name="hartreedc">   -419.31849652 </i>
    <i name="XCdc">   -495.56389869 </i>
    <i name="pawpsdc">  23804.65291629 </i>
    <i name="pawaedc"> -22842.85292450 </i>
    <i name="eentropy">     -0.01826698 </i>
    <i name="bandstr">    193.11580214 </i>
    <i name="atom">   5668.65580356 </i>
    <i name="e_fr_energy">   -301.08557607 </i>
    <i name="e_wo_entrp">   -301.06730909 </i>
    <i name="e_0_energy">   -301.07644258 </i>
   </energy>
  </scstep>
  <structure>
   <crystal>
    <varray name="basis" >
     <v>       9.97646553       0.00000000       5.75991507 </v>
     <v>       3.32548851       9.40590192       5.75991507 </v>
     <v>       0.00000000       0.00000000      11.51983014 </v>
    </varray>
    <i name="volume">   1080.99386112 </i>
    <varray name="rec_basis" >
     <v>       0.10023590      -0.03543874       0.00000000 </v>
     <v>       0.00000000       0.10631623       0.00000000 </v>
     <v>      -0.05011795      -0.03543874       0.08680684 </v>
    </varray>
   </crystal>
   <varray name="positions" >
    <v>       0.29166667       0.29166667       0.29166667 </v>
    <v>       0.29151037       0.29151037       0.62364839 </v>
    <v>       0.29151037       0.29151037       0.95999753 </v>
    <v>       0.29151037       0.62364839       0.29151037 </v>
    <v>       0.28239508       0.62809053       0.62809053 </v>
    <v>       0.29151037       0.62364839       0.95999753 </v>
    <v>       0.29151037       0.95999753       0.29151037 </v>
    <v>       0.29151037       0.95999753       0.62364839 </v>
    <v>       0.29141002       0.95841888       0.95841888 </v>
    <v>       0.62364839       0.29151037       0.29151037 </v>
    <v>       0.62809053       0.28239508       0.62809053 </v>
    <v>       0.62364839       0.29151037       0.95999753 </v>
    <v>       0.62809053       0.62809053       0.28239508 </v>
    <v>       0.62809053       0.62809053       0.62809053 </v>
    <v>       0.62421828       0.62421828       0.95911505 </v>
    <v>       0.62364839       0.95999753       0.29151037 </v>
    <v>       0.62421828       0.95911505       0.62421828 </v>
    <v>       0.62421828       0.95911505       0.95911505 </v>
    <v>       0.95999753       0.29151037       0.29151037 </v>
    <v>       0.95999753       0.29151037       0.62364839 </v>
    <v>       0.95841888       0.29141002       0.95841888 </v>
    <v>       0.95999753       0.62364839       0.29151037 </v>
    <v>       0.95911505       0.62421828       0.62421828 </v>
    <v>       0.95911505       0.62421828       0.95911505 </v>
    <v>       0.95841888       0.95841888       0.29141002 </v>
    <v>       0.95911505       0.95911505       0.62421828 </v>
    <v>       0.95841888       0.95841888       0.95841888 </v>
    <v>       0.04166667       0.04166667       0.04166667 </v>
    <v>       0.04098087       0.04098087       0.37556467 </v>
    <v>       0.04098087       0.04098087       0.70914025 </v>
    <v>       0.04098087       0.37556467       0.04098087 </v>
    <v>       0.04149465       0.37505734       0.37505734 </v>
    <v>       0.04098087       0.37556467       0.70914025 </v>
    <v>       0.04098087       0.70914025       0.04098087 </v>
    <v>       0.04098087       0.70914025       0.37556467 </v>
    <v>       0.03701674       0.70988331       0.70988331 </v>
    <v>       0.37556467       0.04098087       0.04098087 </v>
    <v>       0.37505734       0.04149465       0.37505734 </v>
    <v>       0.37556467       0.04098087       0.70914025 </v>
    <v>       0.37505734       0.37505734       0.04149465 </v>
    <v>       0.37505734       0.37505734       0.37505734 </v>
    <v>       0.37206480       0.37206480       0.71126854 </v>
    <v>       0.37556467       0.70914025       0.04098087 </v>
    <v>       0.37206480       0.71126854       0.37206480 </v>
    <v>       0.37206480       0.71126854       0.71126854 </v>
    <v>       0.70914025       0.04098087       0.04098087 </v>
    <v>       0.70914025       0.04098087       0.37556467 </v>
    <v>       0.70988331       0.03701674       0.70988331 </v>
    <v>       0.70914025       0.37556467       0.04098087 </v>
    <v>       0.71126854       0.37206480       0.37206480 </v>
    <v>       0.71126854       0.37206480       0.71126854 </v>
    <v>       0.70988331       0.70988331       0.03701674 </v>
    <v>       0.71126854       0.71126854       0.37206480 </v>
    <v>       0.70988331       0.70988331       0.70988331 </v>
    <v>       0.54166667       0.54166667       0.54166667 </v>
   </varray>
  </structure>
  <varray name="forces" >
   <v>       0.00000000      -0.00000000      -0.00000000 </v>
   <v>      -0.13845774      -0.09790441      -0.04598732 </v>
   <v>      -0.13845774      -0.09790441       0.04598732 </v>
   <v>      -0.08250427       0.06035592      -0.14290158 </v>
   <v>       0.20281841      -0.07170714      -0.00000000 </v>
   <v>      -0.08250427       0.06035592       0.14290158 </v>
   <v>      -0.05595348       0.13545290      -0.09691426 </v>
   <v>      -0.05595348       0.13545290       0.09691426 </v>
   <v>      -0.02740493       0.00968911      -0.00000000 </v>
   <v>       0.02940269      -0.09790441      -0.14290158 </v>
   <v>      -0.00000000       0.21512141      -0.00000000 </v>
   <v>       0.02940269      -0.09790441       0.14290158 </v>
   <v>      -0.10140920      -0.07170714       0.17564589 </v>
   <v>      -0.10140920      -0.07170714      -0.17564589 </v>
   <v>       0.00365870       0.00258709      -0.00000000 </v>
   <v>       0.11190695       0.13545290      -0.00000000 </v>
   <v>       0.00182935      -0.00258709       0.00316852 </v>
   <v>       0.00182935      -0.00258709      -0.00316852 </v>
   <v>       0.10905506      -0.09790441      -0.09691426 </v>
   <v>       0.10905506      -0.09790441       0.09691426 </v>
   <v>       0.00000000      -0.02906732      -0.00000000 </v>
   <v>       0.16500853       0.06035592      -0.00000000 </v>
   <v>      -0.00182935       0.00258709       0.00316852 </v>
   <v>      -0.00182935       0.00258709      -0.00316852 </v>
   <v>       0.01370247       0.00968911      -0.02373337 </v>
   <v>      -0.00365870      -0.00258709      -0.00000000 </v>
   <v>       0.01370247       0.00968911       0.02373337 </v>
   <v>       0.00000000      -0.00000000      -0.00000000 </v>
   <v>       0.07729383       0.05465499      -0.03558095 </v>
   <v>       0.07729383       0.05465499       0.03558095 </v>
   <v>       0.02837558      -0.08370671       0.04914795 </v>
   <v>       0.08466465      -0.02993347      -0.00000000 </v>
   <v>       0.02837558      -0.08370671      -0.04914795 </v>
   <v>       0.04891825      -0.02560327       0.08472889 </v>
   <v>       0.04891825      -0.02560327      -0.08472889 </v>
   <v>      -0.55502311       0.19623030      -0.00000000 </v>
   <v>      -0.06946092       0.05465499       0.04914795 </v>
   <v>       0.00000000       0.08980042      -0.00000000 </v>
   <v>      -0.06946092       0.05465499      -0.04914795 </v>
   <v>      -0.04233232      -0.02993347       0.07332173 </v>
   <v>      -0.04233232      -0.02993347      -0.07332173 </v>
   <v>       0.08037241       0.05683187      -0.00000000 </v>
   <v>      -0.09783650      -0.02560327      -0.00000000 </v>
   <v>       0.04018620      -0.05683187       0.06960455 </v>
   <v>       0.04018620      -0.05683187      -0.06960455 </v>
   <v>      -0.00783291       0.05465499       0.08472889 </v>
   <v>      -0.00783291       0.05465499      -0.08472889 </v>
   <v>      -0.00000000      -0.58869091      -0.00000000 </v>
   <v>      -0.05675116      -0.08370671      -0.00000000 </v>
   <v>      -0.04018620       0.05683187       0.06960455 </v>
   <v>      -0.04018620       0.05683187      -0.06960455 </v>
   <v>       0.27751156       0.19623030      -0.48066411 </v>
   <v>      -0.08037241      -0.05683187      -0.00000000 </v>
   <v>       0.27751156       0.19623030       0.48066411 </v>
   <v>       0.00000000      -0.00000000      -0.00000000 </v>
  </varray>
  <varray name="stress" >
   <v>      13.52217094       0.00000000      -0.00000000 </v>
   <v>       0.00000000      13.52217098       0.00000000 </v>
   <v>      -0.00000000       0.00000000      13.52217099 </v>
  </varray>
  <energy>
   <i name="e_fr_energy">   -301.08557607 </i>
   <i name="e_wo_entrp">   -301.07644258 </i>
   <i name="e_0_energy">     -0.01826698 </i>
  </energy>
  <time name="totalsc">   41.73   42.10</time>
 </calculation>
 <calculation>
  <scstep>
   <time name="dav">    3.62    3.65</time>
   <time name="total">    4.04    4.07</time>
   <energy>
    <i name="alphaZ">     94.20124788 </i>
    <i name="ewald">  -6306.04514132 </i>
    <i name="hartreedc">   -417.53392038 </i>
    <i name="XCdc">   -495.58421706 </i>
    <i name="pawpsdc">  23804.69550071 </i>
    <i name="pawaedc"> -22842.89553368 </i>
    <i name="eentropy">     -0.01729663 </i>
    <i name="bandstr">    193.38313013 </i>
    <i name="atom">   5668.65580356 </i>
    <i name="e_fr_energy">   -301.14042679 </i>
    <i name="e_wo_entrp">   -301.12313016 </i>
    <i name="e_0_energy">   -301.13177848 </i>
   </energy>
  </scstep>
  <scstep>
   <time name="dav">    4.47    4.52</time>
   <time name="total">    4.74    4.78</time>
   <energy>
    <i name="e_fr_energy">   -301.15083493 </i>
    <i name="e_wo_entrp">   -301.13332100 </i>
    <i name="e_0_energy">   -301.14207797 </i>
   </energy>
  </scstep>
  <scstep>
   <time name="dav">    3.96    3.99</time>
   <time name="total">    4.22    4.26</time>
   <energy>
    <i name="e_fr_energy">   -301.14955100 </i>
    <i name="e_wo_entrp">   -301.13199347 </i>
    <i name="e_0_energy">   -301.14077223 </i>
   </energy>
  </scstep>
  <scstep>
   <time name="dav">    4.26    4.30</time>
   <time name="total">    4.52    4.56</time>
   <energy>
    <i name="e_fr_energy">   -301.14869355 </i>
    <i name="e_wo_entrp">   -301.13104317 </i>
    <i name="e_0_energy">   -301.13986836 </i>
   </energy>
  </scstep>
  <scstep>
   <time name="dav">    4.16    4.20</time>
   <time name="total">    4.42    4.46</time>
   <energy>
    <i name="e_fr_energy">   -301.14874316 </i>
    <i name="e_wo_entrp">   -301.13106753 </i>
    <i name="e_0_energy">   -301.13990535 </i>
   </energy>
  </scstep>
  <scstep>
   <time name="dav">    4.48    4.52</time>
   <time name="total">    4.58    4.62</time>
   <energy>
    <i name="alphaZ">     94.20124788 </i>
    <i name="ewald">  -6306.04514132 </i>
    <i name="hartreedc">   -417.63689966 </i>
    <i name="XCdc">   -495.58254298 </i>
    <i name="pawpsdc">  23793.18846124 </i>
    <i name="pawaedc"> -22831.38403926 </i>
    <i name="eentropy">     -0.01768877 </i>
    <i name="bandstr">    193.47206232 </i>
    <i name="atom">   5668.65580356 </i>
    <i name="e_fr_energy">   -301.14873701 </i>
    <i name="e_wo_entrp">   -301.13104823 </i>
    <i name="e_0_energy">   -301.13989262 </i>
   </energy>
  </scstep>
  <structure>
   <crystal>
    <varray name="basis" >
     <v>       9.97646553       0.00000000       5.75991507 </v>
     <v>       3.32548851       9.40590192       5.75991507 </v>
     <v>       0.00000000       0.00000000      11.51983014 </v>
    </varray>
    <i name="volume">   1080.99386112 </i>
    <varray name="rec_basis" >
     <v>       0.10023590      -0.03543874       0.00000000 </v>
     <v>       0.00000000       0.10631623       0.00000000 </v>
     <v>      -0.05011795      -0.03543874       0.08680684 </v>
    </varray>
   </crystal>
   <varray name="positions" >
    <v>       0.29166667       0.29166667       0.29166667 </v>
    <v>       0.29091953       0.29091953       0.62378362 </v>
    <v>       0.29091953       0.29091953       0.96104398 </v>
    <v>       0.29091953       0.62378362       0.29091953 </v>
    <v>       0.28217260       0.62816469       0.62816469 </v>
    <v>       0.29091953       0.62378362       0.96104398 </v>
    <v>       0.29091953       0.96104398       0.29091953 </v>
    <v>       0.29091953       0.96104398       0.62378362 </v>
    <v>       0.29120135       0.95848844       0.95848844 </v>
    <v>       0.62378362       0.29091953       0.29091953 </v>
    <v>       0.62816469       0.28217260       0.62816469 </v>
    <v>       0.62378362       0.29091953       0.96104398 </v>
    <v>       0.62816469       0.62816469       0.28217260 </v>
    <v>       0.62816469       0.62816469       0.62816469 </v>
    <v>       0.62410961       0.62410961       0.95922373 </v>
    <v>       0.62378362       0.96104398       0.29091953 </v>
    <v>       0.62410961       0.95922373       0.62410961 </v>
    <v>       0.62410961       0.95922373       0.95922373 </v>
    <v>       0.96104398       0.29091953       0.29091953 </v>
    <v>       0.96104398       0.29091953       0.62378362 </v>
    <v>       0.95848844       0.29120135       0.95848844 </v>
    <v>       0.96104398       0.62378362       0.29091953 </v>
    <v>       0.95922373       0.62410961       0.62410961 </v>
    <v>       0.95922373       0.62410961       0.95922373 </v>
    <v>       0.95848844       0.95848844       0.29120135 </v>
    <v>       0.95922373       0.95922373       0.62410961 </v>
    <v>       0.95848844       0.95848844       0.95848844 </v>
    <v>       0.04166667       0.04166667       0.04166667 </v>
    <v>       0.04118844       0.04118844       0.37516996 </v>
    <v>       0.04118844       0.04118844       0.70911982 </v>
    <v>       0.04118844       0.37516996       0.04118844 </v>
    <v>       0.04198670       0.37489332       0.37489332 </v>
    <v>       0.04118844       0.37516996       0.70911982 </v>
    <v>       0.04118844       0.70911982       0.04118844 </v>
    <v>       0.04118844       0.70911982       0.37516996 </v>
    <v>       0.03287728       0.71126313       0.71126313 </v>
    <v>       0.37516996       0.04118844       0.04118844 </v>
    <v>       0.37489332       0.04198670       0.37489332 </v>
    <v>       0.37516996       0.04118844       0.70911982 </v>
    <v>       0.37489332       0.37489332       0.04198670 </v>
    <v>       0.37489332       0.37489332       0.37489332 </v>
    <v>       0.37192919       0.37192919       0.71140415 </v>
    <v>       0.37516996       0.70911982       0.04118844 </v>
    <v>       0.37192919       0.71140415       0.37192919 </v>
    <v>       0.37192919       0.71140415       0.71140415 </v>
    <v>       0.70911982       0.04118844       0.04118844 </v>
    <v>       0.70911982       0.04118844       0.37516996 </v>
    <v>       0.71126313       0.03287728       0.71126313 </v>
    <v>       0.70911982       0.37516996       0.04118844 </v>
    <v>       0.71140415       0.37192919       0.37192919 </v>
    <v>       0.71140415       0.37192919       0.71140415 </v>
    <v>       0.71126313       0.71126313       0.03287728 </v>
    <v>       0.71140415       0.71140415       0.37192919 </v>
    <v>       0.71126313       0.71126313       0.71126313 </v>
    <v>       0.54166667       0.54166667       0.54166667 </v>
   </varray>
  </structure>
  <varray name="forces" >
   <v>       0.00000000       0.00000000       0.00000000 </v>
   <v>      -0.00997530      -0.00705360       0.01787974 </v>
   <v>      -0.00997530      -0.00705360      -0.01787974 </v>
   <v>       0.00017378       0.02165235       0.00030100 </v>
   <v>      -0.04331343       0.01531361       0.00000000 </v>
   <v>       0.00017378       0.02165235      -0.00030100 </v>
   <v>      -0.01014909      -0.00754514      -0.01757873 </v>
   <v>      -0.01014909      -0.00754514       0.01757873 </v>
   <v>      -0.00747153       0.00264159       0.00000000 </v>
   <v>       0.02047196      -0.00705360       0.00030100 </v>
   <v>       0.00000000      -0.04594083       0.00000000 </v>
   <v>       0.02047196      -0.00705360      -0.00030100 </v>
   <v>       0.02165671       0.01531361      -0.03751053 </v>
   <v>       0.02165671       0.01531361       0.03751053 </v>
   <v>      -0.05840498      -0.04129855       0.00000000 </v>
   <v>       0.02029817      -0.00754514       0.00000000 </v>
   <v>      -0.02920249       0.04129855      -0.05058019 </v>
   <v>      -0.02920249       0.04129855       0.05058019 </v>
   <v>      -0.01049665      -0.00705360      -0.01757873 </v>
   <v>      -0.01049665      -0.00705360       0.01757873 </v>
   <v>       0.00000000      -0.00792476       0.00000000 </v>
   <v>      -0.00034757       0.02165235       0.00000000 </v>
   <v>       0.02920249      -0.04129855      -0.05058019 </v>
   <v>       0.02920249      -0.04129855       0.05058019 </v>
   <v>       0.00373577       0.00264159      -0.00647054 </v>
   <v>       0.05840498       0.04129855       0.00000000 </v>
   <v>       0.00373577       0.00264159       0.00647054 </v>
   <v>       0.00000000       0.00000000       0.00000000 </v>
   <v>       0.01426084       0.01008394      -0.03498868 </v>
   <v>       0.01426084       0.01008394       0.03498868 </v>
   <v>      -0.00296994      -0.03865207      -0.00514409 </v>
   <v>       0.04858981      -0.01717909      -0.00000000 </v>
   <v>      -0.00296994      -0.03865207       0.00514409 </v>
   <v>       0.01723078       0.01848420       0.02984459 </v>
   <v>       0.01723078       0.01848420      -0.02984459 </v>
   <v>      -0.03857318       0.01363768       0.00000000 </v>
   <v>      -0.03743150       0.01008394      -0.00514409 </v>
   <v>      -0.00000000       0.05153727      -0.00000000 </v>
   <v>      -0.03743150       0.01008394       0.00514409 </v>
   <v>      -0.02429490      -0.01717909       0.04208001 </v>
   <v>      -0.02429490      -0.01717909      -0.04208001 </v>
   <v>       0.04584530       0.03241753       0.00000000 </v>
   <v>      -0.03446156       0.01848420       0.00000000 </v>
   <v>       0.02292265      -0.03241753       0.03970320 </v>
   <v>       0.02292265      -0.03241753      -0.03970320 </v>
   <v>       0.02317066       0.01008394       0.02984459 </v>
   <v>       0.02317066       0.01008394      -0.02984459 </v>
   <v>       0.00000000      -0.04091304       0.00000000 </v>
   <v>       0.00593988      -0.03865207       0.00000000 </v>
   <v>      -0.02292265       0.03241753       0.03970320 </v>
   <v>      -0.02292265       0.03241753      -0.03970320 </v>
   <v>       0.01928659       0.01363768      -0.03340535 </v>
   <v>      -0.04584530      -0.03241753       0.00000000 </v>
   <v>       0.01928659       0.01363768       0.03340535 </v>
   <v>       0.00000000       0.00000000       0.00000000 </v>
  </varray>
  <varray name="stress" >
   <v>      13.30048687       0.00000000      -0.00000000 </v>
   <v>       0.00000000      13.30048692       0.00000000 </v>
   <v>      -0.00000000      -0.00000000      13.30048692 </v>
  </varray>
  <energy>
   <i name="e_fr_energy">   -301.14873701 </i>
   <i name="e_wo_entrp">   -301.13989262 </i>
   <i name="e_0_energy">     -0.01768877 </i>
  </energy>
  <time name="totalsc">   34.92   35.24</time>
 </calculation>
 <calculation>
  <scstep>
   <time name="dav">    3.81    3.85</time>
   <time name="total">    4.07    4.11</time>
   <energy>
    <i name="alphaZ">     94.20124788 </i>
    <i name="ewald">  -6306.20489229 </i>
    <i name="hartreedc">   -417.49196354 </i>
    <i name="XCdc">   -495.58446046 </i>
    <i name="pawpsdc">  23792.31213198 </i>
    <i name="pawaedc"> -22830.50728126 </i>
    <i name="eentropy">     -0.01760781 </i>
    <i name="bandstr">    193.48792434 </i>
    <i name="atom">   5668.65580356 </i>
    <i name="e_fr_energy">   -301.14909761 </i>
    <i name="e_wo_entrp">   -301.13148980 </i>
    <i name="e_0_energy">   -301.14029370 </i>
   </energy>
  </scstep>
  <scstep>
   <time name="dav">    4.33    4.37</time>
   <time name="total">    4.59    4.63</time>
   <energy>
    <i name="e_fr_energy">   -301.14921110 </i>
    <i name="e_wo_entrp">   -301.13158681 </i>
    <i name="e_0_energy">   -301.14039896 </i>
   </energy>
  </scstep>
  <scstep>
   <time name="dav">    3.42    3.45</time>
   <time name="total">    3.52    3.55</time>
   <energy>
    <i name="alphaZ">     94.20124788 </i>
    <i name="ewald">  -6306.20489229 </i>
    <i name="hartreedc">   -417.49759092 </i>
    <i name="XCdc">   -495.58432270 </i>
    <i name="pawpsdc">  23791.68836631 </i>
    <i name="pawaedc"> -22829.88341921 </i>
    <i name="eentropy">     -0.01762687 </i>
    <i name="bandstr">    193.49323040 </i>
    <i name="atom">   5668.65580356 </i>
    <i name="e_fr_energy">   -301.14920384 </i>
    <i name="e_wo_entrp">   -301.13157697 </i>
    <i name="e_0_energy">   -301.14039041 </i>
   </energy>
  </scstep>
  <structure>
   <crystal>
    <varray name="basis" >
     <v>       9.97646553       0.00000000       5.75991507 </v>
     <v>       3.32548851       9.40590192       5.75991507 </v>
     <v>       0.00000000       0.00000000      11.51983014 </v>
    </varray>
    <i name="volume">   1080.99386112 </i>
    <varray name="rec_basis" >
     <v>       0.10023590      -0.03543874       0.00000000 </v>
     <v>       0.00000000       0.10631623       0.00000000 </v>
     <v>      -0.05011795      -0.03543874       0.08680684 </v>
    </varray>
   </crystal>
   <varray name="positions" >
    <v>       0.29166667       0.29166667       0.29166667 </v>
    <v>       0.29086481       0.29086481       0.62379614 </v>
    <v>       0.29086481       0.29086481       0.96114090 </v>
    <v>       0.29086481       0.62379614       0.29086481 </v>
    <v>       0.28215199       0.62817156       0.62817156 </v>
    <v>       0.29086481       0.62379614       0.96114090 </v>
    <v>       0.29086481       0.96114090       0.29086481 </v>
    <v>       0.29086481       0.96114090       0.62379614 </v>
    <v>       0.29118202       0.95849488       0.95849488 </v>
    <v>       0.62379614       0.29086481       0.29086481 </v>
    <v>       0.62817156       0.28215199       0.62817156 </v>
    <v>       0.62379614       0.29086481       0.96114090 </v>
    <v>       0.62817156       0.62817156       0.28215199 </v>
    <v>       0.62817156       0.62817156       0.62817156 </v>
    <v>       0.62409954       0.62409954       0.95923379 </v>
    <v>       0.62379614       0.96114090       0.29086481 </v>
    <v>       0.62409954       0.95923379       0.62409954 </v>
    <v>       0.62409954       0.95923379       0.95923379 </v>
    <v>       0.96114090       0.29086481       0.29086481 </v>
    <v>       0.96114090       0.29086481       0.62379614 </v>
    <v>       0.95849488       0.29118202       0.95849488 </v>
    <v>       0.96114090       0.62379614       0.29086481 </v>
    <v>       0.95923379       0.62409954       0.62409954 </v>
    <v>       0.95923379       0.62409954       0.95923379 </v>
    <v>       0.95849488       0.95849488       0.29118202 </v>
    <v>       0.95923379       0.95923379       0.62409954 </v>
    <v>       0.95849488       0.95849488       0.95849488 </v>
    <v>       0.04166667       0.04166667       0.04166667 </v>
    <v>       0.04120767       0.04120767       0.37513340 </v>
    <v>       0.04120767       0.04120767       0.70911793 </v>
    <v>       0.04120767       0.37513340       0.04120767 </v>
    <v>       0.04203227       0.37487813       0.37487813 </v>
    <v>       0.04120767       0.37513340       0.70911793 </v>
    <v>       0.04120767       0.70911793       0.04120767 </v>
    <v>       0.04120767       0.70911793       0.37513340 </v>
    <v>       0.03249389       0.71139092       0.71139092 </v>
    <v>       0.37513340       0.04120767       0.04120767 </v>
    <v>       0.37487813       0.04203227       0.37487813 </v>
    <v>       0.37513340       0.04120767       0.70911793 </v>
    <v>       0.37487813       0.37487813       0.04203227 </v>
    <v>       0.37487813       0.37487813       0.37487813 </v>
    <v>       0.37191663       0.37191663       0.71141671 </v>
    <v>       0.37513340       0.70911793       0.04120767 </v>
    <v>       0.37191663       0.71141671       0.37191663 </v>
    <v>       0.37191663       0.71141671       0.71141671 </v>
    <v>       0.70911793       0.04120767       0.04120767 </v>
    <v>       0.70911793       0.04120767       0.37513340 </v>
    <v>       0.71139092       0.03249389       0.71139092 </v>
    <v>       0.70911793       0.37513340       0.04120767 </v>
    <v>       0.71141671       0.37191663       0.37191663 </v>
    <v>       0.71141671       0.37191663       0.71141671 </v>
    <v>       0.71139092       0.71139092       0.03249389 </v>
    <v>       0.71141671       0.71141671       0.37191663 </v>
    <v>       0.71139092       0.71139092       0.71139092 </v>
    <v>       0.54166667       0.54166667       0.54166667 </v>
   </varray>
  </structure>
  <varray name="forces" >
   <v>      -0.00000000      -0.00000000      -0.00000000 </v>
   <v>       0.00120043       0.00084884       0.02349043 </v>
   <v>       0.00120043       0.00084884      -0.02349043 </v>
   <v>       0.00738132       0.01833102       0.01278482 </v>
   <v>      -0.06084042       0.02151034      -0.00000000 </v>
   <v>       0.00738132       0.01833102      -0.01278482 </v>
   <v>      -0.00618089      -0.02002869      -0.01070561 </v>
   <v>      -0.00618089      -0.02002869       0.01070561 </v>
   <v>      -0.00678652       0.00239940      -0.00000000 </v>
   <v>       0.01974309       0.00084884       0.01278482 </v>
   <v>       0.00000000      -0.06453101      -0.00000000 </v>
   <v>       0.01974309       0.00084884      -0.01278482 </v>
   <v>       0.03042021       0.02151034      -0.05268935 </v>
   <v>       0.03042021       0.02151034       0.05268935 </v>
   <v>      -0.06223622      -0.04400765      -0.00000000 </v>
   <v>       0.01236177      -0.02002869      -0.00000000 </v>
   <v>      -0.03111811       0.04400765      -0.05389815 </v>
   <v>      -0.03111811       0.04400765       0.05389815 </v>
   <v>      -0.02094353       0.00084884      -0.01070561 </v>
   <v>      -0.02094353       0.00084884       0.01070561 </v>
   <v>      -0.00000000      -0.00719819      -0.00000000 </v>
   <v>      -0.01476264       0.01833102      -0.00000000 </v>
   <v>       0.03111811      -0.04400765      -0.05389815 </v>
   <v>       0.03111811      -0.04400765       0.05389815 </v>
   <v>       0.00339326       0.00239940      -0.00587730 </v>
   <v>       0.06223622       0.04400765      -0.00000000 </v>
   <v>       0.00339326       0.00239940       0.00587730 </v>
   <v>      -0.00000000      -0.00000000      -0.00000000 </v>
   <v>       0.00905894       0.00640564      -0.03581508 </v>
   <v>       0.00905894       0.00640564       0.03581508 </v>
   <v>      -0.00580945      -0.03564853      -0.01006227 </v>
   <v>       0.04651789      -0.01644656      -0.00000000 </v>
   <v>      -0.00580945      -0.03564853       0.01006227 </v>
   <v>       0.01486839       0.02283725       0.02575281 </v>
   <v>       0.01486839       0.02283725      -0.02575281 </v>
   <v>       0.00373646      -0.00132104      -0.00000000 </v>
   <v>      -0.03554624       0.00640564      -0.01006227 </v>
   <v>      -0.00000000       0.04933967      -0.00000000 </v>
   <v>      -0.03554624       0.00640564       0.01006227 </v>
   <v>      -0.02325894      -0.01644656       0.04028567 </v>
   <v>      -0.02325894      -0.01644656      -0.04028567 </v>
   <v>       0.04376530       0.03094674      -0.00000000 </v>
   <v>      -0.02973679       0.02283725      -0.00000000 </v>
   <v>       0.02188265      -0.03094674       0.03790186 </v>
   <v>       0.02188265      -0.03094674      -0.03790186 </v>
   <v>       0.02648730       0.00640564       0.02575281 </v>
   <v>       0.02648730       0.00640564      -0.02575281 </v>
   <v>      -0.00000000       0.00396312      -0.00000000 </v>
[...]
        <r>  0.0002  0.0031  0.0000 </r>
        <r>  0.0007  0.0011  0.0000 </r>
        <r>  0.0002  0.0031  0.0000 </r>
        <r>  0.0003  0.0014  0.0000 </r>
        <r>  0.0001  0.0072  0.0000 </r>
        <r>  0.0003  0.0014  0.0000 </r>
        <r>  0.0003  0.0014  0.0000 </r>
        <r>  0.0016  0.0017  0.0000 </r>
        <r>  0.0002  0.0031  0.0000 </r>
        <r>  0.0023  0.0026  0.0000 </r>
        <r>  0.0016  0.0017  0.0000 </r>
        <r>  0.0002  0.0031  0.0000 </r>
        <r>  0.0001  0.0072  0.0000 </r>
        <r>  0.0007  0.0011  0.0000 </r>
        <r>  0.0002  0.0031  0.0000 </r>
        <r>  0.0016  0.0017  0.0000 </r>
        <r>  0.0023  0.0026  0.0000 </r>
        <r>  0.0007  0.0011  0.0000 </r>
        <r>  0.0016  0.0017  0.0000 </r>
        <r>  0.0007  0.0011  0.0000 </r>
        <r>  0.0000  0.0101  0.0000 </r>
        <r>  0.0006  0.0030  0.0000 </r>
        <r>  0.0006  0.0030  0.0000 </r>
        <r>  0.0007  0.0010  0.0000 </r>
        <r>  0.0047  0.0008  0.0000 </r>
        <r>  0.0006  0.0030  0.0000 </r>
        <r>  0.0007  0.0010  0.0000 </r>
        <r>  0.0006  0.0030  0.0000 </r>
        <r>  0.0001  0.0057  0.0000 </r>
        <r>  0.0006  0.0030  0.0000 </r>
        <r>  0.0047  0.0008  0.0000 </r>
        <r>  0.0007  0.0010  0.0000 </r>
        <r>  0.0047  0.0008  0.0000 </r>
        <r>  0.0047  0.0008  0.0000 </r>
        <r>  0.0007  0.0015  0.0000 </r>
        <r>  0.0006  0.0030  0.0000 </r>
        <r>  0.0000  0.0005  0.0000 </r>
        <r>  0.0007  0.0015  0.0000 </r>
        <r>  0.0006  0.0030  0.0000 </r>
        <r>  0.0007  0.0010  0.0000 </r>
        <r>  0.0001  0.0057  0.0000 </r>
        <r>  0.0006  0.0030  0.0000 </r>
        <r>  0.0007  0.0015  0.0000 </r>
        <r>  0.0000  0.0005  0.0000 </r>
        <r>  0.0001  0.0057  0.0000 </r>
        <r>  0.0007  0.0015  0.0000 </r>
        <r>  0.0001  0.0057  0.0000 </r>
        <r>  0.0000  0.0000  0.0000 </r>
       </set>
       <set comment="band 139">
        <r>  0.0000  0.0019  0.0000 </r>
        <r>  0.0000  0.0027  0.0000 </r>
        <r>  0.0000  0.0027  0.0000 </r>
        <r>  0.0012  0.0042  0.0000 </r>
        <r>  0.0000  0.0046  0.0000 </r>
        <r>  0.0000  0.0027  0.0000 </r>
        <r>  0.0012  0.0042  0.0000 </r>
        <r>  0.0000  0.0027  0.0000 </r>
        <r>  0.0005  0.0041  0.0000 </r>
        <r>  0.0000  0.0027  0.0000 </r>
        <r>  0.0000  0.0046  0.0000 </r>
        <r>  0.0012  0.0042  0.0000 </r>
        <r>  0.0000  0.0046  0.0000 </r>
        <r>  0.0000  0.0046  0.0000 </r>
        <r>  0.0003  0.0027  0.0000 </r>
        <r>  0.0000  0.0027  0.0000 </r>
        <r>  0.0000  0.0036  0.0000 </r>
        <r>  0.0003  0.0027  0.0000 </r>
        <r>  0.0000  0.0027  0.0000 </r>
        <r>  0.0012  0.0042  0.0000 </r>
        <r>  0.0005  0.0041  0.0000 </r>
        <r>  0.0000  0.0027  0.0000 </r>
        <r>  0.0003  0.0027  0.0000 </r>
        <r>  0.0000  0.0036  0.0000 </r>
        <r>  0.0005  0.0041  0.0000 </r>
        <r>  0.0003  0.0027  0.0000 </r>
        <r>  0.0005  0.0041  0.0000 </r>
        <r>  0.0001  0.0000  0.0000 </r>
        <r>  0.0005  0.0051  0.0000 </r>
        <r>  0.0005  0.0051  0.0000 </r>
        <r>  0.0001  0.0032  0.0000 </r>
        <r>  0.0002  0.0019  0.0000 </r>
        <r>  0.0005  0.0051  0.0000 </r>
        <r>  0.0001  0.0032  0.0000 </r>
        <r>  0.0005  0.0051  0.0000 </r>
        <r>  0.0001  0.0018  0.0000 </r>
        <r>  0.0005  0.0051  0.0000 </r>
        <r>  0.0002  0.0019  0.0000 </r>
        <r>  0.0001  0.0032  0.0000 </r>
        <r>  0.0002  0.0019  0.0000 </r>
        <r>  0.0002  0.0019  0.0000 </r>
        <r>  0.0000  0.0028  0.0000 </r>
        <r>  0.0005  0.0051  0.0000 </r>
        <r>  0.0017  0.0004  0.0000 </r>
        <r>  0.0000  0.0028  0.0000 </r>
        <r>  0.0005  0.0051  0.0000 </r>
        <r>  0.0001  0.0032  0.0000 </r>
        <r>  0.0001  0.0018  0.0000 </r>
        <r>  0.0005  0.0051  0.0000 </r>
        <r>  0.0000  0.0028  0.0000 </r>
        <r>  0.0017  0.0004  0.0000 </r>
        <r>  0.0001  0.0018  0.0000 </r>
        <r>  0.0000  0.0028  0.0000 </r>
        <r>  0.0001  0.0018  0.0000 </r>
        <r>  0.0000  0.0003  0.0000 </r>
       </set>
       <set comment="band 140">
        <r>  0.0029  0.0000  0.0000 </r>
        <r>  0.0021  0.0035  0.0000 </r>
        <r>  0.0021  0.0035  0.0000 </r>
        <r>  0.0019  0.0027  0.0000 </r>
        <r>  0.0005  0.0055  0.0000 </r>
        <r>  0.0021  0.0035  0.0000 </r>
        <r>  0.0019  0.0027  0.0000 </r>
        <r>  0.0021  0.0035  0.0000 </r>
        <r>  0.0000  0.0012  0.0000 </r>
        <r>  0.0021  0.0035  0.0000 </r>
        <r>  0.0005  0.0055  0.0000 </r>
        <r>  0.0019  0.0027  0.0000 </r>
        <r>  0.0005  0.0055  0.0000 </r>
        <r>  0.0005  0.0055  0.0000 </r>
        <r>  0.0005  0.0009  0.0000 </r>
        <r>  0.0021  0.0035  0.0000 </r>
        <r>  0.0010  0.0005  0.0000 </r>
        <r>  0.0005  0.0009  0.0000 </r>
        <r>  0.0021  0.0035  0.0000 </r>
        <r>  0.0019  0.0027  0.0000 </r>
        <r>  0.0000  0.0012  0.0000 </r>
        <r>  0.0021  0.0035  0.0000 </r>
        <r>  0.0005  0.0009  0.0000 </r>
        <r>  0.0010  0.0005  0.0000 </r>
        <r>  0.0000  0.0012  0.0000 </r>
        <r>  0.0005  0.0009  0.0000 </r>
        <r>  0.0000  0.0012  0.0000 </r>
        <r>  0.0000  0.0001  0.0000 </r>
        <r>  0.0007  0.0019  0.0000 </r>
        <r>  0.0007  0.0019  0.0000 </r>
        <r>  0.0026  0.0009  0.0000 </r>
        <r>  0.0001  0.0029  0.0000 </r>
        <r>  0.0007  0.0019  0.0000 </r>
        <r>  0.0026  0.0009  0.0000 </r>
        <r>  0.0007  0.0019  0.0000 </r>
        <r>  0.0012  0.0017  0.0000 </r>
        <r>  0.0007  0.0019  0.0000 </r>
        <r>  0.0001  0.0029  0.0000 </r>
        <r>  0.0026  0.0009  0.0000 </r>
        <r>  0.0001  0.0029  0.0000 </r>
        <r>  0.0001  0.0029  0.0000 </r>
        <r>  0.0007  0.0032  0.0000 </r>
        <r>  0.0007  0.0019  0.0000 </r>
        <r>  0.0000  0.0068  0.0000 </r>
        <r>  0.0007  0.0032  0.0000 </r>
        <r>  0.0007  0.0019  0.0000 </r>
        <r>  0.0026  0.0009  0.0000 </r>
        <r>  0.0012  0.0017  0.0000 </r>
        <r>  0.0007  0.0019  0.0000 </r>
        <r>  0.0007  0.0032  0.0000 </r>
        <r>  0.0000  0.0068  0.0000 </r>
        <r>  0.0012  0.0017  0.0000 </r>
        <r>  0.0007  0.0032  0.0000 </r>
        <r>  0.0012  0.0017  0.0000 </r>
        <r>  0.0000  0.0003  0.0000 </r>
       </set>
       <set comment="band 141">
        <r>  0.0000  0.0080  0.0000 </r>
        <r>  0.0010  0.0035  0.0000 </r>
        <r>  0.0010  0.0035  0.0000 </r>
        <r>  0.0003  0.0014  0.0000 </r>
        <r>  0.0000  0.0015  0.0000 </r>
        <r>  0.0010  0.0035  0.0000 </r>
        <r>  0.0003  0.0014  0.0000 </r>
        <r>  0.0010  0.0035  0.0000 </r>
        <r>  0.0016  0.0021  0.0000 </r>
        <r>  0.0010  0.0035  0.0000 </r>
        <r>  0.0000  0.0015  0.0000 </r>
        <r>  0.0003  0.0014  0.0000 </r>
        <r>  0.0000  0.0015  0.0000 </r>
        <r>  0.0000  0.0015  0.0000 </r>
        <r>  0.0000  0.0032  0.0000 </r>
        <r>  0.0010  0.0035  0.0000 </r>
        <r>  0.0000  0.0133  0.0000 </r>
        <r>  0.0000  0.0032  0.0000 </r>
        <r>  0.0010  0.0035  0.0000 </r>
        <r>  0.0003  0.0014  0.0000 </r>
        <r>  0.0016  0.0021  0.0000 </r>
        <r>  0.0010  0.0035  0.0000 </r>
        <r>  0.0000  0.0032  0.0000 </r>
        <r>  0.0000  0.0133  0.0000 </r>
        <r>  0.0016  0.0021  0.0000 </r>
        <r>  0.0000  0.0032  0.0000 </r>
        <r>  0.0016  0.0021  0.0000 </r>
        <r>  0.0000  0.0126  0.0000 </r>
        <r>  0.0001  0.0031  0.0000 </r>
        <r>  0.0001  0.0031  0.0000 </r>
        <r>  0.0003  0.0005  0.0000 </r>
        <r>  0.0007  0.0012  0.0000 </r>
        <r>  0.0001  0.0031  0.0000 </r>
        <r>  0.0003  0.0005  0.0000 </r>
        <r>  0.0001  0.0031  0.0000 </r>
        <r>  0.0009  0.0006  0.0000 </r>
        <r>  0.0001  0.0031  0.0000 </r>
        <r>  0.0007  0.0012  0.0000 </r>
        <r>  0.0003  0.0005  0.0000 </r>
        <r>  0.0007  0.0012  0.0000 </r>
        <r>  0.0007  0.0012  0.0000 </r>
        <r>  0.0009  0.0045  0.0000 </r>
        <r>  0.0001  0.0031  0.0000 </r>
        <r>  0.0000  0.0049  0.0000 </r>
        <r>  0.0009  0.0045  0.0000 </r>
        <r>  0.0001  0.0031  0.0000 </r>
        <r>  0.0003  0.0005  0.0000 </r>
        <r>  0.0009  0.0006  0.0000 </r>
        <r>  0.0001  0.0031  0.0000 </r>
        <r>  0.0009  0.0045  0.0000 </r>
        <r>  0.0000  0.0049  0.0000 </r>
        <r>  0.0009  0.0006  0.0000 </r>
        <r>  0.0009  0.0045  0.0000 </r>
        <r>  0.0009  0.0006  0.0000 </r>
        <r>  0.0000  0.0000  0.0000 </r>
       </set>
       <set comment="band 142">
        <r>  0.0000  0.0067  0.0000 </r>
        <r>  0.0005  0.0018  0.0000 </r>
        <r>  0.0005  0.0018  0.0000 </r>
        <r>  0.0023  0.0088  0.0000 </r>
        <r>  0.0028  0.0020  0.0000 </r>
        <r>  0.0005  0.0018  0.0000 </r>
        <r>  0.0023  0.0088  0.0000 </r>
        <r>  0.0005  0.0018  0.0000 </r>
        <r>  0.0001  0.0023  0.0000 </r>
        <r>  0.0005  0.0018  0.0000 </r>
        <r>  0.0028  0.0020  0.0000 </r>
        <r>  0.0023  0.0088  0.0000 </r>
        <r>  0.0028  0.0020  0.0000 </r>
        <r>  0.0028  0.0020  0.0000 </r>
        <r>  0.0014  0.0034  0.0000 </r>
        <r>  0.0005  0.0018  0.0000 </r>
        <r>  0.0000  0.0009  0.0000 </r>
        <r>  0.0014  0.0034  0.0000 </r>
        <r>  0.0005  0.0018  0.0000 </r>
        <r>  0.0023  0.0088  0.0000 </r>
        <r>  0.0001  0.0023  0.0000 </r>
        <r>  0.0005  0.0018  0.0000 </r>
        <r>  0.0014  0.0034  0.0000 </r>
        <r>  0.0000  0.0009  0.0000 </r>
        <r>  0.0001  0.0023  0.0000 </r>
        <r>  0.0014  0.0034  0.0000 </r>
        <r>  0.0001  0.0023  0.0000 </r>
        <r>  0.0000  0.0019  0.0000 </r>
        <r>  0.0020  0.0029  0.0000 </r>
        <r>  0.0020  0.0029  0.0000 </r>
        <r>  0.0001  0.0018  0.0000 </r>
        <r>  0.0003  0.0113  0.0000 </r>
        <r>  0.0020  0.0029  0.0000 </r>
        <r>  0.0001  0.0018  0.0000 </r>
        <r>  0.0020  0.0029  0.0000 </r>
        <r>  0.0010  0.0051  0.0000 </r>
        <r>  0.0020  0.0029  0.0000 </r>
        <r>  0.0003  0.0113  0.0000 </r>
        <r>  0.0001  0.0018  0.0000 </r>
        <r>  0.0003  0.0113  0.0000 </r>
        <r>  0.0003  0.0113  0.0000 </r>
        <r>  0.0005  0.0005  0.0000 </r>
        <r>  0.0020  0.0029  0.0000 </r>
        <r>  0.0011  0.0072  0.0000 </r>
        <r>  0.0005  0.0005  0.0000 </r>
        <r>  0.0020  0.0029  0.0000 </r>
        <r>  0.0001  0.0018  0.0000 </r>
        <r>  0.0010  0.0051  0.0000 </r>
        <r>  0.0020  0.0029  0.0000 </r>
        <r>  0.0005  0.0005  0.0000 </r>
        <r>  0.0011  0.0072  0.0000 </r>
        <r>  0.0010  0.0051  0.0000 </r>
        <r>  0.0005  0.0005  0.0000 </r>
        <r>  0.0010  0.0051  0.0000 </r>
        <r>  0.0002  0.0000  0.0000 </r>
       </set>
       <set comment="band 143">
        <r>  0.0000  0.0146  0.0000 </r>
        <r>  0.0000  0.0053  0.0000 </r>
        <r>  0.0000  0.0053  0.0000 </r>
        <r>  0.0003  0.0037  0.0000 </r>
        <r>  0.0005  0.0022  0.0000 </r>
        <r>  0.0000  0.0053  0.0000 </r>
        <r>  0.0003  0.0037  0.0000 </r>
        <r>  0.0000  0.0053  0.0000 </r>
        <r>  0.0001  0.0006  0.0000 </r>
        <r>  0.0000  0.0053  0.0000 </r>
        <r>  0.0005  0.0022  0.0000 </r>
        <r>  0.0003  0.0037  0.0000 </r>
        <r>  0.0005  0.0022  0.0000 </r>
        <r>  0.0005  0.0022  0.0000 </r>
        <r>  0.0003  0.0062  0.0000 </r>
        <r>  0.0000  0.0053  0.0000 </r>
        <r>  0.0006  0.0084  0.0000 </r>
        <r>  0.0003  0.0062  0.0000 </r>
        <r>  0.0000  0.0053  0.0000 </r>
        <r>  0.0003  0.0037  0.0000 </r>
        <r>  0.0001  0.0006  0.0000 </r>
        <r>  0.0000  0.0053  0.0000 </r>
        <r>  0.0003  0.0062  0.0000 </r>
        <r>  0.0006  0.0084  0.0000 </r>
        <r>  0.0001  0.0006  0.0000 </r>
        <r>  0.0003  0.0062  0.0000 </r>
        <r>  0.0001  0.0006  0.0000 </r>
        <r>  0.0000  0.0022  0.0000 </r>
        <r>  0.0016  0.0025  0.0000 </r>
        <r>  0.0016  0.0025  0.0000 </r>
        <r>  0.0002  0.0004  0.0000 </r>
        <r>  0.0026  0.0012  0.0000 </r>
        <r>  0.0016  0.0025  0.0000 </r>
        <r>  0.0002  0.0004  0.0000 </r>
        <r>  0.0016  0.0025  0.0000 </r>
        <r>  0.0008  0.0013  0.0000 </r>
        <r>  0.0016  0.0025  0.0000 </r>
        <r>  0.0027  0.0012  0.0000 </r>
        <r>  0.0002  0.0004  0.0000 </r>
        <r>  0.0026  0.0012  0.0000 </r>
        <r>  0.0027  0.0012  0.0000 </r>
        <r>  0.0014  0.0032  0.0000 </r>
        <r>  0.0016  0.0025  0.0000 </r>
        <r>  0.0000  0.0116  0.0000 </r>
        <r>  0.0014  0.0032  0.0000 </r>
        <r>  0.0016  0.0025  0.0000 </r>
        <r>  0.0002  0.0004  0.0000 </r>
        <r>  0.0008  0.0013  0.0000 </r>
        <r>  0.0016  0.0025  0.0000 </r>
        <r>  0.0014  0.0032  0.0000 </r>
        <r>  0.0000  0.0116  0.0000 </r>
        <r>  0.0008  0.0013  0.0000 </r>
        <r>  0.0014  0.0032  0.0000 </r>
        <r>  0.0008  0.0013  0.0000 </r>
        <r>  0.0000  0.0004  0.0000 </r>
       </set>
       <set comment="band 144">
        <r>  0.0049  0.0000  0.0000 </r>
        <r>  0.0000  0.0066  0.0000 </r>
        <r>  0.0000  0.0068  0.0000 </r>
        <r>  0.0007  0.0056  0.0000 </r>
        <r>  0.0005  0.0016  0.0000 </r>
        <r>  0.0000  0.0067  0.0000 </r>
        <r>  0.0008  0.0056  0.0000 </r>
        <r>  0.0000  0.0067  0.0000 </r>
        <r>  0.0000  0.0022  0.0000 </r>
        <r>  0.0000  0.0067  0.0000 </r>
        <r>  0.0005  0.0016  0.0000 </r>
        <r>  0.0008  0.0056  0.0000 </r>
        <r>  0.0005  0.0016  0.0000 </r>
        <r>  0.0005  0.0016  0.0000 </r>
        <r>  0.0002  0.0099  0.0000 </r>
        <r>  0.0000  0.0068  0.0000 </r>
        <r>  0.0014  0.0001  0.0000 </r>
        <r>  0.0002  0.0098  0.0000 </r>
        <r>  0.0000  0.0067  0.0000 </r>
        <r>  0.0007  0.0055  0.0000 </r>
        <r>  0.0000  0.0023  0.0000 </r>
        <r>  0.0000  0.0066  0.0000 </r>
        <r>  0.0002  0.0100  0.0000 </r>
        <r>  0.0014  0.0002  0.0000 </r>
        <r>  0.0000  0.0022  0.0000 </r>
        <r>  0.0002  0.0099  0.0000 </r>
        <r>  0.0001  0.0022  0.0000 </r>
        <r>  0.0000  0.0006  0.0000 </r>
        <r>  0.0005  0.0062  0.0000 </r>
        <r>  0.0005  0.0062  0.0000 </r>
        <r>  0.0021  0.0012  0.0000 </r>
        <r>  0.0006  0.0029  0.0000 </r>
        <r>  0.0005  0.0062  0.0000 </r>
        <r>  0.0022  0.0011  0.0000 </r>
        <r>  0.0005  0.0062  0.0000 </r>
        <r>  0.0032  0.0030  0.0000 </r>
        <r>  0.0005  0.0062  0.0000 </r>
        <r>  0.0006  0.0030  0.0000 </r>
        <r>  0.0022  0.0011  0.0000 </r>
        <r>  0.0006  0.0029  0.0000 </r>
        <r>  0.0006  0.0030  0.0000 </r>
        <r>  0.0007  0.0033  0.0000 </r>
        <r>  0.0005  0.0062  0.0000 </r>
        <r>  0.0000  0.0003  0.0000 </r>
        <r>  0.0007  0.0033  0.0000 </r>
        <r>  0.0005  0.0062  0.0000 </r>
        <r>  0.0021  0.0011  0.0000 </r>
        <r>  0.0033  0.0030  0.0000 </r>
        <r>  0.0005  0.0061  0.0000 </r>
        <r>  0.0007  0.0033  0.0000 </r>
        <r>  0.0000  0.0002  0.0000 </r>
        <r>  0.0033  0.0030  0.0000 </r>
        <r>  0.0007  0.0033  0.0000 </r>
        <r>  0.0032  0.0030  0.0000 </r>
        <r>  0.0000  0.0007  0.0000 </r>
       </set>
      </set>
     </set>
    </set>
   </array>
  </projected>
 </calculation>
 <structure name="finalpos" >
  <crystal>
   <varray name="basis" >
    <v>       9.97646553       0.00000000       5.75991507 </v>
    <v>       3.32548851       9.40590192       5.75991507 </v>
    <v>       0.00000000       0.00000000      11.51983014 </v>
   </varray>
   <i name="volume">   1080.99386112 </i>
   <varray name="rec_basis" >
    <v>       0.10023590      -0.03543874       0.00000000 </v>
    <v>       0.00000000       0.10631623       0.00000000 </v>
    <v>      -0.05011795      -0.03543874       0.08680684 </v>
   </varray>
  </crystal>
  <varray name="positions" >
   <v>       0.29166667       0.29166667       0.29166667 </v>
   <v>       0.29083997       0.29083997       0.62391093 </v>
   <v>       0.29083997       0.29083997       0.96107580 </v>
   <v>       0.29083997       0.62391093       0.29083997 </v>
   <v>       0.28176070       0.62830199       0.62830199 </v>
   <v>       0.29083997       0.62391093       0.96107580 </v>
   <v>       0.29083997       0.96107580       0.29083997 </v>
   <v>       0.29083997       0.96107580       0.62391093 </v>
   <v>       0.29112909       0.95851253       0.95851253 </v>
   <v>       0.62391093       0.29083997       0.29083997 </v>
   <v>       0.62830199       0.28176070       0.62830199 </v>
   <v>       0.62391093       0.29083997       0.96107580 </v>
   <v>       0.62830199       0.62830199       0.28176070 </v>
   <v>       0.62830199       0.62830199       0.62830199 </v>
   <v>       0.62383487       0.62383487       0.95949846 </v>
   <v>       0.62391093       0.96107580       0.29083997 </v>
   <v>       0.62383487       0.95949846       0.62383487 </v>
   <v>       0.62383487       0.95949846       0.95949846 </v>
   <v>       0.96107580       0.29083997       0.29083997 </v>
   <v>       0.96107580       0.29083997       0.62391093 </v>
   <v>       0.95851253       0.29112909       0.95851253 </v>
   <v>       0.96107580       0.62391093       0.29083997 </v>
   <v>       0.95949846       0.62383487       0.62383487 </v>
   <v>       0.95949846       0.62383487       0.95949846 </v>
   <v>       0.95851253       0.95851253       0.29112909 </v>
   <v>       0.95949846       0.95949846       0.62383487 </v>
   <v>       0.95851253       0.95851253       0.95851253 </v>
   <v>       0.04166667       0.04166667       0.04166667 </v>
   <v>       0.04125588       0.04125588       0.37490352 </v>
   <v>       0.04125588       0.04125588       0.70925140 </v>
   <v>       0.04125588       0.37490352       0.04125588 </v>
   <v>       0.04234771       0.37477299       0.37477299 </v>
   <v>       0.04125588       0.37490352       0.70925140 </v>
   <v>       0.04125588       0.70925140       0.04125588 </v>
   <v>       0.04125588       0.70925140       0.37490352 </v>
   <v>       0.03230816       0.71145283       0.71145283 </v>
   <v>       0.37490352       0.04125588       0.04125588 </v>
   <v>       0.37477299       0.04234771       0.37477299 </v>
   <v>       0.37490352       0.04125588       0.70925140 </v>
   <v>       0.37477299       0.37477299       0.04234771 </v>
   <v>       0.37477299       0.37477299       0.37477299 </v>
   <v>       0.37209204       0.37209204       0.71124130 </v>
   <v>       0.37490352       0.70925140       0.04125588 </v>
   <v>       0.37209204       0.71124130       0.37209204 </v>
   <v>       0.37209204       0.71124130       0.71124130 </v>
   <v>       0.70925140       0.04125588       0.04125588 </v>
   <v>       0.70925140       0.04125588       0.37490352 </v>
   <v>       0.71145283       0.03230816       0.71145283 </v>
   <v>       0.70925140       0.37490352       0.04125588 </v>
   <v>       0.71124130       0.37209204       0.37209204 </v>
   <v>       0.71124130       0.37209204       0.71124130 </v>
   <v>       0.71145283       0.71145283       0.03230816 </v>
   <v>       0.71124130       0.71124130       0.37209204 </v>
   <v>       0.71145283       0.71145283       0.71145283 </v>
   <v>       0.54166667       0.54166667       0.54166667 </v>
  </varray>
 </structure>
</modeling>
