 vasp.6.3.0 20Jan22 (build Mar 07 2022 09:35:52) complex                        
  
 executed on             LinuxIFC date 2025.09.11  13:28:13
 running on   64 total cores
 distrk:  each k-point on   64 cores,    1 groups
 distr:  one band on NCORE=   1 cores,   64 groups


--------------------------------------------------------------------------------------------------------


 INCAR:
   ALGO = Normal
   AMIX = 0.2
   EDIFF = 1e-06
   EDIFFG = -0.05
   ENCUT = 550
   IBRION = 2
   ISIF = 2
   ISMEAR = 0
   ISPIN = 1
   ISYM = 2
   LCHARG = .FALSE.
   LORBIT = 11
   LREAL = .FALSE.
   LVTOT = True
   LWAVE = .FALSE.
   NELECT = 391.0
   NELM = 200
   NSW = 0
   SIGMA = 0.05
   SYSTEM = SiO2

 POTCAR:    PAW_PBE Si 05Jan2001                  
 POTCAR:    PAW_PBE O 08Apr2002                   
 WARNING: For LVTOT=.TRUE., VASP.5.x writes the TOTAL local potential to the
     file LOCPOT. If you want only the Hartree contributions, use LVHAR=.TRUE.
     instead. 

 -----------------------------------------------------------------------------
|                                                                             |
|           W    W    AA    RRRRR   N    N  II  N    N   GGGG   !!!           |
|           W    W   A  A   R    R  NN   N  II  NN   N  G    G  !!!           |
|           W    W  A    A  R    R  N N  N  II  N N  N  G       !!!           |
|           W WW W  AAAAAA  RRRRR   N  N N  II  N  N N  G  GGG   !            |
|           WW  WW  A    A  R   R   N   NN  II  N   NN  G    G                |
|           W    W  A    A  R    R  N    N  II  N    N   GGGG   !!!           |
|                                                                             |
|     For optimal performance we recommend to set                             |
|       NCORE = 2 up to number-of-cores-per-socket                            |
|     NCORE specifies how many cores store one orbital (NPAR=cpu/NCORE).      |
|     This setting can greatly improve the performance of VASP for DFT.       |
|     The default, NCORE=1 might be grossly inefficient on modern             |
|     multi-core architectures or massively parallel machines. Do your        |
|     own testing! More info at https://www.vasp.at/wiki/index.php/NCORE      |
|     Unfortunately you need to use the default for GW and RPA                |
|     calculations (for HF NCORE is supported but not extensively tested      |
|     yet).                                                                   |
|                                                                             |
 -----------------------------------------------------------------------------

 POTCAR:    PAW_PBE Si 05Jan2001                  
   VRHFIN =Si: s2p2                                                                                 
   LEXCH  = PE                                                                                      
   EATOM  =   103.0669 eV,    7.5752 Ry                                                             
                                                                                                    
   TITEL  = PAW_PBE Si 05Jan2001                                                                    
   LULTRA =        F    use ultrasoft PP ?                                                          
   IUNSCR =        1    unscreen: 0-lin 1-nonlin 2-no                                               
   RPACOR =    1.500    partial core radius                                                         
   POMASS =   28.085; ZVAL   =    4.000    mass and valenz                                          
   RCORE  =    1.900    outmost cutoff radius                                                       
   RWIGS  =    2.480; RWIGS  =    1.312    wigner-seitz radius (au A)                               
   ENMAX  =  245.345; ENMIN  =  184.009 eV                                                          
   ICORE  =        2    local potential                                                             
   LCOR   =        T    correct aug charges                                                         
   LPAW   =        T    paw PP                                                                      
   EAUG   =  322.069                                                                                
   DEXC   =    0.000                                                                                
   RMAX   =    1.950    core radius for proj-oper                                                   
   RAUG   =    1.300    factor for augmentation sphere                                              
   RDEP   =    1.993    radius for radial grids                                                     
   RDEPT  =    1.837    core radius for aug-charge                                                  
                                                                                                    
   Atomic configuration                                                                             
    6 entries                                                                                       
     n  l   j            E        occ.                                                              
     1  0  0.50     -1785.8828   2.0000                                                             
     2  0  0.50      -139.4969   2.0000                                                             
     2  1  1.50       -95.5546   6.0000                                                             
     3  0  0.50       -10.8127   2.0000                                                             
     3  1  0.50        -4.0811   2.0000                                                             
     3  2  1.50        -4.0817   0.0000                                                             
   Description                                                                                      
     l       E           TYP  RCUT    TYP  RCUT                                                     
     0    -10.8127223     23  1.900                                                                 
     0     -7.6451159     23  1.900                                                                 
     1     -4.0811372     23  1.900                                                                 
     1      2.4879257     23  1.900                                                                 
     2     -4.0817478      7  1.900                                                                 
  local pseudopotential read in
  partial core-charges read in
  partial kinetic energy density read in
  atomic valenz-charges read in
  non local Contribution for L=           0  read in
    real space projection operators read in
  non local Contribution for L=           0  read in
    real space projection operators read in
  non local Contribution for L=           1  read in
    real space projection operators read in
  non local Contribution for L=           1  read in
    real space projection operators read in
    PAW grid and wavefunctions read in
 
   number of l-projection  operators is LMAX  =           4
   number of lm-projection operators is LMMAX =           8
 
 POTCAR:    PAW_PBE O 08Apr2002                   
   VRHFIN =O: s2p4                                                                                  
   LEXCH  = PE                                                                                      
   EATOM  =   432.3788 eV,   31.7789 Ry                                                             
                                                                                                    
   TITEL  = PAW_PBE O 08Apr2002                                                                     
   LULTRA =        F    use ultrasoft PP ?                                                          
   IUNSCR =        1    unscreen: 0-lin 1-nonlin 2-no                                               
   RPACOR =    1.200    partial core radius                                                         
   POMASS =   16.000; ZVAL   =    6.000    mass and valenz                                          
   RCORE  =    1.520    outmost cutoff radius                                                       
   RWIGS  =    1.550; RWIGS  =    0.820    wigner-seitz radius (au A)                               
   ENMAX  =  400.000; ENMIN  =  300.000 eV                                                          
   ICORE  =        2    local potential                                                             
   LCOR   =        T    correct aug charges                                                         
   LPAW   =        T    paw PP                                                                      
   EAUG   =  605.392                                                                                
   DEXC   =    0.000                                                                                
   RMAX   =    1.553    core radius for proj-oper                                                   
   RAUG   =    1.300    factor for augmentation sphere                                              
   RDEP   =    1.550    radius for radial grids                                                     
   RDEPT  =    1.329    core radius for aug-charge                                                  
                                                                                                    
   Atomic configuration                                                                             
    4 entries                                                                                       
     n  l   j            E        occ.                                                              
     1  0  0.50      -514.6923   2.0000                                                             
     2  0  0.50       -23.9615   2.0000                                                             
     2  1  0.50        -9.0305   4.0000                                                             
     3  2  1.50        -9.5241   0.0000                                                             
   Description                                                                                      
     l       E           TYP  RCUT    TYP  RCUT                                                     
     0    -23.9615318     23  1.200                                                                 
     0     -9.5240782     23  1.200                                                                 
     1     -9.0304911     23  1.520                                                                 
     1      8.1634956     23  1.520                                                                 
     2     -9.5240782      7  1.500                                                                 
  local pseudopotential read in
  partial core-charges read in
  partial kinetic energy density read in
  kinetic energy density of atom read in
  atomic valenz-charges read in
  non local Contribution for L=           0  read in
    real space projection operators read in
  non local Contribution for L=           0  read in
    real space projection operators read in
  non local Contribution for L=           1  read in
    real space projection operators read in
  non local Contribution for L=           1  read in
    real space projection operators read in
    PAW grid and wavefunctions read in
 
   number of l-projection  operators is LMAX  =           4
   number of lm-projection operators is LMMAX =           8
 
 -----------------------------------------------------------------------------
|                                                                             |
|               ----> ADVICE to this user running VASP <----                  |
|                                                                             |
|     You have a (more or less) 'large supercell' and for larger cells it     |
|     might be more efficient to use real-space projection operators.         |
|     Therefore, try LREAL= Auto in the INCAR file.                           |
|     Mind: For very accurate calculation, you might also keep the            |
|     reciprocal projection scheme (i.e. LREAL=.FALSE.).                      |
|                                                                             |
 -----------------------------------------------------------------------------

  PAW_PBE Si 05Jan2001                  :
 energy of atom  1       EATOM= -103.0669
 kinetic energy error for atom=    0.0004 (will be added to EATOM!!)
  PAW_PBE O 08Apr2002                   :
 energy of atom  2       EATOM= -432.3788
 kinetic energy error for atom=    0.0194 (will be added to EATOM!!)
 
 
 POSCAR: Si24 O49
  positions in direct lattice
  No initial velocities read in
 exchange correlation table for  LEXCH =        8
   RHO(1)=    0.500       N(1)  =     2000
   RHO(2)=  100.500       N(2)  =     4000

 VTST: version 4.2, (08/11/21)

 CHAIN: initializing optimizer
 
 OPT: Using VASP Conjugate-Gradient optimizer
 CHAIN: Read ICHAIN            0
 
 POSCAR: Si24 O49
  positions in direct lattice
  No initial velocities read in
 


--------------------------------------------------------------------------------------------------------


 ion  position               nearest neighbor table
   1  0.266  0.266  0.000-  66 1.61  33 1.61  49 1.62  26 1.62  14 3.06  19 3.06  17 3.06  10 3.06

   2  0.266  0.266  0.500-  65 1.61  34 1.61  50 1.62  25 1.62  13 3.06  20 3.06  18 3.06   9 3.06

   3  0.266  0.766  0.000-  68 1.61  35 1.61  51 1.62  28 1.62  16 3.06  17 3.06  12 3.06  19 3.06

   4  0.266  0.766  0.500-  67 1.61  36 1.61  52 1.62  27 1.62  15 3.06  18 3.06  11 3.06  20 3.06

   5  0.766  0.266  0.000-  70 1.61  37 1.61  53 1.62  30 1.62  10 3.06  23 3.06  21 3.06  14 3.06

   6  0.766  0.266  0.500-  69 1.61  38 1.61  54 1.62  29 1.62   9 3.06  24 3.06  22 3.06  13 3.06

   7  0.766  0.766  0.000-  72 1.61  39 1.61  55 1.62  32 1.62  73 2.52  21 3.06  12 3.06  23 3.06
                            16 3.06
   8  0.766  0.766  0.500-  71 1.61  40 1.61  56 1.62  31 1.62  11 3.06  22 3.06  15 3.06  24 3.06

   9  0.000  0.234  0.333-  25 1.61  61 1.61  41 1.62  69 1.62   6 3.06   2 3.06  19 3.06  21 3.06

  10  0.000  0.234  0.833-  26 1.61  62 1.61  42 1.62  70 1.62   5 3.06   1 3.06  20 3.06  22 3.06

  11  0.000  0.734  0.333-  27 1.61  63 1.61  43 1.62  71 1.62   8 3.06   4 3.06  17 3.06  23 3.06

  12  0.000  0.734  0.833-  28 1.61  64 1.61  44 1.62  72 1.62   7 3.06   3 3.06  18 3.06  24 3.06

  13  0.500  0.234  0.333-  29 1.61  57 1.61  45 1.62  65 1.62   2 3.06   6 3.06  17 3.06  23 3.06

  14  0.500  0.234  0.833-  30 1.61  58 1.61  46 1.62  66 1.62   1 3.06   5 3.06  18 3.06  24 3.06

  15  0.500  0.734  0.333-  31 1.61  59 1.61  47 1.62  67 1.62   4 3.06   8 3.06  19 3.06  21 3.06

  16  0.500  0.734  0.833-  32 1.61  60 1.61  48 1.62  68 1.62   3 3.06   7 3.06  20 3.06  22 3.06

  17  0.234  0.000  0.167-  49 1.61  43 1.61  35 1.62  57 1.62   3 3.06   1 3.06  11 3.06  13 3.06

  18  0.234  0.000  0.667-  50 1.61  44 1.61  36 1.62  58 1.62   4 3.06   2 3.06  12 3.06  14 3.06

  19  0.234  0.500  0.167-  51 1.61  41 1.61  33 1.62  59 1.62  73 2.52   1 3.06   3 3.06  15 3.06
                             9 3.06
  20  0.234  0.500  0.667-  52 1.61  42 1.61  34 1.62  60 1.62   2 3.06   4 3.06  10 3.06  16 3.06

  21  0.734  0.000  0.167-  53 1.61  47 1.61  39 1.62  61 1.62   7 3.06   5 3.06   9 3.06  15 3.06

  22  0.734  0.000  0.667-  54 1.61  48 1.61  40 1.62  62 1.62   8 3.06   6 3.06  10 3.06  16 3.06

  23  0.734  0.500  0.167-  55 1.61  45 1.61  37 1.62  63 1.62   5 3.06   7 3.06  11 3.06  13 3.06

  24  0.734  0.500  0.667-  56 1.61  46 1.61  38 1.62  64 1.62   6 3.06   8 3.06  12 3.06  14 3.06

  25  0.135  0.207  0.392-   9 1.61   2 1.62
  26  0.135  0.207  0.892-  10 1.61   1 1.62
  27  0.135  0.707  0.392-  11 1.61   4 1.62
  28  0.135  0.707  0.892-  12 1.61   3 1.62
  29  0.635  0.207  0.392-  13 1.61   6 1.62
  30  0.635  0.207  0.892-  14 1.61   5 1.62
  31  0.635  0.707  0.392-  15 1.61   8 1.62
  32  0.635  0.707  0.892-  16 1.61   7 1.62
  33  0.293  0.428  0.059-   1 1.61  19 1.62
  34  0.293  0.428  0.559-   2 1.61  20 1.62
  35  0.293  0.928  0.059-   3 1.61  17 1.62
  36  0.293  0.928  0.559-   4 1.61  18 1.62
  37  0.793  0.428  0.059-   5 1.61  23 1.62
  38  0.793  0.428  0.559-   6 1.61  24 1.62
  39  0.793  0.928  0.059-   7 1.61  21 1.62
  40  0.793  0.928  0.559-   8 1.61  22 1.62
  41  0.072  0.365  0.226-  19 1.61   9 1.62
  42  0.072  0.365  0.726-  20 1.61  10 1.62
  43  0.072  0.865  0.226-  17 1.61  11 1.62
  44  0.072  0.865  0.726-  18 1.61  12 1.62
  45  0.572  0.365  0.226-  23 1.61  13 1.62
  46  0.572  0.365  0.726-  24 1.61  14 1.62
  47  0.572  0.865  0.226-  21 1.61  15 1.62
  48  0.572  0.865  0.726-  22 1.61  16 1.62
  49  0.207  0.135  0.108-  17 1.61   1 1.62
  50  0.207  0.135  0.608-  18 1.61   2 1.62
  51  0.207  0.635  0.108-  19 1.61   3 1.62
  52  0.207  0.635  0.608-  20 1.61   4 1.62
  53  0.707  0.135  0.108-  21 1.61   5 1.62
  54  0.707  0.135  0.608-  22 1.61   6 1.62
  55  0.707  0.635  0.108-  23 1.61   7 1.62
  56  0.707  0.635  0.608-  24 1.61   8 1.62
  57  0.365  0.072  0.274-  13 1.61  17 1.62
  58  0.365  0.072  0.774-  14 1.61  18 1.62
  59  0.365  0.572  0.274-  15 1.61  19 1.62
  60  0.365  0.572  0.774-  16 1.61  20 1.62
  61  0.865  0.072  0.274-   9 1.61  21 1.62
  62  0.865  0.072  0.774-  10 1.61  22 1.62
  63  0.865  0.572  0.274-  11 1.61  23 1.62
  64  0.865  0.572  0.774-  12 1.61  24 1.62
  65  0.428  0.293  0.441-   2 1.61  13 1.62
  66  0.428  0.293  0.941-   1 1.61  14 1.62
  67  0.428  0.793  0.441-   4 1.61  15 1.62
  68  0.428  0.793  0.941-   3 1.61  16 1.62
  69  0.928  0.293  0.441-   6 1.61   9 1.62
  70  0.928  0.293  0.941-   5 1.61  10 1.62
  71  0.928  0.793  0.441-   8 1.61  11 1.62
  72  0.928  0.793  0.941-   7 1.61  12 1.62
  73  0.500  0.697  0.083-  19 2.52   7 2.52
 
  LATTYP: Found a hexagonal cell.
 ALAT       =     9.8299323535
 C/A-ratio  =     1.1050536148
  
  Lattice vectors:
  
 A1 = (   4.9149661767,  -8.5129711356,   0.0000000000)
 A2 = (   4.9149661767,   8.5129711356,   0.0000000000)
 A3 = (   0.0000000000,   0.0000000000,  10.8626022800)


Analysis of symmetry for initial positions (statically):
=====================================================================
 Subroutine PRICEL returns:
 Original cell was already a primitive cell.
 

 Routine SETGRP: Setting up the symmetry group for a 
 hexagonal supercell.


 Subroutine GETGRP returns: Found  2 space group operations
 (whereof  1 operations were pure point group operations)
 out of a pool of 24 trial point group operations.


The static configuration has the point symmetry C_1 .
 The point group associated with its full space group is C_2 .


Analysis of symmetry for dynamics (positions and initial velocities):
=====================================================================
 Subroutine PRICEL returns:
 Original cell was already a primitive cell.
 

 Routine SETGRP: Setting up the symmetry group for a 
 hexagonal supercell.


 Subroutine GETGRP returns: Found  2 space group operations
 (whereof  1 operations were pure point group operations)
 out of a pool of 24 trial point group operations.


The dynamic configuration has the point symmetry C_1 .
 The point group associated with its full space group is C_2 .


 Subroutine INISYM returns: Found  2 space group operations
 (whereof  1 operations are pure point group operations),
 and found     1 'primitive' translations


----------------------------------------------------------------------------------------

                                     Primitive cell                                     

  volume of cell :     909.0035

  direct lattice vectors                    reciprocal lattice vectors
     4.914966177 -8.512971136  0.000000000     0.101730100 -0.058733901  0.000000000
     4.914966177  8.512971136  0.000000000     0.101730100  0.058733901  0.000000000
     0.000000000  0.000000000 10.862602280     0.000000000  0.000000000  0.092058972

  length of vectors
     9.829932353  9.829932353 10.862602280     0.117467801  0.117467801  0.092058972

  position of ions in fractional coordinates (direct lattice)
     0.265544295  0.265544295  0.000000000
     0.265544295  0.265544295  0.500000000
     0.265544295  0.765544295  0.000000000
     0.265544295  0.765544295  0.500000000
     0.765544295  0.265544295  0.000000000
     0.765544295  0.265544295  0.500000000
     0.765544295  0.765544295  0.000000000
     0.765544295  0.765544295  0.500000000
     1.000000000  0.234455705  0.333333333
     1.000000000  0.234455705  0.833333333
     1.000000000  0.734455705  0.333333333
     1.000000000  0.734455705  0.833333333
     0.500000000  0.234455705  0.333333333
     0.500000000  0.234455705  0.833333333
     0.500000000  0.734455705  0.333333333
     0.500000000  0.734455705  0.833333333
     0.234455705  1.000000000  0.166666667
     0.234455705  1.000000000  0.666666667
     0.234455705  0.500000000  0.166666667
     0.234455705  0.500000000  0.666666667
     0.734455705  1.000000000  0.166666667
     0.734455705  1.000000000  0.666666667
     0.734455705  0.500000000  0.166666667
     0.734455705  0.500000000  0.666666667
     0.134611555  0.206697145  0.392445490
     0.134611555  0.206697145  0.892445490
     0.134611555  0.706697145  0.392445490
     0.134611555  0.706697145  0.892445490
     0.634611555  0.206697145  0.392445490
     0.634611555  0.206697145  0.892445490
     0.634611555  0.706697145  0.392445490
     0.634611555  0.706697145  0.892445490
     0.293302855  0.427914410  0.059112157
     0.293302855  0.427914410  0.559112157
     0.293302855  0.927914410  0.059112157
     0.293302855  0.927914410  0.559112157
     0.793302855  0.427914410  0.059112157
     0.793302855  0.427914410  0.559112157
     0.793302855  0.927914410  0.059112157
     0.793302855  0.927914410  0.559112157
     0.072085590  0.365388445  0.225778823
     0.072085590  0.365388445  0.725778823
     0.072085590  0.865388445  0.225778823
     0.072085590  0.865388445  0.725778823
     0.572085590  0.365388445  0.225778823
     0.572085590  0.365388445  0.725778823
     0.572085590  0.865388445  0.225778823
     0.572085590  0.865388445  0.725778823
     0.206697145  0.134611555  0.107554510
     0.206697145  0.134611555  0.607554510
     0.206697145  0.634611555  0.107554510
     0.206697145  0.634611555  0.607554510
     0.706697145  0.134611555  0.107554510
     0.706697145  0.134611555  0.607554510
     0.706697145  0.634611555  0.107554510
     0.706697145  0.634611555  0.607554510
     0.365388445  0.072085590  0.274221177
     0.365388445  0.072085590  0.774221177
     0.365388445  0.572085590  0.274221177
     0.365388445  0.572085590  0.774221177
     0.865388445  0.072085590  0.274221177
     0.865388445  0.072085590  0.774221177
     0.865388445  0.572085590  0.274221177
     0.865388445  0.572085590  0.774221177
     0.427914410  0.293302855  0.440887843
     0.427914410  0.293302855  0.940887843
     0.427914410  0.793302855  0.440887843
     0.427914410  0.793302855  0.940887843
     0.927914410  0.293302855  0.440887843
     0.927914410  0.293302855  0.940887843
     0.927914410  0.793302855  0.440887843
     0.927914410  0.793302855  0.940887843
     0.500000000  0.696834352  0.083333333

  ion indices of the primitive-cell ions
   primitive index   ion index
                 1           1
                 2           2
                 3           3
                 4           4
                 5           5
                 6           6
                 7           7
                 8           8
                 9           9
                10          10
                11          11
                12          12
                13          13
                14          14
                15          15
                16          16
                17          17
                18          18
                19          19
                20          20
                21          21
                22          22
                23          23
                24          24
                25          25
                26          26
                27          27
                28          28
                29          29
                30          30
                31          31
                32          32
                33          33
                34          34
                35          35
                36          36
                37          37
                38          38
                39          39
                40          40
                41          41
                42          42
                43          43
                44          44
                45          45
                46          46
                47          47
                48          48
                49          49
                50          50
                51          51
                52          52
                53          53
                54          54
                55          55
                56          56
                57          57
                58          58
                59          59
                60          60
                61          61
                62          62
                63          63
                64          64
                65          65
                66          66
                67          67
                68          68
                69          69
                70          70
                71          71
                72          72
                73          73

----------------------------------------------------------------------------------------

 
 
 KPOINTS: pymatgen with grid density = 1000 / numb

Automatic generation of k-mesh.
 Grid dimensions read from file:
 generate k-points for:    2    2    2

 Generating k-lattice:

  Cartesian coordinates                     Fractional coordinates (reciprocal lattice)
     0.050865050 -0.029366950  0.000000000     0.500000000 -0.000000000  0.000000000
     0.050865050  0.029366950  0.000000000    -0.000000000  0.500000000  0.000000000
     0.000000000  0.000000000  0.046029486     0.000000000  0.000000000  0.500000000

  Length of vectors
     0.058733901  0.058733901  0.046029486

  Shift w.r.t. Gamma in fractional coordinates (k-lattice)
     0.000000000  0.000000000  0.000000000

 
 Subroutine IBZKPT returns following result:
 ===========================================
 
 Found      6 irreducible k-points:
 
 Following reciprocal coordinates:
            Coordinates               Weight
  0.000000  0.000000  0.000000      1.000000
  0.500000  0.000000  0.000000      1.000000
  0.000000  0.500000  0.000000      2.000000
  0.000000  0.000000  0.500000      1.000000
  0.500000  0.000000  0.500000      1.000000
  0.000000  0.500000  0.500000      2.000000
 
 Following cartesian coordinates:
            Coordinates               Weight
  0.000000  0.000000  0.000000      1.000000
  0.050865 -0.029367  0.000000      1.000000
  0.050865  0.029367  0.000000      2.000000
  0.000000  0.000000  0.046029      1.000000
  0.050865 -0.029367  0.046029      1.000000
  0.050865  0.029367  0.046029      2.000000
 


--------------------------------------------------------------------------------------------------------




 Dimension of arrays:
   k-points           NKPTS =      6   k-points in BZ     NKDIM =      6   number of bands    NBANDS=    256
   number of dos      NEDOS =    301   number of ions     NIONS =     73
   non local maximal  LDIM  =      4   non local SUM 2l+1 LMDIM =      8
   total plane-waves  NPLWV = 200704
   max r-space proj   IRMAX =      1   max aug-charges    IRDMAX=   7581
   dimension x,y,z NGX =    56 NGY =   56 NGZ =   64
   dimension x,y,z NGXF=   112 NGYF=  112 NGZF=  128
   support grid    NGXF=   112 NGYF=  112 NGZF=  128
   ions per type =              24  49
   NGX,Y,Z   is equivalent  to a cutoff of   9.47,  9.47,  9.79 a.u.
   NGXF,Y,Z  is equivalent  to a cutoff of  18.94, 18.94, 19.59 a.u.

 SYSTEM =  SiO2                                    
 POSCAR =  Si24 O49                                

 Startparameter for this run:
   NWRITE =      2    write-flag & timer
   PREC   = normal    normal or accurate (medium, high low for compatibility)
   ISTART =      0    job   : 0-new  1-cont  2-samecut
   ICHARG =      2    charge: 1-file 2-atom 10-const
   ISPIN  =      1    spin polarized calculation?
   LNONCOLLINEAR =      F non collinear calculations
   LSORBIT =      F    spin-orbit coupling
   INIWAV =      1    electr: 0-lowe 1-rand  2-diag
   LASPH  =      F    aspherical Exc in radial PAW
 Electronic Relaxation 1
   ENCUT  =  550.0 eV  40.42 Ry    6.36 a.u.  18.80 18.80 20.77*2*pi/ulx,y,z
   ENINI  =  550.0     initial cutoff
   ENAUG  =  605.4 eV  augmentation charge cutoff
   NELM   =    200;   NELMIN=  2; NELMDL= -5     # of ELM steps 
   EDIFF  = 0.1E-05   stopping-criterion for ELM
   LREAL  =      F    real-space projection
   NLSPLINE    = F    spline interpolate recip. space projectors
   LCOMPAT=      F    compatible to vasp.4.4
   GGA_COMPAT  = T    GGA compatible to vasp.4.4-vasp.4.6
   LMAXPAW     = -100 max onsite density
   LMAXMIX     =    2 max onsite mixed and CHGCAR
   VOSKOWN=      0    Vosko Wilk Nusair interpolation
   ROPT   =    0.00000   0.00000
 Ionic relaxation
   EDIFFG = -.5E-01   stopping-criterion for IOM
   NSW    =      0    number of steps for IOM
   NBLOCK =      1;   KBLOCK =      1    inner block; outer block 
   IBRION =     -1    ionic relax: 0-MD 1-quasi-New 2-CG
   NFREE  =      1    steps in history (QN), initial steepest desc. (CG)
   ISIF   =      2    stress and relaxation
   IWAVPR =     10    prediction:  0-non 1-charg 2-wave 3-comb
   ISYM   =      2    0-nonsym 1-usesym 2-fastsym
   LCORR  =      T    Harris-Foulkes like correction to forces

   POTIM  = 0.5000    time-step for ionic-motion
   TEIN   =    0.0    initial temperature
   TEBEG  =    0.0;   TEEND  =   0.0 temperature during run
   SMASS  =  -3.00    Nose mass-parameter (am)
   estimated Nose-frequenzy (Omega)   =  0.10E-29 period in steps = 0.13E+47 mass=  -0.221E-26a.u.
   SCALEE = 1.0000    scale energy and forces
   NPACO  =    256;   APACO  = 10.0  distance and # of slots for P.C.
   PSTRESS=    0.0 pullay stress

  Mass of Ions in am
   POMASS =  28.09 16.00
  Ionic Valenz
   ZVAL   =   4.00  6.00
  Atomic Wigner-Seitz radii
   RWIGS  =  -1.00 -1.00
  virtual crystal weights 
   VCA    =   1.00  1.00
   NELECT =     391.0000    total number of electrons
   NUPDOWN=      -1.0000    fix difference up-down

 DOS related values:
   EMIN   =  10.00;   EMAX   =-10.00  energy-range for DOS
   EFERMI =   0.00
   ISMEAR =     0;   SIGMA  =   0.05  broadening in eV -4-tet -1-fermi 0-gaus

 Electronic relaxation 2 (details)
   IALGO  =     38    algorithm
   LDIAG  =      T    sub-space diagonalisation (order eigenvalues)
   LSUBROT=      F    optimize rotation matrix (better conditioning)
   TURBO    =      0    0=normal 1=particle mesh
   IRESTART =      0    0=no restart 2=restart with 2 vectors
   NREBOOT  =      0    no. of reboots
   NMIN     =      0    reboot dimension
   EREF     =   0.00    reference energy to select bands
   IMIX   =      4    mixing-type and parameters
     AMIX     =   0.20;   BMIX     =  1.00
     AMIX_MAG =   0.80;   BMIX_MAG =  1.00
     AMIN     =   0.10
     WC   =   100.;   INIMIX=   1;  MIXPRE=   1;  MAXMIX= -45

 Intra band minimization:
   WEIMIN = 0.0000     energy-eigenvalue tresh-hold
   EBREAK =  0.98E-09  absolut break condition
   DEPER  =   0.30     relativ break condition  

   TIME   =   0.40     timestep for ELM

  volume/ion in A,a.u.               =      12.45        84.03
  Fermi-wavevector in a.u.,A,eV,Ry     =   1.235792  2.335307 20.778556  1.527181
  Thomas-Fermi vector in A             =   2.370427
 
 Write flags
   LWAVE        =      F    write WAVECAR
   LDOWNSAMPLE  =      F    k-point downsampling of WAVECAR
   LCHARG       =      F    write CHGCAR
   LVTOT        =      T    write LOCPOT, total local potential
   LVHAR        =      F    write LOCPOT, Hartree potential only
   LELF         =      F    write electronic localiz. function (ELF)
   LORBIT       =     11    0 simple, 1 ext, 2 COOP (PROOUT), +10 PAW based schemes


 Dipole corrections
   LMONO  =      F    monopole corrections only (constant potential shift)
   LDIPOL =      F    correct potential (dipole corrections)
   IDIPOL =      0    1-x, 2-y, 3-z, 4-all directions 
   EPSILON=  1.0000000 bulk dielectric constant

 Exchange correlation treatment:
   GGA     =    --    GGA type
   LEXCH   =     8    internal setting for exchange type
   LIBXC   =     F    Libxc                    
   VOSKOWN =     0    Vosko Wilk Nusair interpolation
   LHFCALC =     F    Hartree Fock is set to
   LHFONE  =     F    Hartree Fock one center treatment
   AEXX    =    0.0000 exact exchange contribution

 Linear response parameters
   LEPSILON=     F    determine dielectric tensor
   LRPA    =     F    only Hartree local field effects (RPA)
   LNABLA  =     F    use nabla operator in PAW spheres
   LVEL    =     F    velocity operator in full k-point grid
   CSHIFT  =0.1000    complex shift for real part using Kramers Kronig
   OMEGAMAX=  -1.0    maximum frequency
   DEG_THRESHOLD= 0.2000000E-02 threshold for treating states as degnerate
   RTIME   =   -0.100 relaxation time in fs
  (WPLASMAI=    0.000 imaginary part of plasma frequency in eV, 0.658/RTIME)
   DFIELD  = 0.0000000 0.0000000 0.0000000 field for delta impulse in time
 
  Optional k-point grid parameters
   LKPOINTS_OPT  =     F    use optional k-point grid
   KPOINTS_OPT_MODE=     1    mode for optional k-point grid
 
 Orbital magnetization related:
   ORBITALMAG=     F  switch on orbital magnetization
   LCHIMAG   =     F  perturbation theory with respect to B field
   DQ        =  0.001000  dq finite difference perturbation B field
   LLRAUG    =     F  two centre corrections for induced B field



--------------------------------------------------------------------------------------------------------


 Static calculation
 charge density and potential will be updated during run
 non-spin polarized calculation
 Variant of blocked Davidson
 Davidson routine will perform the subspace rotation
 perform sub-space diagonalisation
    after iterative eigenvector-optimisation
 modified Broyden-mixing scheme, WC =      100.0
 initial mixing is a Kerker type mixing with AMIX =  0.2000 and BMIX =      1.0000
 Hartree-type preconditioning will be used
 using additional bands           60
 reciprocal scheme for non local part
 use partial core corrections
 calculate Harris-corrections to forces 
   (improved forces if not selfconsistent)
 use gradient corrections 
 use of overlap-Matrix (Vanderbilt PP)
 Gauss-broadening in eV      SIGMA  =   0.05


--------------------------------------------------------------------------------------------------------


  energy-cutoff  :      550.00
  volume of cell :      909.00
      direct lattice vectors                 reciprocal lattice vectors
     4.914966177 -8.512971136  0.000000000     0.101730100 -0.058733901  0.000000000
     4.914966177  8.512971136  0.000000000     0.101730100  0.058733901  0.000000000
     0.000000000  0.000000000 10.862602280     0.000000000  0.000000000  0.092058972

  length of vectors
     9.829932353  9.829932353 10.862602280     0.117467801  0.117467801  0.092058972


 
 k-points in units of 2pi/SCALE and weight: pymatgen with grid density = 1000 / numb
   0.00000000  0.00000000  0.00000000       0.125
   0.05086505 -0.02936695  0.00000000       0.125
   0.05086505  0.02936695  0.00000000       0.250
   0.00000000  0.00000000  0.04602949       0.125
   0.05086505 -0.02936695  0.04602949       0.125
   0.05086505  0.02936695  0.04602949       0.250
 
 k-points in reciprocal lattice and weights: pymatgen with grid density = 1000 / numb
   0.00000000  0.00000000  0.00000000       0.125
   0.50000000  0.00000000  0.00000000       0.125
   0.00000000  0.50000000  0.00000000       0.250
   0.00000000  0.00000000  0.50000000       0.125
   0.50000000  0.00000000  0.50000000       0.125
   0.00000000  0.50000000  0.50000000       0.250
 
 position of ions in fractional coordinates (direct lattice) 
   0.26554429  0.26554429  0.00000000
   0.26554429  0.26554429  0.50000000
   0.26554429  0.76554429  0.00000000
   0.26554429  0.76554429  0.50000000
   0.76554429  0.26554429  0.00000000
   0.76554429  0.26554429  0.50000000
   0.76554429  0.76554429  0.00000000
   0.76554429  0.76554429  0.50000000
   0.00000000  0.23445571  0.33333333
   0.00000000  0.23445571  0.83333333
   0.00000000  0.73445571  0.33333333
   0.00000000  0.73445571  0.83333333
   0.50000000  0.23445571  0.33333333
   0.50000000  0.23445571  0.83333333
   0.50000000  0.73445571  0.33333333
   0.50000000  0.73445571  0.83333333
   0.23445571  0.00000000  0.16666667
   0.23445571  0.00000000  0.66666667
   0.23445571  0.50000000  0.16666667
   0.23445571  0.50000000  0.66666667
   0.73445571  0.00000000  0.16666667
   0.73445571  0.00000000  0.66666667
   0.73445571  0.50000000  0.16666667
   0.73445571  0.50000000  0.66666667
   0.13461155  0.20669714  0.39244549
   0.13461155  0.20669714  0.89244549
   0.13461155  0.70669714  0.39244549
   0.13461155  0.70669714  0.89244549
   0.63461155  0.20669714  0.39244549
   0.63461155  0.20669714  0.89244549
   0.63461155  0.70669714  0.39244549
   0.63461155  0.70669714  0.89244549
   0.29330286  0.42791441  0.05911216
   0.29330286  0.42791441  0.55911216
   0.29330286  0.92791441  0.05911216
   0.29330286  0.92791441  0.55911216
   0.79330286  0.42791441  0.05911216
   0.79330286  0.42791441  0.55911216
   0.79330286  0.92791441  0.05911216
   0.79330286  0.92791441  0.55911216
   0.07208559  0.36538845  0.22577882
   0.07208559  0.36538845  0.72577882
   0.07208559  0.86538845  0.22577882
   0.07208559  0.86538845  0.72577882
   0.57208559  0.36538845  0.22577882
   0.57208559  0.36538845  0.72577882
   0.57208559  0.86538845  0.22577882
   0.57208559  0.86538845  0.72577882
   0.20669714  0.13461155  0.10755451
   0.20669714  0.13461155  0.60755451
   0.20669714  0.63461155  0.10755451
   0.20669714  0.63461155  0.60755451
   0.70669714  0.13461155  0.10755451
   0.70669714  0.13461155  0.60755451
   0.70669714  0.63461155  0.10755451
   0.70669714  0.63461155  0.60755451
   0.36538845  0.07208559  0.27422118
   0.36538845  0.07208559  0.77422118
   0.36538845  0.57208559  0.27422118
   0.36538845  0.57208559  0.77422118
   0.86538845  0.07208559  0.27422118
   0.86538845  0.07208559  0.77422118
   0.86538845  0.57208559  0.27422118
   0.86538845  0.57208559  0.77422118
   0.42791441  0.29330286  0.44088784
   0.42791441  0.29330286  0.94088784
   0.42791441  0.79330286  0.44088784
   0.42791441  0.79330286  0.94088784
   0.92791441  0.29330286  0.44088784
   0.92791441  0.29330286  0.94088784
   0.92791441  0.79330286  0.44088784
   0.92791441  0.79330286  0.94088784
   0.50000000  0.69683435  0.08333333
 
 position of ions in cartesian coordinates  (Angst):
   2.61028246 -0.00000000  0.00000000
   2.61028246 -0.00000000  5.43130114
   5.06776555  4.25648557  0.00000000
   5.06776555  4.25648557  5.43130114
   5.06776555 -4.25648557  0.00000000
   5.06776555 -4.25648557  5.43130114
   7.52524863  0.00000000  0.00000000
   7.52524863  0.00000000  5.43130114
   1.15234186  1.99591465  3.62086743
   1.15234186  1.99591465  9.05216857
   3.60982495  6.25240022  3.62086743
   3.60982495  6.25240022  9.05216857
   3.60982495 -2.26057092  3.62086743
   3.60982495 -2.26057092  9.05216857
   6.06730804  1.99591465  3.62086743
   6.06730804  1.99591465  9.05216857
   1.15234186 -1.99591465  1.81043371
   1.15234186 -1.99591465  7.24173485
   3.60982495  2.26057092  1.81043371
   3.60982495  2.26057092  7.24173485
   3.60982495 -6.25240022  1.81043371
   3.60982495 -6.25240022  7.24173485
   6.06730804 -1.99591465  1.81043371
   6.06730804 -1.99591465  7.24173485
   1.67752072  0.61366255  4.26297927
   1.67752072  0.61366255  9.69428041
   4.13500380  4.87014811  4.26297927
   4.13500380  4.87014811  9.69428041
   4.13500380 -3.64282302  4.26297927
   4.13500380 -3.64282302  9.69428041
   6.59248689  0.61366255  4.26297927
   6.59248689  0.61366255  9.69428041
   3.54475846  1.14594428  0.64211185
   3.54475846  1.14594428  6.07341299
   6.00224155  5.40242985  0.64211185
   6.00224155  5.40242985  6.07341299
   6.00224155 -3.11054129  0.64211185
   6.00224155 -3.11054129  6.07341299
   8.45972464  1.14594428  0.64211185
   8.45972464  1.14594428  6.07341299
   2.15017009  2.49687874  2.45254556
   2.15017009  2.49687874  7.88384670
   4.60765317  6.75336431  2.45254556
   4.60765317  6.75336431  7.88384670
   4.60765317 -1.75960683  2.45254556
   4.60765317 -1.75960683  7.88384670
   7.06513626  2.49687874  2.45254556
   7.06513626  2.49687874  7.88384670
   1.67752072 -0.61366255  1.16832187
   1.67752072 -0.61366255  6.59962301
   4.13500380  3.64282302  1.16832187
   4.13500380  3.64282302  6.59962301
   4.13500380 -4.87014811  1.16832187
   4.13500380 -4.87014811  6.59962301
   6.59248689 -0.61366255  1.16832187
   6.59248689 -0.61366255  6.59962301
   2.15017009 -2.49687874  2.97875558
   2.15017009 -2.49687874  8.41005672
   4.60765317  1.75960683  2.97875558
   4.60765317  1.75960683  8.41005672
   4.60765317 -6.75336431  2.97875558
   4.60765317 -6.75336431  8.41005672
   7.06513626 -2.49687874  2.97875558
   7.06513626 -2.49687874  8.41005672
   3.54475846 -1.14594428  4.78918929
   3.54475846 -1.14594428 10.22049043
   6.00224155  3.11054129  4.78918929
   6.00224155  3.11054129 10.22049043
   6.00224155 -5.40242985  4.78918929
   6.00224155 -5.40242985 10.22049043
   8.45972464 -1.14594428  4.78918929
   8.45972464 -1.14594428 10.22049043
   5.88240036  1.67564515  0.90521686
 


--------------------------------------------------------------------------------------------------------


 k-point   1 :   0.0000 0.0000 0.0000  plane waves:   26579
 k-point   2 :   0.5000 0.0000 0.0000  plane waves:   26614
 k-point   3 :   0.0000 0.5000 0.0000  plane waves:   26614
 k-point   4 :   0.0000 0.0000 0.5000  plane waves:   26718
 k-point   5 :   0.5000 0.0000 0.5000  plane waves:   26636
 k-point   6 :   0.0000 0.5000 0.5000  plane waves:   26636

 maximum and minimum number of plane-waves per node :     26718    26579

 maximum number of plane-waves:     26718
 maximum index in each direction: 
   IXMAX=   18   IYMAX=   18   IZMAX=   20
   IXMIN=  -19   IYMIN=  -19   IZMIN=  -21


 serial   3D FFT for wavefunctions
 parallel 3D FFT for charge:
    minimum data exchange during FFTs selected (reduces bandwidth)


 total amount of memory used by VASP MPI-rank0   104021. kBytes
=======================================================================

   base      :      30000. kBytes
   nonl-proj :      51791. kBytes
   fftplans  :       1787. kBytes
   grid      :       9701. kBytes
   one-center:        224. kBytes
   wavefun   :      10518. kBytes
 
     INWAV:  cpu time      0.0000: real time      0.0001
 Broyden mixing: mesh for mixing (old mesh)
   NGX = 37   NGY = 37   NGZ = 41
  (NGX  =112   NGY  =112   NGZ  =128)
  gives a total of  56129 points

 initial charge density was supplied:
 charge density of overlapping atoms calculated
 number of electron     390.0000000 magnetization 
 keeping initial charge density in first step


--------------------------------------------------------------------------------------------------------


 Maximum index for augmentation-charges          412 (set IRDMAX)


--------------------------------------------------------------------------------------------------------


 First call to EWALD:  gamma=   0.183
 Maximum number of real-space cells 3x 3x 3
 Maximum number of reciprocal cells 3x 3x 3

    FEWALD:  cpu time      0.0016: real time      0.0016


--------------------------------------- Iteration      1(   1)  ---------------------------------------


    POTLOK:  cpu time      0.0238: real time      0.0242
    SETDIJ:  cpu time      0.0026: real time      0.0026
     EDDAV:  cpu time      3.3587: real time      3.3734
       DOS:  cpu time      0.0020: real time      0.0020
    --------------------------------------------
      LOOP:  cpu time      3.3872: real time      3.4024

 eigenvalue-minimisations  :  3072
 total energy-change (2. order) : 0.2384413E+04  (-0.2154316E+05)
 number of electron     390.0000000 magnetization 
 augmentation part      390.0000000 magnetization 

 Free energy of the ion-electron system (eV)
  ---------------------------------------------------
  alpha Z        PSCENC =       573.53096271
  Ewald energy   TEWEN  =    -15452.55664149
  -Hartree energ DENC   =     -7630.33392633
  -exchange      EXHF   =         0.00000000
  -V(xc)+E(xc)   XCENC  =      1159.88207255
  PAW double counting   =     19095.89555838   -18761.79165722
  entropy T*S    EENTRO =        -0.00668751
  eigenvalues    EBANDS =      -259.41314947
  atomic energy  EATOM  =     23659.20686107
  Solvation  Ediel_sol  =         0.00000000
  ---------------------------------------------------
  free energy    TOTEN  =      2384.41339270 eV

  energy without entropy =     2384.42008021  energy(sigma->0) =     2384.41673645


--------------------------------------------------------------------------------------------------------




--------------------------------------- Iteration      1(   2)  ---------------------------------------


     EDDAV:  cpu time      4.2238: real time      4.2400
       DOS:  cpu time      0.0011: real time      0.0011
    --------------------------------------------
      LOOP:  cpu time      4.2248: real time      4.2410

 eigenvalue-minimisations  :  4032
 total energy-change (2. order) :-0.2879359E+04  (-0.2819174E+04)
 number of electron     390.0000000 magnetization 
 augmentation part      390.0000000 magnetization 

 Free energy of the ion-electron system (eV)
  ---------------------------------------------------
  alpha Z        PSCENC =       573.53096271
  Ewald energy   TEWEN  =    -15452.55664149
  -Hartree energ DENC   =     -7630.33392633
  -exchange      EXHF   =         0.00000000
  -V(xc)+E(xc)   XCENC  =      1159.88207255
  PAW double counting   =     19095.89555838   -18761.79165722
  entropy T*S    EENTRO =        -0.00144266
  eigenvalues    EBANDS =     -3138.77690447
  atomic energy  EATOM  =     23659.20686107
  Solvation  Ediel_sol  =         0.00000000
  ---------------------------------------------------
  free energy    TOTEN  =      -494.94511745 eV

  energy without entropy =     -494.94367479  energy(sigma->0) =     -494.94439612


--------------------------------------------------------------------------------------------------------




--------------------------------------- Iteration      1(   3)  ---------------------------------------


     EDDAV:  cpu time      4.0651: real time      4.0787
       DOS:  cpu time      0.0012: real time      0.0012
    --------------------------------------------
      LOOP:  cpu time      4.0664: real time      4.0799

 eigenvalue-minimisations  :  3840
 total energy-change (2. order) :-0.1459171E+03  (-0.1454273E+03)
 number of electron     390.0000000 magnetization 
 augmentation part      390.0000000 magnetization 

 Free energy of the ion-electron system (eV)
  ---------------------------------------------------
  alpha Z        PSCENC =       573.53096271
  Ewald energy   TEWEN  =    -15452.55664149
  -Hartree energ DENC   =     -7630.33392633
  -exchange      EXHF   =         0.00000000
  -V(xc)+E(xc)   XCENC  =      1159.88207255
  PAW double counting   =     19095.89555838   -18761.79165722
  entropy T*S    EENTRO =        -0.02822004
  eigenvalues    EBANDS =     -3284.66726895
  atomic energy  EATOM  =     23659.20686107
  Solvation  Ediel_sol  =         0.00000000
  ---------------------------------------------------
  free energy    TOTEN  =      -640.86225931 eV

  energy without entropy =     -640.83403927  energy(sigma->0) =     -640.84814929


--------------------------------------------------------------------------------------------------------




--------------------------------------- Iteration      1(   4)  ---------------------------------------


     EDDAV:  cpu time      4.0094: real time      4.0216
       DOS:  cpu time      0.0011: real time      0.0011
    --------------------------------------------
      LOOP:  cpu time      4.0105: real time      4.0227

 eigenvalue-minimisations  :  3840
 total energy-change (2. order) :-0.1590061E+01  (-0.1588290E+01)
 number of electron     390.0000000 magnetization 
 augmentation part      390.0000000 magnetization 

 Free energy of the ion-electron system (eV)
  ---------------------------------------------------
  alpha Z        PSCENC =       573.53096271
  Ewald energy   TEWEN  =    -15452.55664149
  -Hartree energ DENC   =     -7630.33392633
  -exchange      EXHF   =         0.00000000
  -V(xc)+E(xc)   XCENC  =      1159.88207255
  PAW double counting   =     19095.89555838   -18761.79165722
  entropy T*S    EENTRO =        -0.02822084
  eigenvalues    EBANDS =     -3286.25732955
  atomic energy  EATOM  =     23659.20686107
  Solvation  Ediel_sol  =         0.00000000
  ---------------------------------------------------
  free energy    TOTEN  =      -642.45232071 eV

  energy without entropy =     -642.42409987  energy(sigma->0) =     -642.43821029


--------------------------------------------------------------------------------------------------------




--------------------------------------- Iteration      1(   5)  ---------------------------------------


     EDDAV:  cpu time      3.7775: real time      3.7901
       DOS:  cpu time      0.0014: real time      0.0014
    CHARGE:  cpu time      0.0492: real time      0.0502
    MIXING:  cpu time      0.0011: real time      0.0014
    --------------------------------------------
      LOOP:  cpu time      3.8292: real time      3.8431

 eigenvalue-minimisations  :  3648
 total energy-change (2. order) :-0.2551209E-01  (-0.2550815E-01)
 number of electron     391.0000068 magnetization 
 augmentation part       36.4535926 magnetization 

 Broyden mixing:
  rms(total) = 0.72459E+01    rms(broyden)= 0.72449E+01
  rms(prec ) = 0.83733E+01
  weight for this iteration     100.00

 Free energy of the ion-electron system (eV)
  ---------------------------------------------------
  alpha Z        PSCENC =       573.53096271
  Ewald energy   TEWEN  =    -15452.55664149
  -Hartree energ DENC   =     -7630.33392633
  -exchange      EXHF   =         0.00000000
  -V(xc)+E(xc)   XCENC  =      1159.88207255
  PAW double counting   =     19095.89555838   -18761.79165722
  entropy T*S    EENTRO =        -0.02822084
  eigenvalues    EBANDS =     -3286.28284163
  atomic energy  EATOM  =     23659.20686107
  Solvation  Ediel_sol  =         0.00000000
  ---------------------------------------------------
  free energy    TOTEN  =      -642.47783280 eV

  energy without entropy =     -642.44961195  energy(sigma->0) =     -642.46372238


--------------------------------------------------------------------------------------------------------




--------------------------------------- Iteration      1(   6)  ---------------------------------------


    POTLOK:  cpu time      0.0124: real time      0.0125
    SETDIJ:  cpu time      0.0021: real time      0.0021
     EDDAV:  cpu time      3.9741: real time      3.9873
       DOS:  cpu time      0.0015: real time      0.0015
    CHARGE:  cpu time      0.0459: real time      0.0464
    MIXING:  cpu time      0.0007: real time      0.0007
    --------------------------------------------
      LOOP:  cpu time      4.0368: real time      4.0506

 eigenvalue-minimisations  :  3840
 total energy-change (2. order) : 0.5725247E+02  (-0.7890449E+01)
 number of electron     391.0000064 magnetization 
 augmentation part       32.9342107 magnetization 

 Broyden mixing:
  rms(total) = 0.49179E+01    rms(broyden)= 0.49178E+01
  rms(prec ) = 0.54610E+01
  weight for this iteration     100.00

 eigenvalues of (default mixing * dielectric matrix)
  average eigenvalue GAMMA=   2.2807
  2.2807

 Free energy of the ion-electron system (eV)
  ---------------------------------------------------
  alpha Z        PSCENC =       573.53096271
  Ewald energy   TEWEN  =    -15452.55664149
  -Hartree energ DENC   =     -8063.61114752
  -exchange      EXHF   =         0.00000000
  -V(xc)+E(xc)   XCENC  =      1191.93449483
  PAW double counting   =     25167.78500132   -24842.34458040
  entropy T*S    EENTRO =        -0.04487623
  eigenvalues    EBANDS =     -2819.12544197
  atomic energy  EATOM  =     23659.20686107
  Solvation  Ediel_sol  =         0.00000000
  ---------------------------------------------------
  free energy    TOTEN  =      -585.22536768 eV

  energy without entropy =     -585.18049145  energy(sigma->0) =     -585.20292956


--------------------------------------------------------------------------------------------------------




--------------------------------------- Iteration      1(   7)  ---------------------------------------


    POTLOK:  cpu time      0.0114: real time      0.0116
    SETDIJ:  cpu time      0.0020: real time      0.0020
     EDDAV:  cpu time      4.0940: real time      4.1127
       DOS:  cpu time      0.0015: real time      0.0015
    CHARGE:  cpu time      0.0471: real time      0.0473
    MIXING:  cpu time      0.0006: real time      0.0006
    --------------------------------------------
      LOOP:  cpu time      4.1566: real time      4.1758

 eigenvalue-minimisations  :  3840
 total energy-change (2. order) : 0.2155668E+02  (-0.1184535E+02)
 number of electron     391.0000057 magnetization 
 augmentation part       28.6660485 magnetization 

 Broyden mixing:
  rms(total) = 0.21676E+01    rms(broyden)= 0.21669E+01
  rms(prec ) = 0.22635E+01
  weight for this iteration     100.00

 eigenvalues of (default mixing * dielectric matrix)
  average eigenvalue GAMMA=   2.0514
  1.8512  2.2515

 Free energy of the ion-electron system (eV)
  ---------------------------------------------------
  alpha Z        PSCENC =       573.53096271
  Ewald energy   TEWEN  =    -15452.55664149
  -Hartree energ DENC   =     -8625.51036611
  -exchange      EXHF   =         0.00000000
  -V(xc)+E(xc)   XCENC  =      1229.36504589
  PAW double counting   =     42832.22558551   -42517.06322012
  entropy T*S    EENTRO =        -0.02882520
  eigenvalues    EBANDS =     -2262.83809170
  atomic energy  EATOM  =     23659.20686107
  Solvation  Ediel_sol  =         0.00000000
  ---------------------------------------------------
  free energy    TOTEN  =      -563.66868944 eV

  energy without entropy =     -563.63986424  energy(sigma->0) =     -563.65427684


--------------------------------------------------------------------------------------------------------




--------------------------------------- Iteration      1(   8)  ---------------------------------------


    POTLOK:  cpu time      0.0118: real time      0.0120
    SETDIJ:  cpu time      0.0020: real time      0.0020
     EDDAV:  cpu time      4.1014: real time      4.1177
       DOS:  cpu time      0.0014: real time      0.0014
    CHARGE:  cpu time      0.0455: real time      0.0457
    MIXING:  cpu time      0.0006: real time      0.0006
    --------------------------------------------
      LOOP:  cpu time      4.1627: real time      4.1795

 eigenvalue-minimisations  :  3840
 total energy-change (2. order) : 0.8677914E-01  (-0.3827776E+00)
 number of electron     391.0000058 magnetization 
 augmentation part       28.9505409 magnetization 

 Broyden mixing:
  rms(total) = 0.11828E+01    rms(broyden)= 0.11812E+01
  rms(prec ) = 0.12682E+01
  weight for this iteration     100.00

 eigenvalues of (default mixing * dielectric matrix)
  average eigenvalue GAMMA=   1.9833
  2.6181  2.6181  0.7138

 Free energy of the ion-electron system (eV)
  ---------------------------------------------------
  alpha Z        PSCENC =       573.53096271
  Ewald energy   TEWEN  =    -15452.55664149
  -Hartree energ DENC   =     -8628.97377892
  -exchange      EXHF   =         0.00000000
  -V(xc)+E(xc)   XCENC  =      1229.69697285
  PAW double counting   =     51533.93947866   -51217.95970282
  entropy T*S    EENTRO =        -0.02812664
  eigenvalues    EBANDS =     -2260.43793571
  atomic energy  EATOM  =     23659.20686107
  Solvation  Ediel_sol  =         0.00000000
  ---------------------------------------------------
  free energy    TOTEN  =      -563.58191030 eV

  energy without entropy =     -563.55378366  energy(sigma->0) =     -563.56784698


--------------------------------------------------------------------------------------------------------




--------------------------------------- Iteration      1(   9)  ---------------------------------------


    POTLOK:  cpu time      0.0123: real time      0.0125
    SETDIJ:  cpu time      0.0020: real time      0.0020
     EDDAV:  cpu time      4.0936: real time      4.1087
       DOS:  cpu time      0.0014: real time      0.0014
    CHARGE:  cpu time      0.0463: real time      0.0464
    MIXING:  cpu time      0.0006: real time      0.0006
    --------------------------------------------
      LOOP:  cpu time      4.1561: real time      4.1716

 eigenvalue-minimisations  :  3840
 total energy-change (2. order) : 0.6251226E-01  (-0.6756923E-01)
 number of electron     391.0000058 magnetization 
 augmentation part       29.1613450 magnetization 

 Broyden mixing:
  rms(total) = 0.49223E+00    rms(broyden)= 0.49127E+00
  rms(prec ) = 0.55086E+00
  weight for this iteration     100.00

 eigenvalues of (default mixing * dielectric matrix)
  average eigenvalue GAMMA=   2.3194
  5.0748  1.8140  1.6933  0.6957

 Free energy of the ion-electron system (eV)
  ---------------------------------------------------
  alpha Z        PSCENC =       573.53096271
  Ewald energy   TEWEN  =    -15452.55664149
  -Hartree energ DENC   =     -8641.58887884
  -exchange      EXHF   =         0.00000000
  -V(xc)+E(xc)   XCENC  =      1230.68236407
  PAW double counting   =     58598.80917326   -58282.53880372
  entropy T*S    EENTRO =        -0.04367143
  eigenvalues    EBANDS =     -2249.02076367
  atomic energy  EATOM  =     23659.20686107
  Solvation  Ediel_sol  =         0.00000000
  ---------------------------------------------------
  free energy    TOTEN  =      -563.51939804 eV

  energy without entropy =     -563.47572661  energy(sigma->0) =     -563.49756232


--------------------------------------------------------------------------------------------------------




--------------------------------------- Iteration      1(  10)  ---------------------------------------


    POTLOK:  cpu time      0.0114: real time      0.0116
    SETDIJ:  cpu time      0.0020: real time      0.0020
     EDDAV:  cpu time      4.0573: real time      4.0725
       DOS:  cpu time      0.0015: real time      0.0015
    CHARGE:  cpu time      0.0457: real time      0.0458
    MIXING:  cpu time      0.0007: real time      0.0007
    --------------------------------------------
      LOOP:  cpu time      4.1186: real time      4.1341

 eigenvalue-minimisations  :  3840
 total energy-change (2. order) :-0.5906105E-01  (-0.5983239E-01)
 number of electron     391.0000058 magnetization 
 augmentation part       28.9464280 magnetization 

 Broyden mixing:
  rms(total) = 0.24128E+00    rms(broyden)= 0.24127E+00
  rms(prec ) = 0.24505E+00
  weight for this iteration     100.00

 eigenvalues of (default mixing * dielectric matrix)
  average eigenvalue GAMMA=   2.2225
  5.0327  2.1922  2.1922  1.0037  0.6917

 Free energy of the ion-electron system (eV)
  ---------------------------------------------------
  alpha Z        PSCENC =       573.53096271
  Ewald energy   TEWEN  =    -15452.55664149
  -Hartree energ DENC   =     -8716.10641834
  -exchange      EXHF   =         0.00000000
  -V(xc)+E(xc)   XCENC  =      1235.97733300
  PAW double counting   =     67255.85402817   -66940.55609165
  entropy T*S    EENTRO =        -0.04415569
  eigenvalues    EBANDS =     -2178.88433687
  atomic energy  EATOM  =     23659.20686107
  Solvation  Ediel_sol  =         0.00000000
  ---------------------------------------------------
  free energy    TOTEN  =      -563.57845908 eV

  energy without entropy =     -563.53430339  energy(sigma->0) =     -563.55638124


--------------------------------------------------------------------------------------------------------




--------------------------------------- Iteration      1(  11)  ---------------------------------------


    POTLOK:  cpu time      0.0118: real time      0.0121
    SETDIJ:  cpu time      0.0020: real time      0.0020
     EDDAV:  cpu time      4.0937: real time      4.1081
       DOS:  cpu time      0.0014: real time      0.0014
    CHARGE:  cpu time      0.0445: real time      0.0457
    MIXING:  cpu time      0.0007: real time      0.0007
    --------------------------------------------
      LOOP:  cpu time      4.1541: real time      4.1700

 eigenvalue-minimisations  :  3840
 total energy-change (2. order) :-0.1182165E-01  (-0.2623245E-02)
 number of electron     391.0000058 magnetization 
 augmentation part       28.9629355 magnetization 

 Broyden mixing:
  rms(total) = 0.13896E+00    rms(broyden)= 0.13883E+00
  rms(prec ) = 0.14263E+00
  weight for this iteration     100.00

 eigenvalues of (default mixing * dielectric matrix)
  average eigenvalue GAMMA=   2.3291
  4.6897  4.6897  1.9959  1.1800  0.7653  0.6539

 Free energy of the ion-electron system (eV)
  ---------------------------------------------------
  alpha Z        PSCENC =       573.53096271
  Ewald energy   TEWEN  =    -15452.55664149
  -Hartree energ DENC   =     -8712.82456343
  -exchange      EXHF   =         0.00000000
  -V(xc)+E(xc)   XCENC  =      1235.72064515
  PAW double counting   =     65646.94046686   -65331.65104696
  entropy T*S    EENTRO =        -0.04310249
  eigenvalues    EBANDS =     -2181.91386215
  atomic energy  EATOM  =     23659.20686107
  Solvation  Ediel_sol  =         0.00000000
  ---------------------------------------------------
  free energy    TOTEN  =      -563.59028073 eV

  energy without entropy =     -563.54717824  energy(sigma->0) =     -563.56872948


--------------------------------------------------------------------------------------------------------




--------------------------------------- Iteration      1(  12)  ---------------------------------------


    POTLOK:  cpu time      0.0115: real time      0.0117
    SETDIJ:  cpu time      0.0021: real time      0.0021
     EDDAV:  cpu time      7.7065: real time      7.7284
       DOS:  cpu time      0.0011: real time      0.0011
    CHARGE:  cpu time      0.0430: real time      0.0442
    MIXING:  cpu time      0.0008: real time      0.0008
    --------------------------------------------
      LOOP:  cpu time      7.7650: real time      7.7883

 eigenvalue-minimisations  :  3840
 total energy-change (2. order) :-0.9332360E-02  (-0.1402393E-02)
 number of electron     391.0000058 magnetization 
 augmentation part       28.9978217 magnetization 

 Broyden mixing:
  rms(total) = 0.46913E-01    rms(broyden)= 0.46432E-01
  rms(prec ) = 0.52198E-01
  weight for this iteration     100.00

 eigenvalues of (default mixing * dielectric matrix)
  average eigenvalue GAMMA=   2.3113
  5.3521  4.7836  1.9837  1.5211  0.6587  0.9401  0.9401

 Free energy of the ion-electron system (eV)
  ---------------------------------------------------
  alpha Z        PSCENC =       573.53096271
  Ewald energy   TEWEN  =    -15452.55664149
  -Hartree energ DENC   =     -8710.76087222
  -exchange      EXHF   =         0.00000000
  -V(xc)+E(xc)   XCENC  =      1235.54693019
  PAW double counting   =     64054.79075928   -63739.52429801
  entropy T*S    EENTRO =        -0.04446500
  eigenvalues    EBANDS =     -2183.78884961
  atomic energy  EATOM  =     23659.20686107
  Solvation  Ediel_sol  =         0.00000000
  ---------------------------------------------------
  free energy    TOTEN  =      -563.59961309 eV

  energy without entropy =     -563.55514809  energy(sigma->0) =     -563.57738059


--------------------------------------------------------------------------------------------------------




--------------------------------------- Iteration      1(  13)  ---------------------------------------


    POTLOK:  cpu time      0.0116: real time      0.0118
    SETDIJ:  cpu time      0.0020: real time      0.0020
     EDDAV:  cpu time      4.3776: real time      4.3965
       DOS:  cpu time      0.0009: real time      0.0009
    CHARGE:  cpu time      0.0426: real time      0.0436
    MIXING:  cpu time      0.0007: real time      0.0007
    --------------------------------------------
      LOOP:  cpu time      4.4354: real time      4.4556

 eigenvalue-minimisations  :  3840
 total energy-change (2. order) :-0.2261888E-02  (-0.4003188E-03)
 number of electron     391.0000058 magnetization 
 augmentation part       28.9950183 magnetization 

 Broyden mixing:
  rms(total) = 0.81291E-01    rms(broyden)= 0.80699E-01
  rms(prec ) = 0.88473E-01
  weight for this iteration     100.00

 eigenvalues of (default mixing * dielectric matrix)
  average eigenvalue GAMMA=   2.1997
  5.2618  5.1092  1.9543  1.9543  1.0308  0.8337  0.8337  0.6199

 Free energy of the ion-electron system (eV)
  ---------------------------------------------------
  alpha Z        PSCENC =       573.53096271
  Ewald energy   TEWEN  =    -15452.55664149
  -Hartree energ DENC   =     -8712.37659070
  -exchange      EXHF   =         0.00000000
  -V(xc)+E(xc)   XCENC  =      1235.64686145
  PAW double counting   =     63840.84857264   -63525.60262366
  entropy T*S    EENTRO =        -0.04214993
  eigenvalues    EBANDS =     -2182.25712706
  atomic energy  EATOM  =     23659.20686107
  Solvation  Ediel_sol  =         0.00000000
  ---------------------------------------------------
  free energy    TOTEN  =      -563.60187498 eV

  energy without entropy =     -563.55972505  energy(sigma->0) =     -563.58080001


--------------------------------------------------------------------------------------------------------




--------------------------------------- Iteration      1(  14)  ---------------------------------------


    POTLOK:  cpu time      0.0123: real time      0.0126
    SETDIJ:  cpu time      0.0022: real time      0.0022
     EDDAV:  cpu time      4.0822: real time      4.0977
       DOS:  cpu time      0.0007: real time      0.0007
    CHARGE:  cpu time      0.0460: real time      0.0470
    MIXING:  cpu time      0.0008: real time      0.0008
    --------------------------------------------
      LOOP:  cpu time      4.1442: real time      4.1609

 eigenvalue-minimisations  :  3840
 total energy-change (2. order) : 0.1092501E-02  (-0.5470937E-03)
 number of electron     391.0000058 magnetization 
 augmentation part       28.9932133 magnetization 

 Broyden mixing:
  rms(total) = 0.72521E-01    rms(broyden)= 0.71579E-01
  rms(prec ) = 0.78013E-01
  weight for this iteration     100.00

 eigenvalues of (default mixing * dielectric matrix)
  average eigenvalue GAMMA=   2.0515
  5.5307  4.8701  2.0738  2.0738  0.9756  0.8479  0.7462  0.7462  0.5991

 Free energy of the ion-electron system (eV)
  ---------------------------------------------------
  alpha Z        PSCENC =       573.53096271
  Ewald energy   TEWEN  =    -15452.55664149
  -Hartree energ DENC   =     -8713.03114755
  -exchange      EXHF   =         0.00000000
  -V(xc)+E(xc)   XCENC  =      1235.68423245
  PAW double counting   =     63775.01672440   -63459.77344835
  entropy T*S    EENTRO =        -0.04455256
  eigenvalues    EBANDS =     -2181.63377315
  atomic energy  EATOM  =     23659.20686107
  Solvation  Ediel_sol  =         0.00000000
  ---------------------------------------------------
  free energy    TOTEN  =      -563.60078248 eV

  energy without entropy =     -563.55622991  energy(sigma->0) =     -563.57850620


--------------------------------------------------------------------------------------------------------




--------------------------------------- Iteration      1(  15)  ---------------------------------------


    POTLOK:  cpu time      0.0123: real time      0.0125
    SETDIJ:  cpu time      0.0021: real time      0.0021
     EDDAV:  cpu time      4.0732: real time      4.0884
       DOS:  cpu time      0.0011: real time      0.0011
    CHARGE:  cpu time      0.0468: real time      0.0478
    MIXING:  cpu time      0.0008: real time      0.0008
    --------------------------------------------
      LOOP:  cpu time      4.1363: real time      4.1527

 eigenvalue-minimisations  :  3840
 total energy-change (2. order) :-0.1645576E-03  (-0.2158927E-03)
 number of electron     391.0000058 magnetization 
 augmentation part       28.9932863 magnetization 

 Broyden mixing:
  rms(total) = 0.29128E-01    rms(broyden)= 0.28466E-01
  rms(prec ) = 0.30522E-01
  weight for this iteration     100.00

 eigenvalues of (default mixing * dielectric matrix)
  average eigenvalue GAMMA=   2.0789
  5.3472  5.0349  2.3042  2.1281  1.4198  1.4198  0.9466  0.9466  0.7093  0.5319

 Free energy of the ion-electron system (eV)
  ---------------------------------------------------
  alpha Z        PSCENC =       573.53096271
  Ewald energy   TEWEN  =    -15452.55664149
  -Hartree energ DENC   =     -8713.24935574
  -exchange      EXHF   =         0.00000000
  -V(xc)+E(xc)   XCENC  =      1235.69958278
  PAW double counting   =     63871.78613171   -63556.53234194
  entropy T*S    EENTRO =        -0.04356406
  eigenvalues    EBANDS =     -2181.44258209
  atomic energy  EATOM  =     23659.20686107
  Solvation  Ediel_sol  =         0.00000000
  ---------------------------------------------------
  free energy    TOTEN  =      -563.60094704 eV

  energy without entropy =     -563.55738298  energy(sigma->0) =     -563.57916501


--------------------------------------------------------------------------------------------------------




--------------------------------------- Iteration      1(  16)  ---------------------------------------


    POTLOK:  cpu time      0.0114: real time      0.0116
    SETDIJ:  cpu time      0.0021: real time      0.0021
     EDDAV:  cpu time      4.0301: real time      4.0443
       DOS:  cpu time      0.0009: real time      0.0009
    CHARGE:  cpu time      0.0470: real time      0.0482
    MIXING:  cpu time      0.0008: real time      0.0008
    --------------------------------------------
      LOOP:  cpu time      4.0924: real time      4.1079

 eigenvalue-minimisations  :  3840
 total energy-change (2. order) :-0.9252714E-03  (-0.3384340E-04)
 number of electron     391.0000058 magnetization 
 augmentation part       28.9917597 magnetization 

 Broyden mixing:
  rms(total) = 0.19593E-01    rms(broyden)= 0.19432E-01
  rms(prec ) = 0.20949E-01
  weight for this iteration     100.00

 eigenvalues of (default mixing * dielectric matrix)
  average eigenvalue GAMMA=   2.1506
  5.6574  5.0437  3.9315  2.0222  1.4680  1.4680  0.9867  0.9343  0.9343  0.6935
  0.5171

 Free energy of the ion-electron system (eV)
  ---------------------------------------------------
  alpha Z        PSCENC =       573.53096271
  Ewald energy   TEWEN  =    -15452.55664149
  -Hartree energ DENC   =     -8713.57115615
  -exchange      EXHF   =         0.00000000
  -V(xc)+E(xc)   XCENC  =      1235.71863182
  PAW double counting   =     63939.33748272   -63624.07636341
  entropy T*S    EENTRO =        -0.04421094
  eigenvalues    EBANDS =     -2181.14743865
  atomic energy  EATOM  =     23659.20686107
  Solvation  Ediel_sol  =         0.00000000
  ---------------------------------------------------
  free energy    TOTEN  =      -563.60187231 eV

  energy without entropy =     -563.55766137  energy(sigma->0) =     -563.57976684


--------------------------------------------------------------------------------------------------------




--------------------------------------- Iteration      1(  17)  ---------------------------------------


    POTLOK:  cpu time      0.0124: real time      0.0127
    SETDIJ:  cpu time      0.0020: real time      0.0020
     EDDAV:  cpu time      4.0636: real time      4.0780
       DOS:  cpu time      0.0009: real time      0.0009
    CHARGE:  cpu time      0.0444: real time      0.0456
    MIXING:  cpu time      0.0009: real time      0.0009
    --------------------------------------------
      LOOP:  cpu time      4.1242: real time      4.1400

 eigenvalue-minimisations  :  3840
 total energy-change (2. order) :-0.1402128E-05  (-0.1241018E-04)
 number of electron     391.0000058 magnetization 
 augmentation part       28.9905872 magnetization 

 Broyden mixing:
  rms(total) = 0.20182E-02    rms(broyden)= 0.17283E-02
  rms(prec ) = 0.18061E-02
  weight for this iteration     100.00
  WARNING: grid for Broyden might be to small

 eigenvalues of (default mixing * dielectric matrix)
  average eigenvalue GAMMA=   2.1230
  5.8205  5.0130  4.3164  2.0295  1.4898  1.4898  1.1944  1.0055  1.0055  0.9001
  0.6942  0.5177

 Free energy of the ion-electron system (eV)
  ---------------------------------------------------
  alpha Z        PSCENC =       573.53096271
  Ewald energy   TEWEN  =    -15452.55664149
  -Hartree energ DENC   =     -8713.94604018
  -exchange      EXHF   =         0.00000000
  -V(xc)+E(xc)   XCENC  =      1235.74110904
  PAW double counting   =     64027.78615757   -63712.51321210
  entropy T*S    EENTRO =        -0.04398559
  eigenvalues    EBANDS =     -2180.80708473
  atomic energy  EATOM  =     23659.20686107
  Solvation  Ediel_sol  =         0.00000000
  ---------------------------------------------------
  free energy    TOTEN  =      -563.60187371 eV

  energy without entropy =     -563.55788812  energy(sigma->0) =     -563.57988091


--------------------------------------------------------------------------------------------------------




--------------------------------------- Iteration      1(  18)  ---------------------------------------


    POTLOK:  cpu time      0.0118: real time      0.0120
    SETDIJ:  cpu time      0.0021: real time      0.0021
     EDDAV:  cpu time      4.0055: real time      4.0178
       DOS:  cpu time      0.0011: real time      0.0011
    CHARGE:  cpu time      0.0433: real time      0.0447
    MIXING:  cpu time      0.0009: real time      0.0009
    --------------------------------------------
      LOOP:  cpu time      4.0648: real time      4.0787

 eigenvalue-minimisations  :  3840
 total energy-change (2. order) :-0.8011759E-04  (-0.1571243E-05)
 number of electron     391.0000058 magnetization 
 augmentation part       28.9904927 magnetization 

 Broyden mixing:
  rms(total) = 0.51854E-03    rms(broyden)= 0.45263E-03
  rms(prec ) = 0.57130E-03
  weight for this iteration     100.00
  WARNING: grid for Broyden might be to small

 eigenvalues of (default mixing * dielectric matrix)
  average eigenvalue GAMMA=   2.0998
  5.8726  4.9956  4.3311  2.0008  1.8810  1.8810  1.1643  1.0734  1.0734  0.9373
  0.8733  0.6952  0.5180

 Free energy of the ion-electron system (eV)
  ---------------------------------------------------
  alpha Z        PSCENC =       573.53096271
  Ewald energy   TEWEN  =    -15452.55664149
  -Hartree energ DENC   =     -8713.98798738
  -exchange      EXHF   =         0.00000000
  -V(xc)+E(xc)   XCENC  =      1235.74341473
  PAW double counting   =     64045.94305358   -63730.66777727
  entropy T*S    EENTRO =        -0.04398182
  eigenvalues    EBANDS =     -2180.76985795
  atomic energy  EATOM  =     23659.20686107
  Solvation  Ediel_sol  =         0.00000000
  ---------------------------------------------------
  free energy    TOTEN  =      -563.60195383 eV

  energy without entropy =     -563.55797201  energy(sigma->0) =     -563.57996292


--------------------------------------------------------------------------------------------------------




--------------------------------------- Iteration      1(  19)  ---------------------------------------


    POTLOK:  cpu time      0.0133: real time      0.0135
    SETDIJ:  cpu time      0.0020: real time      0.0020
     EDDAV:  cpu time      4.0352: real time      4.0479
       DOS:  cpu time      0.0009: real time      0.0009
    CHARGE:  cpu time      0.0439: real time      0.0449
    MIXING:  cpu time      0.0009: real time      0.0009
    --------------------------------------------
      LOOP:  cpu time      4.0962: real time      4.1101

 eigenvalue-minimisations  :  3840
 total energy-change (2. order) :-0.6582290E-05  (-0.2050567E-06)
 number of electron     391.0000058 magnetization 
 augmentation part       28.9903933 magnetization 

 Broyden mixing:
  rms(total) = 0.18716E-02    rms(broyden)= 0.18557E-02
  rms(prec ) = 0.20449E-02
  weight for this iteration     100.00

 eigenvalues of (default mixing * dielectric matrix)
  average eigenvalue GAMMA=   2.1254
  5.9901  5.0541  4.5393  2.8335  2.0297  1.5234  1.5234  1.0907  1.0907  0.6940
  1.0127  0.9634  0.8922  0.5178

 Free energy of the ion-electron system (eV)
  ---------------------------------------------------
  alpha Z        PSCENC =       573.53096271
  Ewald energy   TEWEN  =    -15452.55664149
  -Hartree energ DENC   =     -8714.01795265
  -exchange      EXHF   =         0.00000000
  -V(xc)+E(xc)   XCENC  =      1235.74505229
  PAW double counting   =     64048.15615526   -63732.88135593
  entropy T*S    EENTRO =        -0.04395264
  eigenvalues    EBANDS =     -2180.74108903
  atomic energy  EATOM  =     23659.20686107
  Solvation  Ediel_sol  =         0.00000000
  ---------------------------------------------------
  free energy    TOTEN  =      -563.60196041 eV

  energy without entropy =     -563.55800777  energy(sigma->0) =     -563.57998409


--------------------------------------------------------------------------------------------------------




--------------------------------------- Iteration      1(  20)  ---------------------------------------


    POTLOK:  cpu time      0.0133: real time      0.0135
    SETDIJ:  cpu time      0.0021: real time      0.0021
     EDDAV:  cpu time      3.7422: real time      3.7580
       DOS:  cpu time      0.0011: real time      0.0011
    --------------------------------------------
      LOOP:  cpu time      3.7586: real time      3.7747

 eigenvalue-minimisations  :  3456
 total energy-change (2. order) : 0.2048873E-06  (-0.1150473E-06)
 number of electron     391.0000058 magnetization 
 augmentation part       28.9903933 magnetization 

 Free energy of the ion-electron system (eV)
  ---------------------------------------------------
  alpha Z        PSCENC =       573.53096271
  Ewald energy   TEWEN  =    -15452.55664149
  -Hartree energ DENC   =     -8714.02574620
  -exchange      EXHF   =         0.00000000
  -V(xc)+E(xc)   XCENC  =      1235.74529270
  PAW double counting   =     64049.51599765   -63734.24127366
  entropy T*S    EENTRO =        -0.04397244
  eigenvalues    EBANDS =     -2180.73344054
  atomic energy  EATOM  =     23659.20686107
  Solvation  Ediel_sol  =         0.00000000
  ---------------------------------------------------
  free energy    TOTEN  =      -563.60196020 eV

  energy without entropy =     -563.55798777  energy(sigma->0) =     -563.57997399


[...]
   0.218E+01 0.399E+01 0.757E+01   -.206E+01 -.357E+01 -.697E+01   -.106E+00 -.332E+00 -.249E+00   0.258E-04 -.306E-04 0.356E-04
   -.206E+01 -.270E+01 -.447E+02   0.180E+01 0.312E+01 0.425E+02   -.772E-01 -.511E+00 0.376E+00   0.129E-03 -.260E-04 -.263E-03
   -.131E+01 -.314E+01 0.447E+02   0.180E+01 0.312E+01 -.425E+02   -.404E+00 -.322E+00 -.376E+00   -.871E-04 0.988E-04 0.263E-03
   0.130E+01 -.645E+01 -.418E+01   -.125E+01 0.619E+01 0.344E+01   -.118E+00 0.170E+00 0.373E+00   0.536E-04 0.164E-04 0.764E-04
   0.114E+01 -.321E+01 0.294E+01   -.110E+01 0.286E+01 -.276E+01   -.978E-01 0.271E+00 -.414E-01   -.135E-05 0.598E-05 0.212E-04
   0.484E+02 -.140E+02 -.201E+02   -.458E+02 0.134E+02 0.192E+02   0.386E+00 0.845E-01 -.244E+00   0.556E-04 0.175E-03 0.615E-04
   0.583E+01 -.329E+01 0.629E+01   -.512E+01 0.285E+01 -.567E+01   -.399E+00 0.347E+00 -.287E+00   0.686E-05 0.310E-04 0.136E-04
   -.345E+02 -.104E+02 -.135E+02   0.328E+02 0.937E+01 0.131E+02   0.285E+00 0.463E+00 -.181E+00   -.212E-05 -.174E-03 0.262E-03
   -.340E+01 -.307E+01 0.547E+01   0.293E+01 0.269E+01 -.501E+01   0.124E+00 0.278E+00 -.195E+00   -.697E-04 -.995E-04 0.280E-04
   0.168E+01 0.158E+02 -.723E+01   -.353E+00 -.141E+02 0.586E+01   -.886E+00 -.714E+00 0.795E+00   0.117E-03 -.426E-03 0.218E-03
   0.124E+01 0.111E+01 0.383E+01   -.922E+00 -.118E+01 -.359E+01   -.222E+00 0.220E+00 -.486E-01   -.445E-05 0.317E-04 -.542E-04
   0.465E+02 0.593E+02 0.225E+02   -.548E+02 -.753E+02 -.335E+02   0.824E+01 0.157E+02 0.110E+02   0.161E-03 -.460E-04 -.247E-03
   0.499E+02 0.606E+02 0.435E+02   -.582E+02 -.766E+02 -.534E+02   0.793E+01 0.158E+02 0.934E+01   0.503E-03 -.402E-04 0.167E-03
   0.461E+02 0.505E+02 0.202E+02   -.546E+02 -.671E+02 -.312E+02   0.831E+01 0.165E+02 0.110E+02   0.464E-03 -.645E-04 -.242E-03
   0.501E+02 0.438E+02 0.471E+02   -.582E+02 -.604E+02 -.570E+02   0.774E+01 0.168E+02 0.948E+01   0.467E-03 -.557E-03 0.394E-03
   0.395E+02 0.555E+02 0.229E+02   -.481E+02 -.719E+02 -.338E+02   0.851E+01 0.162E+02 0.109E+02   0.215E-03 -.114E-04 -.342E-03
   0.372E+02 0.540E+02 0.428E+02   -.458E+02 -.703E+02 -.529E+02   0.852E+01 0.162E+02 0.984E+01   0.340E-03 -.206E-03 0.303E-03
   0.358E+02 0.676E+02 -.839E-01   -.445E+02 -.835E+02 -.114E+02   0.874E+01 0.153E+02 0.118E+02   0.114E-03 0.472E-03 -.549E-03
   0.176E+02 0.945E+02 0.107E+03   -.274E+02 -.109E+03 -.114E+03   0.101E+02 0.137E+02 0.469E+01   -.199E-03 0.140E-02 0.843E-03
   0.123E+02 0.268E+02 0.421E+02   0.101E+02 -.254E+02 -.523E+02   -.242E+02 -.223E+01 0.965E+01   -.368E-03 0.139E-02 -.433E-03
   -.657E+02 0.944E+01 0.297E+02   0.843E+02 -.855E+01 -.404E+02   -.184E+02 -.981E+00 0.105E+02   0.328E-03 0.362E-03 0.178E-03
   -.718E+02 -.179E+02 0.350E+02   0.900E+02 0.179E+02 -.455E+02   -.178E+02 0.323E+00 0.105E+02   -.345E-03 0.182E-03 -.590E-05
   -.711E+02 0.426E+01 0.307E+02   0.894E+02 -.371E+01 -.412E+02   -.180E+02 -.461E+00 0.105E+02   -.219E-03 -.507E-07 -.165E-03
   -.705E+02 0.165E+02 0.340E+02   0.891E+02 -.152E+02 -.444E+02   -.185E+02 -.156E+01 0.101E+02   -.205E-03 0.223E-03 0.118E-03
   -.709E+02 0.969E+01 0.310E+02   0.892E+02 -.890E+01 -.415E+02   -.181E+02 -.819E+00 0.104E+02   0.230E-04 0.419E-03 -.112E-03
   -.138E+03 0.221E+02 0.397E+02   0.153E+03 -.207E+02 -.500E+02   -.135E+02 -.150E+01 0.103E+02   -.709E-03 0.157E-03 0.384E-03
   -.763E+02 0.929E+01 0.300E+02   0.943E+02 -.844E+01 -.406E+02   -.177E+02 -.887E+00 0.105E+02   -.419E-03 0.153E-03 -.551E-04
   0.450E+02 -.700E+02 0.201E+02   -.542E+02 0.852E+02 -.311E+02   0.868E+01 -.150E+02 0.112E+02   -.212E-04 -.188E-03 -.158E-03
   0.335E+02 -.670E+02 0.411E+02   -.432E+02 0.824E+02 -.513E+02   0.948E+01 -.151E+02 0.997E+01   0.908E-04 -.216E-03 0.392E-03
   0.249E+02 -.660E+02 0.238E+02   -.349E+02 0.815E+02 -.348E+02   0.990E+01 -.153E+02 0.110E+02   -.127E-03 -.245E-03 0.587E-04
   0.271E+02 -.658E+02 0.394E+02   -.369E+02 0.813E+02 -.496E+02   0.988E+01 -.152E+02 0.982E+01   -.327E-03 -.178E-03 0.203E-03
   0.348E+02 -.471E+02 0.190E+02   -.444E+02 0.632E+02 -.300E+02   0.919E+01 -.161E+02 0.111E+02   -.188E-04 -.523E-03 -.994E-05
   0.303E+02 -.600E+02 0.416E+02   -.400E+02 0.757E+02 -.518E+02   0.960E+01 -.155E+02 0.993E+01   -.113E-03 0.102E-03 0.276E-03
   -.355E+02 -.110E+03 -.540E+02   0.234E+02 0.124E+03 0.403E+02   0.136E+02 -.125E+02 0.158E+02   -.802E-03 -.247E-02 0.645E-03
   0.214E+02 -.704E+02 0.535E+02   -.315E+02 0.857E+02 -.632E+02   0.103E+02 -.150E+02 0.909E+01   -.656E-03 -.566E-03 0.449E-03
   0.495E+02 -.528E+02 -.340E+02   -.577E+02 0.696E+02 0.444E+02   0.792E+01 -.168E+02 -.101E+02   0.296E-03 -.665E-04 -.119E-03
   0.438E+02 -.566E+02 -.310E+02   -.523E+02 0.728E+02 0.415E+02   0.835E+01 -.161E+02 -.104E+02   0.351E-03 0.229E-03 0.112E-03
   0.882E+02 -.109E+03 -.397E+02   -.946E+02 0.123E+03 0.500E+02   0.544E+01 -.124E+02 -.103E+02   0.491E-03 -.536E-03 -.384E-03
   0.462E+02 -.614E+02 -.300E+02   -.544E+02 0.774E+02 0.406E+02   0.807E+01 -.157E+02 -.105E+02   0.342E-03 -.286E-03 0.549E-04
   0.204E+02 -.711E+02 -.350E+02   -.295E+02 0.869E+02 0.455E+02   0.918E+01 -.153E+02 -.105E+02   0.330E-03 -.208E-03 0.568E-05
   0.392E+02 -.594E+02 -.307E+02   -.479E+02 0.755E+02 0.412E+02   0.860E+01 -.158E+02 -.105E+02   0.109E-03 -.189E-03 0.165E-03
   0.170E+02 0.241E+02 -.421E+02   -.271E+02 -.392E+01 0.523E+02   0.102E+02 -.221E+02 -.965E+01   0.139E-02 0.378E-03 0.433E-03
   0.410E+02 -.522E+02 -.297E+02   -.495E+02 0.687E+02 0.404E+02   0.836E+01 -.164E+02 -.105E+02   0.149E-03 0.465E-03 -.178E-03
   0.282E+02 0.592E+02 -.428E+02   -.380E+02 -.748E+02 0.529E+02   0.979E+01 0.155E+02 -.984E+01   -.349E-03 0.192E-03 -.303E-03
   0.283E+02 0.620E+02 -.229E+02   -.382E+02 -.776E+02 0.338E+02   0.979E+01 0.155E+02 -.109E+02   -.118E-03 0.181E-03 0.342E-03
   0.730E+02 0.625E+02 -.107E+03   -.807E+02 -.782E+02 0.114E+03   0.680E+01 0.156E+02 -.469E+01   0.131E-02 0.529E-03 -.843E-03
   0.407E+02 0.648E+02 0.835E-01   -.501E+02 -.802E+02 0.114E+02   0.888E+01 0.152E+02 -.118E+02   0.352E-03 0.335E-03 0.549E-03
   0.129E+02 0.652E+02 -.471E+02   -.232E+02 -.806E+02 0.570E+02   0.107E+02 0.151E+02 -.948E+01   -.716E-03 0.126E-03 -.393E-03
   0.207E+02 0.652E+02 -.202E+02   -.308E+02 -.808E+02 0.312E+02   0.101E+02 0.154E+02 -.110E+02   -.288E-03 0.369E-03 0.242E-03
   0.276E+02 0.735E+02 -.435E+02   -.373E+02 -.887E+02 0.534E+02   0.969E+01 0.148E+02 -.934E+01   -.286E-03 0.415E-03 -.167E-03
   0.281E+02 0.699E+02 -.225E+02   -.378E+02 -.852E+02 0.335E+02   0.949E+01 0.150E+02 -.110E+02   -.120E-03 0.116E-03 0.247E-03
   -.671E+02 -.376E+01 -.416E+02   0.855E+02 0.320E+01 0.518E+02   -.182E+02 0.563E+00 -.993E+01   0.145E-03 -.472E-04 -.275E-03
   -.582E+02 0.663E+01 -.190E+02   0.769E+02 -.681E+01 0.300E+02   -.185E+02 -.836E-01 -.111E+02   -.443E-03 -.278E-03 0.997E-05
   -.717E+02 -.166E+02 -.535E+02   0.900E+02 0.156E+02 0.632E+02   -.181E+02 0.142E+01 -.909E+01   -.162E-03 -.851E-03 -.448E-03
   -.776E+02 -.857E+02 0.540E+02   0.955E+02 0.822E+02 -.403E+02   -.176E+02 0.554E+01 -.158E+02   -.174E-02 -.193E-02 -.645E-03
   -.705E+02 -.947E+01 -.394E+02   0.888E+02 0.866E+01 0.496E+02   -.181E+02 0.943E+00 -.982E+01   0.902E-05 -.372E-03 -.203E-03
   -.696E+02 -.115E+02 -.238E+02   0.880E+02 0.106E+02 0.348E+02   -.182E+02 0.940E+00 -.110E+02   -.149E-03 -.233E-03 -.587E-04
   -.748E+02 -.447E+01 -.411E+02   0.930E+02 0.383E+01 0.513E+02   -.179E+02 0.642E+00 -.997E+01   -.232E-03 -.295E-04 -.392E-03
   -.831E+02 0.395E+01 -.201E+02   0.101E+03 -.431E+01 0.311E+02   -.173E+02 0.128E-01 -.112E+02   -.152E-03 -.112E-03 0.158E-03
   0.208E+02 0.361E+02 0.147E-03   -.209E+02 -.363E+02 -.304E-11   -.557E+00 -.965E+00 -.916E-20   -.115E-02 -.200E-02 -.100E-06
 -----------------------------------------------------------------------------------------------
   0.148E+01 0.256E+01 0.116E-03   0.117E-12 0.597E-12 -.201E-12   -.147E+01 -.255E+01 -.160E-13   -.258E-02 -.447E-02 -.232E-06
 
 
 POSITION                                       TOTAL-FORCE (eV/Angst)
 -----------------------------------------------------------------------------------
      2.61028     -0.00000      0.00000         0.566167      0.840897      0.578655
      2.61028     -0.00000      5.43130         0.081390      0.154895     -0.190566
      5.06777      4.25649      0.00000         0.228821     -1.488879      0.547422
      5.06777      4.25649      5.43130         0.083173     -0.353587     -0.264953
      5.06777     -4.25649      0.00000        -0.046361     -0.103690      0.358598
      5.06777     -4.25649      5.43130        -0.041727     -0.091820     -0.142667
      7.52525      0.00000      0.00000        -2.013966      2.273222      1.162723
      7.52525      0.00000      5.43130        -0.235710      0.220300     -0.329814
      1.15234      1.99591      3.62087         0.010123      0.043212     -0.587926
      1.15234      1.99591      9.05217         0.028115     -0.126076      0.341837
      3.60982      6.25240      3.62087        -0.123242     -0.038690     -0.341837
      3.60982      6.25240      9.05217         0.032362      0.030373      0.587926
      3.60982     -2.26057      3.62087         0.074884      0.057409     -0.355617
      3.60982     -2.26057      9.05217         0.012276      0.093555      0.355617
      6.06731      1.99591      3.62087        -0.342246     -0.098243     -1.818547
      6.06731      1.99591      9.05217         0.086043     -0.345515      1.818547
      1.15234     -1.99591      1.81043        -0.066618     -0.091995     -0.358598
      1.15234     -1.99591      7.24173        -0.058655     -0.082047      0.142667
      3.60982      2.26057      1.81043         2.975651     -0.607534     -1.162723
      3.60982      2.26057      7.24173         0.308641     -0.093981      0.329814
      3.60982     -6.25240      1.81043        -1.403818     -0.546275     -0.547422
      3.60982     -6.25240      7.24173        -0.347802     -0.104763      0.264953
      6.06731     -1.99591      1.81043         0.445154      0.910763     -0.578655
      6.06731     -1.99591      7.24173         0.093448      0.147933      0.190566
      1.67752      0.61366      4.26298        -0.122688     -0.323113      0.065035
      1.67752      0.61366      9.69428        -0.334124     -0.180309     -0.492521
      4.13500      4.87015      4.26298        -0.132624     -0.115873     -0.002245
      4.13500      4.87015      9.69428        -0.397507      0.151302     -0.476518
      4.13500     -3.64282      4.26298        -0.088862     -0.195836      0.008954
      4.13500     -3.64282      9.69428        -0.148089     -0.121773     -0.297048
      6.59249      0.61366      4.26298         0.077085     -0.539416      0.346991
      6.59249      0.61366      9.69428         0.365500     -0.819729     -2.204374
      3.54476      1.14594      0.64211        -1.727261     -0.861626     -0.623895
      3.54476      1.14594      6.07341         0.145893     -0.089670     -0.131021
      6.00224      5.40243      0.64211         0.353090      0.353501      0.016079
      6.00224      5.40243      6.07341         0.270160      0.082940     -0.086475
      6.00224     -3.11054      0.64211         0.079565     -0.309657     -0.255841
      6.00224     -3.11054      6.07341         0.229408     -0.035973     -0.133186
      8.45972      1.14594      0.64211         1.792729     -0.103589     -0.038043
      8.45972      1.14594      6.07341         0.341271     -0.039759     -0.111140
      2.15017      2.49688      2.45255        -0.544480      0.251219      0.196635
      2.15017      2.49688      7.88385        -0.146526      0.252211     -0.239769
      4.60765      6.75336      2.45255        -0.099448      0.216558      0.040341
      4.60765      6.75336      7.88385         0.011735      0.245767     -0.324240
      4.60765     -1.75961      2.45255        -0.327221      0.036041      0.121361
      4.60765     -1.75961      7.88385        -0.091515      0.170357     -0.251187
      7.06514      2.49688      2.45255         1.576194      1.265262      2.154490
      7.06514      2.49688      7.88385         0.246177      0.322959     -0.601885
      1.67752     -0.61366      1.16832        -0.307953     -0.085924      0.255841
      1.67752     -0.61366      6.59962        -0.145858      0.180687      0.133186
      4.13500      3.64282      1.16832        -0.986075      1.500755      0.038043
      4.13500      3.64282      6.59962        -0.205068      0.275670      0.111140
      4.13500     -4.87015      1.16832         0.129596      0.482535     -0.016079
      4.13500     -4.87015      6.59962        -0.063252      0.275436      0.086475
      6.59249     -0.61366      1.16832         0.117441     -1.926665      0.623895
      6.59249     -0.61366      6.59962        -0.150603      0.081512      0.131021
      2.15017     -2.49688      2.97876        -0.031414     -0.189135      0.297048
      2.15017     -2.49688      8.41006        -0.125168     -0.174875     -0.008954
      4.60765      1.75961      2.97876        -0.892656     -0.093333      2.204374
      4.60765      1.75961      8.41006        -0.505691     -0.202950     -0.346991
      4.60765     -6.75336      2.97876         0.329785     -0.268600      0.476518
      4.60765     -6.75336      8.41006        -0.034037     -0.172793      0.002245
      7.06514     -2.49688      2.97876         0.010910     -0.379515      0.492521
      7.06514     -2.49688      8.41006        -0.218480     -0.267808     -0.065035
      3.54476     -1.14594      4.78919         0.193291      0.005924      0.251187
      3.54476     -1.14594     10.22049         0.194823     -0.265361     -0.121361
      6.00224      3.11054      4.78919         0.156603      0.374675      0.601885
      6.00224      3.11054     10.22049         0.307652      1.997655     -2.154490
      6.00224     -5.40243      4.78919         0.206973      0.133046      0.324240
      6.00224     -5.40243     10.22049         0.237269      0.022155     -0.040341
      8.45972     -1.14594      4.78919         0.291685     -0.000790      0.239769
      8.45972     -1.14594     10.22049         0.489802     -0.345924     -0.196635
      5.88240      1.67565      0.90522        -0.674136     -1.167638      0.000000
 -----------------------------------------------------------------------------------
    total drift:                                0.003275      0.005049      0.000116


--------------------------------------------------------------------------------------------------------



  FREE ENERGIE OF THE ION-ELECTRON SYSTEM (eV)
  ---------------------------------------------------
  free  energy   TOTEN  =      -563.60196020 eV

  energy  without entropy=     -563.55798777  energy(sigma->0) =     -563.57997399
 


--------------------------------------------------------------------------------------------------------


    POTLOK:  cpu time      0.0153: real time      0.0154


--------------------------------------------------------------------------------------------------------


 stress matrix after NEB project (eV)
     43.63468      2.06335      2.35072
      2.06335     46.01724     -1.35719
      2.35072     -1.35719     47.58161
  FORCES: max atom, RMS     3.252003    1.118467
  FORCE total and by dimension    9.556184    2.975651
  Stress total and by dimension   79.428154   47.581609
     LOOP+:  cpu time     90.4464: real time     90.7908
    4ORBIT:  cpu time      0.0000: real time      0.0000



 total charge

# of ion       s       p       d       tot
------------------------------------------
    1        0.650   1.012   0.000   1.662
    2        0.648   1.009   0.000   1.657
    3        0.646   1.007   0.000   1.653
    4        0.648   1.009   0.000   1.657
    5        0.648   1.010   0.000   1.658
    6        0.648   1.009   0.000   1.657
    7        0.641   0.998   0.000   1.639
    8        0.648   1.010   0.000   1.658
    9        0.648   1.010   0.000   1.658
   10        0.648   1.009   0.000   1.656
   11        0.648   1.009   0.000   1.656
   12        0.648   1.010   0.000   1.658
   13        0.648   1.009   0.000   1.657
   14        0.648   1.009   0.000   1.657
   15        0.646   1.006   0.000   1.651
   16        0.646   1.006   0.000   1.651
   17        0.648   1.010   0.000   1.658
   18        0.648   1.009   0.000   1.657
   19        0.641   0.998   0.000   1.639
   20        0.648   1.010   0.000   1.658
   21        0.646   1.007   0.000   1.653
   22        0.648   1.009   0.000   1.657
   23        0.650   1.012   0.000   1.662
   24        0.648   1.009   0.000   1.657
   25        1.549   3.707   0.000   5.256
   26        1.548   3.709   0.000   5.257
   27        1.549   3.706   0.000   5.255
   28        1.550   3.706   0.000   5.256
   29        1.549   3.706   0.000   5.255
   30        1.549   3.707   0.000   5.256
   31        1.549   3.706   0.000   5.255
   32        1.549   3.709   0.000   5.258
   33        1.558   3.688   0.000   5.246
   34        1.549   3.706   0.000   5.255
   35        1.549   3.707   0.000   5.256
   36        1.549   3.707   0.000   5.256
   37        1.550   3.706   0.000   5.256
   38        1.549   3.707   0.000   5.256
   39        1.547   3.713   0.000   5.260
   40        1.549   3.708   0.000   5.257
   41        1.549   3.707   0.000   5.256
   42        1.549   3.708   0.000   5.257
   43        1.549   3.706   0.000   5.255
   44        1.549   3.708   0.000   5.257
   45        1.549   3.705   0.000   5.254
   46        1.549   3.707   0.000   5.256
   47        1.560   3.683   0.000   5.243
   48        1.549   3.708   0.000   5.257
   49        1.550   3.706   0.000   5.256
   50        1.549   3.707   0.000   5.256
   51        1.547   3.713   0.000   5.260
   52        1.549   3.708   0.000   5.257
   53        1.549   3.707   0.000   5.256
   54        1.549   3.707   0.000   5.256
   55        1.558   3.688   0.000   5.246
   56        1.549   3.706   0.000   5.255
   57        1.549   3.707   0.000   5.256
   58        1.549   3.706   0.000   5.255
   59        1.549   3.709   0.000   5.258
   60        1.549   3.706   0.000   5.255
   61        1.550   3.706   0.000   5.256
   62        1.549   3.706   0.000   5.255
   63        1.548   3.709   0.000   5.257
   64        1.549   3.707   0.000   5.256
   65        1.549   3.707   0.000   5.256
   66        1.549   3.705   0.000   5.254
   67        1.549   3.708   0.000   5.257
   68        1.560   3.683   0.000   5.243
   69        1.549   3.708   0.000   5.257
   70        1.549   3.706   0.000   5.255
   71        1.549   3.708   0.000   5.257
   72        1.549   3.707   0.000   5.256
   73        1.605   3.277   0.000   4.882
--------------------------------------------------
tot         91.527 205.332   0.000 296.859
 

 total amount of memory used by VASP MPI-rank0   104021. kBytes
=======================================================================

   base      :      30000. kBytes
   nonl-proj :      51791. kBytes
   fftplans  :       1787. kBytes
   grid      :       9701. kBytes
   one-center:        224. kBytes
   wavefun   :      10518. kBytes
 
  
  
 General timing and accounting informations for this job:
 ========================================================
  
                  Total CPU time used (sec):       97.475
                            User time (sec):       95.599
                          System time (sec):        1.875
                         Elapsed time (sec):       98.931
  
                   Maximum memory used (kb):      308996.
                   Average memory used (kb):          N/A
  
                          Minor page faults:       107853
                          Major page faults:           14
                 Voluntary context switches:         6054
