 vasp.5.4.4.18Apr17-6-g9f103f2a35 (build Jun 19 2019 10:34:07) complex          
  
 executed on               LB-5.4 date 2023.05.15  18:34:05
 running on   96 total cores
 distrk:  each k-point on   24 cores,    4 groups
 distr:  one band on NCORES_PER_BAND=   1 cores,   24 groups


--------------------------------------------------------------------------------------------------------


 INCAR:
 POTCAR:    PAW_PBE P 06Sep2000                   
 POTCAR:    PAW_PBE Si 05Jan2001                  

 ----------------------------------------------------------------------------- 
|                                                                             |
|           W    W    AA    RRRRR   N    N  II  N    N   GGGG   !!!           |
|           W    W   A  A   R    R  NN   N  II  NN   N  G    G  !!!           |
|           W    W  A    A  R    R  N N  N  II  N N  N  G       !!!           |
|           W WW W  AAAAAA  RRRRR   N  N N  II  N  N N  G  GGG   !            |
|           WW  WW  A    A  R   R   N   NN  II  N   NN  G    G                |
|           W    W  A    A  R    R  N    N  II  N    N   GGGG   !!!           |
|                                                                             |
|      For optimal performance we recommend to set                            |
|        NCORE= 4 - approx SQRT( number of cores)                             |
|      NCORE specifies how many cores store one orbital (NPAR=cpu/NCORE).     |
|      This setting can  greatly improve the performance of VASP for DFT.     |
|      The default,   NCORE=1            might be grossly inefficient         |
|      on modern multi-core architectures or massively parallel machines.     |
|      Do your own testing !!!!                                               |
|      Unfortunately you need to use the default for GW and RPA calculations. |
|      (for HF NCORE is supported but not extensively tested yet)             |
|                                                                             |
 ----------------------------------------------------------------------------- 


 ----------------------------------------------------------------------------- 
|                                                                             |
|           W    W    AA    RRRRR   N    N  II  N    N   GGGG   !!!           |
|           W    W   A  A   R    R  NN   N  II  NN   N  G    G  !!!           |
|           W    W  A    A  R    R  N N  N  II  N N  N  G       !!!           |
|           W WW W  AAAAAA  RRRRR   N  N N  II  N  N N  G  GGG   !            |
|           WW  WW  A    A  R   R   N   NN  II  N   NN  G    G                |
|           W    W  A    A  R    R  N    N  II  N    N   GGGG   !!!           |
|                                                                             |
|      You have enabled k-point parallelism (KPAR>1).                         |
|      This developmental code was originally  written by Paul Kent at ORNL,  |
|      and carefully double checked in Vienna.                                |
|      GW as well as linear response parallelism added by Martijn Marsman     |
|      and Georg Kresse.                                                      |
|      Carefully verify results versus KPAR=1.                                |
|      Report problems to Paul Kent and Vienna.                               |
|                                                                             |
 ----------------------------------------------------------------------------- 

 POTCAR:    PAW_PBE P 06Sep2000                   
   VRHFIN =P : s2p3                                                             
   LEXCH  = PE                                                                  
   EATOM  =   176.0430 eV,   12.9388 Ry                                         
                                                                                
   TITEL  = PAW_PBE P 06Sep2000                                                 
   LULTRA =        F    use ultrasoft PP ?                                      
   IUNSCR =        1    unscreen: 0-lin 1-nonlin 2-no                           
   RPACOR =    1.500    partial core radius                                     
   POMASS =   30.974; ZVAL   =    5.000    mass and valenz                      
   RCORE  =    1.900    outmost cutoff radius                                   
   RWIGS  =    2.330; RWIGS  =    1.233    wigner-seitz radius (au A)           
   ENMAX  =  255.040; ENMIN  =  191.280 eV                                      
   ICORE  =        2    local potential                                         
   LCOR   =        T    correct aug charges                                     
   LPAW   =        T    paw PP                                                  
   EAUG   =  342.924                                                            
   DEXC   =    0.000                                                            
   RMAX   =    1.935    core radius for proj-oper                               
   RAUG   =    1.300    factor for augmentation sphere                          
   RDEP   =    1.931    radius for radial grids                                 
   RDEPT  =    1.794    core radius for aug-charge                              
                                                                                
   Atomic configuration                                                         
    6 entries                                                                   
     n  l   j            E        occ.                                          
     1  0  0.50     -2084.0982   2.0000                                         
     2  0  0.50      -173.9859   2.0000                                         
     2  1  1.50      -124.4865   6.0000                                         
     3  0  0.50       -13.9692   2.0000                                         
     3  1  0.50        -5.5067   3.0000                                         
     3  2  1.50        -5.4423   0.0000                                         
   Description                                                                  
     l       E           TYP  RCUT    TYP  RCUT                                 
     0    -13.9691527     23  1.900                                             
     0    -11.7794650     23  1.900                                             
     1     -5.5066937     23  1.900                                             
     1     -0.2556953     23  1.900                                             
     2     -5.4423304     23  1.900                                             
  local pseudopotential read in
  partial core-charges read in
  partial kinetic energy density read in
  atomic valenz-charges read in
  non local Contribution for L=           0  read in
    real space projection operators read in
  non local Contribution for L=           0  read in
    real space projection operators read in
  non local Contribution for L=           1  read in
    real space projection operators read in
  non local Contribution for L=           1  read in
    real space projection operators read in
    PAW grid and wavefunctions read in
 
   number of l-projection  operators is LMAX  =           4
   number of lm-projection operators is LMMAX =           8
 
 POTCAR:    PAW_PBE Si 05Jan2001                  
   VRHFIN =Si: s2p2                                                             
   LEXCH  = PE                                                                  
   EATOM  =   103.0669 eV,    7.5752 Ry                                         
                                                                                
   TITEL  = PAW_PBE Si 05Jan2001                                                
   LULTRA =        F    use ultrasoft PP ?                                      
   IUNSCR =        1    unscreen: 0-lin 1-nonlin 2-no                           
   RPACOR =    1.500    partial core radius                                     
   POMASS =   28.085; ZVAL   =    4.000    mass and valenz                      
   RCORE  =    1.900    outmost cutoff radius                                   
   RWIGS  =    2.480; RWIGS  =    1.312    wigner-seitz radius (au A)           
   ENMAX  =  245.345; ENMIN  =  184.009 eV                                      
   ICORE  =        2    local potential                                         
   LCOR   =        T    correct aug charges                                     
   LPAW   =        T    paw PP                                                  
   EAUG   =  322.069                                                            
   DEXC   =    0.000                                                            
   RMAX   =    1.950    core radius for proj-oper                               
   RAUG   =    1.300    factor for augmentation sphere                          
   RDEP   =    1.993    radius for radial grids                                 
   RDEPT  =    1.837    core radius for aug-charge                              
                                                                                
   Atomic configuration                                                         
    6 entries                                                                   
     n  l   j            E        occ.                                          
     1  0  0.50     -1785.8828   2.0000                                         
     2  0  0.50      -139.4969   2.0000                                         
     2  1  1.50       -95.5546   6.0000                                         
     3  0  0.50       -10.8127   2.0000                                         
     3  1  0.50        -4.0811   2.0000                                         
     3  2  1.50        -4.0817   0.0000                                         
   Description                                                                  
     l       E           TYP  RCUT    TYP  RCUT                                 
     0    -10.8127223     23  1.900                                             
     0     -7.6451159     23  1.900                                             
     1     -4.0811372     23  1.900                                             
     1      2.4879257     23  1.900                                             
     2     -4.0817478      7  1.900                                             
  local pseudopotential read in
  partial core-charges read in
  partial kinetic energy density read in
  atomic valenz-charges read in
  non local Contribution for L=           0  read in
    real space projection operators read in
  non local Contribution for L=           0  read in
    real space projection operators read in
  non local Contribution for L=           1  read in
    real space projection operators read in
  non local Contribution for L=           1  read in
    real space projection operators read in
    PAW grid and wavefunctions read in
 
   number of l-projection  operators is LMAX  =           4
   number of lm-projection operators is LMMAX =           8
 

 ----------------------------------------------------------------------------- 
|                                                                             |
|  ADVICE TO THIS USER RUNNING 'VASP/VAMP'   (HEAR YOUR MASTER'S VOICE ...):  |
|                                                                             |
|      You have a (more or less) 'large supercell' and for larger cells       |
|      it might be more efficient to use real space projection opertators     |
|      So try LREAL= Auto  in the INCAR   file.                               |
|      Mind:          For very  accurate calculation you might also keep the  |
|      reciprocal projection scheme          (i.e. LREAL=.FALSE.)             |
|                                                                             |
 ----------------------------------------------------------------------------- 

  PAW_PBE P 06Sep2000                   :
 energy of atom  1       EATOM= -176.0430
 kinetic energy error for atom=    0.0008 (will be added to EATOM!!)
  PAW_PBE Si 05Jan2001                  :
 energy of atom  2       EATOM= -103.0669
 kinetic energy error for atom=    0.0004 (will be added to EATOM!!)
 
 
 POSCAR: Si53 P1                                 
  positions in direct lattice
  No initial velocities read in
 exchange correlation table for  LEXCH =        8
   RHO(1)=    0.500       N(1)  =     2000
   RHO(2)=  100.500       N(2)  =     4000
 


--------------------------------------------------------------------------------------------------------


 ion  position               nearest neighbor table
   1  0.292  0.292  0.292-  32 2.35  40 2.35  41 2.35  38 2.35
   2  0.292  0.292  0.625-  33 2.35  41 2.35  42 2.35  39 2.35
   3  0.292  0.292  0.958-  31 2.35  40 2.35  42 2.35  37 2.35
   4  0.292  0.625  0.292-  35 2.35  43 2.35  44 2.35  41 2.35
   5  0.292  0.625  0.625-  36 2.35  44 2.35  45 2.35  42 2.35
   6  0.292  0.625  0.958-  34 2.35  43 2.35  45 2.35  40 2.35
   7  0.292  0.958  0.292-  29 2.35  37 2.35  38 2.35  44 2.35
   8  0.292  0.958  0.625-  30 2.35  38 2.35  39 2.35  45 2.35
   9  0.292  0.958  0.958-  28 2.35  37 2.35  39 2.35  43 2.35
  10  0.625  0.292  0.292-  41 2.35  49 2.35  50 2.35  47 2.35
  11  0.625  0.292  0.625-  42 2.35  50 2.35  51 2.35  48 2.35
  12  0.625  0.292  0.958-  40 2.35  49 2.35  51 2.35  46 2.35
  13  0.625  0.625  0.292-  44 2.35  52 2.35  53 2.35  50 2.35
  14  0.625  0.625  0.625-  45 2.35  53 2.35  54 2.35  51 2.35
  15  0.625  0.625  0.958-  43 2.35  52 2.35  54 2.35  49 2.35
  16  0.625  0.958  0.292-  38 2.35  46 2.35  47 2.35  53 2.35
  17  0.625  0.958  0.625-  39 2.35  47 2.35  48 2.35  54 2.35
  18  0.625  0.958  0.958-  37 2.35  46 2.35  48 2.35  52 2.35
  19  0.958  0.292  0.292-  50 2.35  32 2.35  31 2.35  29 2.35
  20  0.958  0.292  0.625-  51 2.35  33 2.35  32 2.35  30 2.35
  21  0.958  0.292  0.958-  49 2.35  31 2.35  33 2.35  28 2.35
  22  0.958  0.625  0.292-  53 2.35  35 2.35  34 2.35  32 2.35
  23  0.958  0.625  0.625-  54 2.35  36 2.35  35 2.35  33 2.35
  24  0.958  0.625  0.958-  52 2.35  34 2.35  36 2.35  31 2.35
  25  0.958  0.958  0.292-  47 2.35  29 2.35  28 2.35  35 2.35
  26  0.958  0.958  0.625-  48 2.35  30 2.35  29 2.35  36 2.35
  27  0.958  0.958  0.958-  46 2.35  28 2.35  30 2.35  34 2.35
  28  0.042  0.042  0.042-   9 2.35  27 2.35  25 2.35  21 2.35
  29  0.042  0.042  0.375-   7 2.35  25 2.35  26 2.35  19 2.35
  30  0.042  0.042  0.708-   8 2.35  26 2.35  27 2.35  20 2.35
  31  0.042  0.375  0.042-   3 2.35  21 2.35  19 2.35  24 2.35
  32  0.042  0.375  0.375-   1 2.35  19 2.35  20 2.35  22 2.35
  33  0.042  0.375  0.708-   2 2.35  20 2.35  21 2.35  23 2.35
  34  0.042  0.708  0.042-   6 2.35  24 2.35  22 2.35  27 2.35
  35  0.042  0.708  0.375-   4 2.35  22 2.35  23 2.35  25 2.35
  36  0.042  0.708  0.708-   5 2.35  23 2.35  24 2.35  26 2.35
  37  0.375  0.042  0.042-  18 2.35   9 2.35   7 2.35   3 2.35
  38  0.375  0.042  0.375-  16 2.35   8 2.35   7 2.35   1 2.35
  39  0.375  0.042  0.708-  17 2.35   9 2.35   8 2.35   2 2.35
  40  0.375  0.375  0.042-  12 2.35   3 2.35   1 2.35   6 2.35
  41  0.375  0.375  0.375-  10 2.35   2 2.35   1 2.35   4 2.35
  42  0.375  0.375  0.708-  11 2.35   3 2.35   2 2.35   5 2.35
  43  0.375  0.708  0.042-  15 2.35   6 2.35   4 2.35   9 2.35
  44  0.375  0.708  0.375-  13 2.35   5 2.35   4 2.35   7 2.35
  45  0.375  0.708  0.708-  14 2.35   6 2.35   5 2.35   8 2.35
  46  0.708  0.042  0.042-  27 2.35  18 2.35  16 2.35  12 2.35
  47  0.708  0.042  0.375-  25 2.35  17 2.35  16 2.35  10 2.35
  48  0.708  0.042  0.708-  26 2.35  18 2.35  17 2.35  11 2.35
  49  0.708  0.375  0.042-  21 2.35  12 2.35  10 2.35  15 2.35
  50  0.708  0.375  0.375-  19 2.35  11 2.35  10 2.35  13 2.35
  51  0.708  0.375  0.708-  20 2.35  12 2.35  11 2.35  14 2.35
  52  0.708  0.708  0.042-  24 2.35  15 2.35  13 2.35  18 2.35
  53  0.708  0.708  0.375-  22 2.35  14 2.35  13 2.35  16 2.35
  54  0.708  0.708  0.708-  23 2.35  15 2.35  14 2.35  17 2.35
 
  LATTYP: Found a face centered cubic cell.
 ALAT       =    16.2915000202
  
  Lattice vectors:
  
 A1 = (   9.9764655300,   0.0000000000,   5.7599150700)
 A2 = (   3.3254885100,   9.4059019200,   5.7599150700)
 A3 = (   0.0000000000,   0.0000000000,  11.5198301400)


Analysis of symmetry for initial positions (statically):
=====================================================================
 Subroutine PRICEL returns:
 Original cell was already a primitive cell.
 

 Routine SETGRP: Setting up the symmetry group for a 
 face centered cubic supercell.


 Subroutine GETGRP returns: Found 24 space group operations
 (whereof  6 operations were pure point group operations)
 out of a pool of 48 trial point group operations.


The static configuration has the point symmetry C_3v.
 The point group associated with its full space group is T_d .


Analysis of symmetry for dynamics (positions and initial velocities):
=====================================================================
 Subroutine PRICEL returns:
 Original cell was already a primitive cell.
 

 Routine SETGRP: Setting up the symmetry group for a 
 face centered cubic supercell.


 Subroutine GETGRP returns: Found 24 space group operations
 (whereof  6 operations were pure point group operations)
 out of a pool of 48 trial point group operations.


The dynamic configuration has the point symmetry C_3v.
 The point group associated with its full space group is T_d .


 Subroutine INISYM returns: Found 24 space group operations
 (whereof  6 operations are pure point group operations),
 and found     1 'primitive' translations

 
 
 KPOINTS: Automatic kpoint scheme                 

Automatic generation of k-mesh.
Space group operators:
 irot       det(A)        alpha          n_x          n_y          n_z        tau_x        tau_y        tau_z
    1     1.000000     0.000000     1.000000     0.000000     0.000000     0.000000     0.000000     0.000000
    2     1.000000   120.000000    -0.471405    -0.333333    -0.816497     0.000000     0.000000     0.000000
    3     1.000000   120.000000     0.471405     0.333333     0.816497     0.000000     0.000000     0.000000
    4    -1.000000   180.000000     0.288675     0.816497    -0.500000     0.000000     0.000000     0.000000
    5    -1.000000   180.000000     0.577350    -0.816497     0.000000     0.000000     0.000000     0.000000
    6    -1.000000   180.000000     0.866025     0.000000    -0.500000     0.000000     0.000000     0.000000
    7    -1.000000    90.000000    -0.816497    -0.577350    -0.000000     0.166667     0.000000     0.000000
    8    -1.000000   180.000000     0.866025     0.000000     0.500000     0.166667     0.000000     0.000000
    9    -1.000000    90.000000     0.408248    -0.577350     0.707107     0.166667     0.000000     0.000000
   10     1.000000   180.000000     0.816497     0.577350     0.000000     0.000000     0.000000     0.166667
   11     1.000000   120.000000     0.942809    -0.333333     0.000000     0.000000     0.000000     0.166667
   12     1.000000   120.000000    -0.000000    -1.000000    -0.000000     0.000000     0.000000     0.166667
   13    -1.000000    90.000000     0.816497     0.577350    -0.000000     0.000000     0.166667    -0.000000
   14    -1.000000    90.000000     0.408248    -0.577350    -0.707107     0.000000     0.166667    -0.000000
   15    -1.000000   180.000000     0.288675     0.816497     0.500000     0.000000     0.166667    -0.000000
   16     1.000000   120.000000    -0.000000     1.000000    -0.000000     0.166667     0.000000     0.000000
   17     1.000000   120.000000     0.471405     0.333333    -0.816497     0.166667     0.000000     0.000000
   18     1.000000   180.000000    -0.408248     0.577350     0.707107     0.166667     0.000000     0.000000
   19    -1.000000    90.000000    -0.408248     0.577350    -0.707107     0.000000     0.000000     0.166667
   20    -1.000000   180.000000     0.000000    -0.000000     1.000000     0.000000     0.000000     0.166667
   21    -1.000000    90.000000    -0.408248     0.577350     0.707107     0.000000     0.000000     0.166667
   22     1.000000   120.000000    -0.942809     0.333333     0.000000     0.000000     0.166667    -0.000000
   23     1.000000   180.000000    -0.408248     0.577350    -0.707107     0.000000     0.166667    -0.000000
   24     1.000000   120.000000    -0.471405    -0.333333     0.816497     0.000000     0.166667    -0.000000
 
 Subroutine IBZKPT returns following result:
 ===========================================
 
 Found      8 irreducible k-points:
 
 Following reciprocal coordinates:
            Coordinates               Weight
  0.000000  0.000000  0.000000      1.000000
  0.250000  0.000000  0.000000      8.000000
  0.500000  0.000000  0.000000      4.000000
  0.250000  0.250000  0.000000      6.000000
  0.500000  0.250000  0.000000     24.000000
 -0.250000  0.250000  0.000000     12.000000
  0.500000  0.500000  0.000000      3.000000
 -0.250000  0.500000  0.250000      6.000000
 
 Following cartesian coordinates:
            Coordinates               Weight
  0.000000  0.000000  0.000000      1.000000
  0.025059 -0.008860  0.000000      8.000000
  0.050118 -0.017719  0.000000      4.000000
  0.025059  0.017719  0.000000      6.000000
  0.050118  0.008860  0.000000     24.000000
 -0.025059  0.035439  0.000000     12.000000
  0.050118  0.035439  0.000000      3.000000
 -0.037588  0.053158  0.021702      6.000000
 


--------------------------------------------------------------------------------------------------------




 Dimension of arrays:
   k-points           NKPTS =      8   k-points in BZ     NKDIM =      8   number of bands    NBANDS=    144
   number of dos      NEDOS =    301   number of ions     NIONS =     54
   non local maximal  LDIM  =      4   non local SUM 2l+1 LMDIM =      8
   total plane-waves  NPLWV = 343000
   max r-space proj   IRMAX =      1   max aug-charges    IRDMAX=  10807
   dimension x,y,z NGX =    70 NGY =   70 NGZ =   70
   dimension x,y,z NGXF=   140 NGYF=  140 NGZF=  140
   support grid    NGXF=   140 NGYF=  140 NGZF=  140
   ions per type =               1  53
   NGX,Y,Z   is equivalent  to a cutoff of  10.10, 10.10, 10.10 a.u.
   NGXF,Y,Z  is equivalent  to a cutoff of  20.20, 20.20, 20.20 a.u.

 SYSTEM =  Si                                      
 POSCAR =  Si53 P1                                 

 Startparameter for this run:
   NWRITE =      2    write-flag & timer
   PREC   = normal    normal or accurate (medium, high low for compatibility)
   ISTART =      0    job   : 0-new  1-cont  2-samecut
   ICHARG =      2    charge: 1-file 2-atom 10-const
   ISPIN  =      1    spin polarized calculation?
   LNONCOLLINEAR =      F non collinear calculations
   LSORBIT =      F    spin-orbit coupling
   INIWAV =      1    electr: 0-lowe 1-rand  2-diag
   LASPH  =      F    aspherical Exc in radial PAW
   METAGGA=      F    non-selfconsistent MetaGGA calc.

 Electronic Relaxation 1
   ENCUT  =  550.0 eV  40.42 Ry    6.36 a.u.  22.03 22.03 22.03*2*pi/ulx,y,z
   ENINI  =  550.0     initial cutoff
   ENAUG  =  342.9 eV  augmentation charge cutoff
   NELM   =    200;   NELMIN=  2; NELMDL= -5     # of ELM steps 
   EDIFF  = 0.1E-05   stopping-criterion for ELM
   LREAL  =      F    real-space projection
   NLSPLINE    = F    spline interpolate recip. space projectors
   LCOMPAT=      F    compatible to vasp.4.4
   GGA_COMPAT  = T    GGA compatible to vasp.4.4-vasp.4.6
   LMAXPAW     = -100 max onsite density
   LMAXMIX     =    2 max onsite mixed and CHGCAR
   VOSKOWN=      0    Vosko Wilk Nusair interpolation
   ROPT   =    0.00000   0.00000
 Ionic relaxation
   EDIFFG = -.5E-01   stopping-criterion for IOM
   NSW    =      0    number of steps for IOM
   NBLOCK =      1;   KBLOCK =      1    inner block; outer block 
   IBRION =     -1    ionic relax: 0-MD 1-quasi-New 2-CG
   NFREE  =      1    steps in history (QN), initial steepest desc. (CG)
   ISIF   =      2    stress and relaxation
   IWAVPR =     10    prediction:  0-non 1-charg 2-wave 3-comb
   ISYM   =      2    0-nonsym 1-usesym 2-fastsym
   LCORR  =      T    Harris-Foulkes like correction to forces

   POTIM  = 0.5000    time-step for ionic-motion
   TEIN   =    0.0    initial temperature
   TEBEG  =    0.0;   TEEND  =   0.0 temperature during run
   SMASS  =  -3.00    Nose mass-parameter (am)
   estimated Nose-frequenzy (Omega)   =  0.10E-29 period in steps =****** mass=  -0.303E-26a.u.
   SCALEE = 1.0000    scale energy and forces
   NPACO  =    256;   APACO  = 16.0  distance and # of slots for P.C.
   PSTRESS=    0.0 pullay stress

  Mass of Ions in am
   POMASS =  30.97 28.09
  Ionic Valenz
   ZVAL   =   5.00  4.00
  Atomic Wigner-Seitz radii
   RWIGS  =  -1.00 -1.00
  virtual crystal weights 
   VCA    =   1.00  1.00
   NELECT =     216.0000    total number of electrons
   NUPDOWN=      -1.0000    fix difference up-down

 DOS related values:
   EMIN   =  10.00;   EMAX   =-10.00  energy-range for DOS
   EFERMI =   0.00
   ISMEAR =     0;   SIGMA  =   0.05  broadening in eV -4-tet -1-fermi 0-gaus

 Electronic relaxation 2 (details)
   IALGO  =     38    algorithm
   LDIAG  =      T    sub-space diagonalisation (order eigenvalues)
   LSUBROT=      F    optimize rotation matrix (better conditioning)
   TURBO    =      0    0=normal 1=particle mesh
   IRESTART =      0    0=no restart 2=restart with 2 vectors
   NREBOOT  =      0    no. of reboots
   NMIN     =      0    reboot dimension
   EREF     =   0.00    reference energy to select bands
   IMIX   =      4    mixing-type and parameters
     AMIX     =   0.20;   BMIX     =  1.00
     AMIX_MAG =   0.80;   BMIX_MAG =  1.00
     AMIN     =   0.10
     WC   =   100.;   INIMIX=   1;  MIXPRE=   1;  MAXMIX= -45

 Intra band minimization:
   WEIMIN = 0.0000     energy-eigenvalue tresh-hold
   EBREAK =  0.17E-08  absolut break condition
   DEPER  =   0.30     relativ break condition  

   TIME   =   0.40     timestep for ELM

  volume/ion in A,a.u.               =      20.02       135.09
  Fermi-wavevector in a.u.,A,eV,Ry     =   0.957088  1.808633 12.463162  0.916017
  Thomas-Fermi vector in A             =   2.086074
 
 Write flags
   LWAVE        =      T    write WAVECAR
   LDOWNSAMPLE  =      F    k-point downsampling of WAVECAR
   LCHARG       =      T    write CHGCAR
   LVTOT        =      F    write LOCPOT, total local potential
   LVHAR        =      F    write LOCPOT, Hartree potential only
   LELF         =      F    write electronic localiz. function (ELF)
   LORBIT       =     10    0 simple, 1 ext, 2 COOP (PROOUT), +10 PAW based schemes


 Dipole corrections
   LMONO  =      F    monopole corrections only (constant potential shift)
   LDIPOL =      F    correct potential (dipole corrections)
   IDIPOL =      0    1-x, 2-y, 3-z, 4-all directions 
   EPSILON=  1.0000000 bulk dielectric constant

 Exchange correlation treatment:
   GGA     =    --    GGA type
   LEXCH   =     8    internal setting for exchange type
   VOSKOWN=      0    Vosko Wilk Nusair interpolation
   LHFCALC =     F    Hartree Fock is set to
   LHFONE  =     F    Hartree Fock one center treatment
   AEXX    =    0.0000 exact exchange contribution

 Linear response parameters
   LEPSILON=     F    determine dielectric tensor
   LRPA    =     F    only Hartree local field effects (RPA)
   LNABLA  =     F    use nabla operator in PAW spheres
   LVEL    =     F    velocity operator in full k-point grid
   LINTERFAST=   F  fast interpolation
   KINTER  =     0    interpolate to denser k-point grid
   CSHIFT  =0.1000    complex shift for real part using Kramers Kronig
   OMEGAMAX=  -1.0    maximum frequency
   DEG_THRESHOLD= 0.2000000E-02 threshold for treating states as degnerate
   RTIME   =   -0.100 relaxation time in fs
  (WPLASMAI=    0.000 imaginary part of plasma frequency in eV, 0.658/RTIME)
   DFIELD  = 0.0000000 0.0000000 0.0000000 field for delta impulse in time
 
 Orbital magnetization related:
   ORBITALMAG=     F  switch on orbital magnetization
   LCHIMAG   =     F  perturbation theory with respect to B field
   DQ        =  0.001000  dq finite difference perturbation B field
   LLRAUG    =     F  two centre corrections for induced B field



--------------------------------------------------------------------------------------------------------


 Static calculation
 charge density and potential will be updated during run
 non-spin polarized calculation
 Variant of blocked Davidson
 Davidson routine will perform the subspace rotation
 perform sub-space diagonalisation
    after iterative eigenvector-optimisation
 modified Broyden-mixing scheme, WC =      100.0
 initial mixing is a Kerker type mixing with AMIX =  0.2000 and BMIX =      1.0000
 Hartree-type preconditioning will be used
 using additional bands           36
 reciprocal scheme for non local part
 use partial core corrections
 calculate Harris-corrections to forces 
   (improved forces if not selfconsistent)
 use gradient corrections 
 use of overlap-Matrix (Vanderbilt PP)
 Gauss-broadening in eV      SIGMA  =   0.05


--------------------------------------------------------------------------------------------------------


  energy-cutoff  :      550.00
  volume of cell :     1080.99
      direct lattice vectors                 reciprocal lattice vectors
     9.976465530  0.000000000  5.759915070     0.100235900 -0.035438742  0.000000000
     3.325488510  9.405901920  5.759915070     0.000000000  0.106316227  0.000000000
     0.000000000  0.000000000 11.519830140    -0.050117950 -0.035438742  0.086806836

  length of vectors
    11.519830124 11.519830136 11.519830140     0.106316227  0.106316227  0.106316227


 
 k-points in units of 2pi/SCALE and weight: Automatic kpoint scheme                 
   0.00000000  0.00000000  0.00000000       0.016
   0.02505897 -0.00885969  0.00000000       0.125
   0.05011795 -0.01771937  0.00000000       0.062
   0.02505897  0.01771937  0.00000000       0.094
   0.05011795  0.00885969  0.00000000       0.375
  -0.02505897  0.03543874  0.00000000       0.188
   0.05011795  0.03543874  0.00000000       0.047
  -0.03758846  0.05315811  0.02170171       0.094
 
 k-points in reciprocal lattice and weights: Automatic kpoint scheme                 
   0.00000000  0.00000000  0.00000000       0.016
   0.25000000  0.00000000  0.00000000       0.125
   0.50000000  0.00000000  0.00000000       0.062
   0.25000000  0.25000000  0.00000000       0.094
   0.50000000  0.25000000  0.00000000       0.375
  -0.25000000  0.25000000  0.00000000       0.188
   0.50000000  0.50000000  0.00000000       0.047
  -0.25000000  0.50000000  0.25000000       0.094
 
 position of ions in fractional coordinates (direct lattice) 
   0.29166667  0.29166667  0.29166667
   0.29166667  0.29166667  0.62500000
   0.29166667  0.29166667  0.95833333
   0.29166667  0.62500000  0.29166667
   0.29166667  0.62500000  0.62500000
   0.29166667  0.62500000  0.95833333
   0.29166667  0.95833333  0.29166667
   0.29166667  0.95833333  0.62500000
   0.29166667  0.95833333  0.95833333
   0.62500000  0.29166667  0.29166667
   0.62500000  0.29166667  0.62500000
   0.62500000  0.29166667  0.95833333
   0.62500000  0.62500000  0.29166667
   0.62500000  0.62500000  0.62500000
   0.62500000  0.62500000  0.95833333
   0.62500000  0.95833333  0.29166667
   0.62500000  0.95833333  0.62500000
   0.62500000  0.95833333  0.95833333
   0.95833333  0.29166667  0.29166667
   0.95833333  0.29166667  0.62500000
   0.95833333  0.29166667  0.95833333
   0.95833333  0.62500000  0.29166667
   0.95833333  0.62500000  0.62500000
   0.95833333  0.62500000  0.95833333
   0.95833333  0.95833333  0.29166667
   0.95833333  0.95833333  0.62500000
   0.95833333  0.95833333  0.95833333
   0.04166667  0.04166667  0.04166667
   0.04166667  0.04166667  0.37500000
   0.04166667  0.04166667  0.70833333
   0.04166667  0.37500000  0.04166667
   0.04166667  0.37500000  0.37500000
   0.04166667  0.37500000  0.70833333
   0.04166667  0.70833333  0.04166667
   0.04166667  0.70833333  0.37500000
   0.04166667  0.70833333  0.70833333
   0.37500000  0.04166667  0.04166667
   0.37500000  0.04166667  0.37500000
   0.37500000  0.04166667  0.70833333
   0.37500000  0.37500000  0.04166667
   0.37500000  0.37500000  0.37500000
   0.37500000  0.37500000  0.70833333
   0.37500000  0.70833333  0.04166667
   0.37500000  0.70833333  0.37500000
   0.37500000  0.70833333  0.70833333
   0.70833333  0.04166667  0.04166667
   0.70833333  0.04166667  0.37500000
   0.70833333  0.04166667  0.70833333
   0.70833333  0.37500000  0.04166667
   0.70833333  0.37500000  0.37500000
   0.70833333  0.37500000  0.70833333
   0.70833333  0.70833333  0.04166667
   0.70833333  0.70833333  0.37500000
   0.70833333  0.70833333  0.70833333
 
 position of ions in cartesian coordinates  (Angst):
   3.87973659  2.74338806  6.71990091
   3.87973659  2.74338806 10.55984429
   3.87973659  2.74338806 14.39978767
   4.98823276  5.87868870  8.63987260
   4.98823276  5.87868870 12.47981598
   4.98823276  5.87868870 16.31975937
   6.09672893  9.01398934 10.55984429
   6.09672893  9.01398934 14.39978767
   6.09672893  9.01398934 18.23973106
   7.20522510  2.74338806  8.63987260
   7.20522510  2.74338806 12.47981598
   7.20522510  2.74338806 16.31975937
   8.31372128  5.87868870 10.55984429
   8.31372128  5.87868870 14.39978767
   8.31372128  5.87868870 18.23973106
   9.42221745  9.01398934 12.47981598
   9.42221745  9.01398934 16.31975937
   9.42221745  9.01398934 20.15970275
  10.53071362  2.74338806 10.55984429
  10.53071362  2.74338806 14.39978767
  10.53071362  2.74338806 18.23973106
  11.63920979  5.87868870 12.47981598
  11.63920979  5.87868870 16.31975937
  11.63920979  5.87868870 20.15970275
  12.74770596  9.01398934 14.39978767
  12.74770596  9.01398934 18.23973106
  12.74770596  9.01398934 22.07967444
   0.55424808  0.39191258  0.95998584
   0.55424808  0.39191258  4.79992922
   0.55424808  0.39191258  8.63987260
   1.66274425  3.52721322  2.87995753
   1.66274425  3.52721322  6.71990091
   1.66274425  3.52721322 10.55984430
   2.77124042  6.66251386  4.79992922
   2.77124042  6.66251386  8.63987261
   2.77124042  6.66251386 12.47981599
   3.87973659  0.39191258  2.87995753
   3.87973659  0.39191258  6.71990091
   3.87973659  0.39191258 10.55984430
   4.98823277  3.52721322  4.79992922
   4.98823277  3.52721322  8.63987261
   4.98823277  3.52721322 12.47981599
   6.09672894  6.66251386  6.71990091
   6.09672894  6.66251386 10.55984430
   6.09672894  6.66251386 14.39978768
   7.20522511  0.39191258  4.79992922
   7.20522511  0.39191258  8.63987261
   7.20522511  0.39191258 12.47981599
   8.31372128  3.52721322  6.71990091
   8.31372128  3.52721322 10.55984430
   8.31372128  3.52721322 14.39978768
   9.42221745  6.66251386  8.63987260
   9.42221745  6.66251386 12.47981599
   9.42221745  6.66251386 16.31975937
 


--------------------------------------------------------------------------------------------------------


 k-point  1 :   0.0000 0.0000 0.0000  plane waves:   31415
 k-point  2 :   0.2500 0.0000 0.0000  plane waves:   31608
 k-point  3 :   0.5000 0.0000 0.0000  plane waves:   31638
 k-point  4 :   0.2500 0.2500 0.0000  plane waves:   31695
 k-point  5 :   0.5000 0.2500 0.0000  plane waves:   31649
 k-point  6 :  -0.2500 0.2500 0.0000  plane waves:   31674
 k-point  7 :   0.5000 0.5000 0.0000  plane waves:   31716
 k-point  8 :  -0.2500 0.5000 0.2500  plane waves:   31684

 maximum and minimum number of plane-waves per node :     31716    31415

 maximum number of plane-waves:     31716
 maximum index in each direction: 
   IXMAX=   22   IYMAX=   22   IZMAX=   22
   IXMIN=  -22   IYMIN=  -22   IZMIN=  -22


 serial   3D FFT for wavefunctions
 parallel 3D FFT for charge:
    minimum data exchange during FFTs selected (reduces bandwidth)


 total amount of memory used by VASP MPI-rank0   140598. kBytes
=======================================================================

   base      :      30000. kBytes
   nonl-proj :      59902. kBytes
   fftplans  :       5382. kBytes
   grid      :      20451. kBytes
   one-center:        165. kBytes
   wavefun   :      24698. kBytes
 
     INWAV:  cpu time    0.0000: real time    0.0000
 Broyden mixing: mesh for mixing (old mesh)
   NGX = 45   NGY = 45   NGZ = 45
  (NGX  =140   NGY  =140   NGZ  =140)
  gives a total of  91125 points

 initial charge density was supplied:
 charge density of overlapping atoms calculated
 number of electron     217.0000000 magnetization 
 keeping initial charge density in first step


--------------------------------------------------------------------------------------------------------


 Maximum index for augmentation-charges          503 (set IRDMAX)


--------------------------------------------------------------------------------------------------------


 First call to EWALD:  gamma=   0.173
 Maximum number of real-space cells 3x 3x 3
 Maximum number of reciprocal cells 3x 3x 3

    FEWALD:  cpu time    0.0889: real time    0.0897


--------------------------------------- Iteration      1(   1)  ---------------------------------------


    POTLOK:  cpu time    0.2192: real time    0.2273
    SETDIJ:  cpu time    0.1168: real time    0.1188
     EDDAV:  cpu time    3.4702: real time    3.5409
       DOS:  cpu time    0.0137: real time    0.0149
    --------------------------------------------
      LOOP:  cpu time    3.8199: real time    3.9020

 eigenvalue-minimisations  :  2304
 total energy-change (2. order) : 0.5632360E+03  (-0.8579359E+04)
 number of electron     217.0000000 magnetization 
 augmentation part      217.0000000 magnetization 

 Free energy of the ion-electron system (eV)
  ---------------------------------------------------
  alpha Z        PSCENC =        93.56316191
  Ewald energy   TEWEN  =     -6229.80980546
  -Hartree energ DENC   =      -311.93506175
  -exchange      EXHF   =         0.00000000
  -V(xc)+E(xc)   XCENC  =      -489.62529972
  PAW double counting   =      4810.32140949    -3869.71602298
  entropy T*S    EENTRO =        -0.02338853
  eigenvalues    EBANDS =       921.89595728
  atomic energy  EATOM  =      5638.56506835
  Solvation  Ediel_sol  =         0.00000000
  ---------------------------------------------------
  free energy    TOTEN  =       563.23601859 eV

  energy without entropy =      563.25940712  energy(sigma->0) =      563.24771285


--------------------------------------------------------------------------------------------------------




--------------------------------------- Iteration      1(   2)  ---------------------------------------


     EDDAV:  cpu time    3.9478: real time    3.9903
       DOS:  cpu time    0.0032: real time    0.0032
    --------------------------------------------
      LOOP:  cpu time    3.9510: real time    3.9935

 eigenvalue-minimisations  :  2808
 total energy-change (2. order) :-0.8157545E+03  (-0.7837709E+03)
 number of electron     217.0000000 magnetization 
 augmentation part      217.0000000 magnetization 

 Free energy of the ion-electron system (eV)
  ---------------------------------------------------
  alpha Z        PSCENC =        93.56316191
  Ewald energy   TEWEN  =     -6229.80980546
  -Hartree energ DENC   =      -311.93506175
  -exchange      EXHF   =         0.00000000
  -V(xc)+E(xc)   XCENC  =      -489.62529972
  PAW double counting   =      4810.32140949    -3869.71602298
  entropy T*S    EENTRO =        -0.00000000
  eigenvalues    EBANDS =       106.11804411
  atomic energy  EATOM  =      5638.56506835
  Solvation  Ediel_sol  =         0.00000000
  ---------------------------------------------------
  free energy    TOTEN  =      -252.51850605 eV

  energy without entropy =     -252.51850605  energy(sigma->0) =     -252.51850605


--------------------------------------------------------------------------------------------------------




--------------------------------------- Iteration      1(   3)  ---------------------------------------


     EDDAV:  cpu time    4.7393: real time    4.7921
       DOS:  cpu time    0.2289: real time    0.2318
    --------------------------------------------
      LOOP:  cpu time    4.9682: real time    5.0240

 eigenvalue-minimisations  :  2880
 total energy-change (2. order) :-0.5022027E+02  (-0.4967639E+02)
 number of electron     217.0000000 magnetization 
 augmentation part      217.0000000 magnetization 

 Free energy of the ion-electron system (eV)
  ---------------------------------------------------
  alpha Z        PSCENC =        93.56316191
  Ewald energy   TEWEN  =     -6229.80980546
  -Hartree energ DENC   =      -311.93506175
  -exchange      EXHF   =         0.00000000
  -V(xc)+E(xc)   XCENC  =      -489.62529972
  PAW double counting   =      4810.32140949    -3869.71602298
  entropy T*S    EENTRO =        -0.00000000
  eigenvalues    EBANDS =        55.89776922
  atomic energy  EATOM  =      5638.56506835
  Solvation  Ediel_sol  =         0.00000000
  ---------------------------------------------------
  free energy    TOTEN  =      -302.73878094 eV

  energy without entropy =     -302.73878094  energy(sigma->0) =     -302.73878094


--------------------------------------------------------------------------------------------------------




--------------------------------------- Iteration      1(   4)  ---------------------------------------


     EDDAV:  cpu time    8.5637: real time    8.6632
       DOS:  cpu time    0.0035: real time    0.0035
    --------------------------------------------
      LOOP:  cpu time    8.5672: real time    8.6667

 eigenvalue-minimisations  :  2904
 total energy-change (2. order) :-0.1011498E+01  (-0.1007272E+01)
 number of electron     217.0000000 magnetization 
 augmentation part      217.0000000 magnetization 

 Free energy of the ion-electron system (eV)
  ---------------------------------------------------
  alpha Z        PSCENC =        93.56316191
  Ewald energy   TEWEN  =     -6229.80980546
  -Hartree energ DENC   =      -311.93506175
  -exchange      EXHF   =         0.00000000
  -V(xc)+E(xc)   XCENC  =      -489.62529972
  PAW double counting   =      4810.32140949    -3869.71602298
  entropy T*S    EENTRO =        -0.00000000
  eigenvalues    EBANDS =        54.88627094
  atomic energy  EATOM  =      5638.56506835
  Solvation  Ediel_sol  =         0.00000000
  ---------------------------------------------------
  free energy    TOTEN  =      -303.75027922 eV

  energy without entropy =     -303.75027922  energy(sigma->0) =     -303.75027922


--------------------------------------------------------------------------------------------------------




--------------------------------------- Iteration      1(   5)  ---------------------------------------


     EDDAV:  cpu time    4.9583: real time    5.0124
       DOS:  cpu time    0.1439: real time    0.1456
    CHARGE:  cpu time    0.1799: real time    0.1822
    MIXING:  cpu time    0.0107: real time    0.0119
    --------------------------------------------
      LOOP:  cpu time    5.2929: real time    5.3521

 eigenvalue-minimisations  :  2784
 total energy-change (2. order) :-0.2157904E-01  (-0.2156691E-01)
 number of electron     215.9999999 magnetization 
 augmentation part      -12.9440708 magnetization 

 Broyden mixing:
  rms(total) = 0.25440E+01    rms(broyden)= 0.25438E+01
  rms(prec ) = 0.29258E+01
  weight for this iteration     100.00

 Free energy of the ion-electron system (eV)
  ---------------------------------------------------
  alpha Z        PSCENC =        93.56316191
  Ewald energy   TEWEN  =     -6229.80980546
  -Hartree energ DENC   =      -311.93506175
  -exchange      EXHF   =         0.00000000
  -V(xc)+E(xc)   XCENC  =      -489.62529972
  PAW double counting   =      4810.32140949    -3869.71602298
  entropy T*S    EENTRO =        -0.00000000
  eigenvalues    EBANDS =        54.86469190
  atomic energy  EATOM  =      5638.56506835
  Solvation  Ediel_sol  =         0.00000000
  ---------------------------------------------------
  free energy    TOTEN  =      -303.77185826 eV

  energy without entropy =     -303.77185826  energy(sigma->0) =     -303.77185826


--------------------------------------------------------------------------------------------------------




--------------------------------------- Iteration      1(   6)  ---------------------------------------


    POTLOK:  cpu time    0.0777: real time    0.0786
    SETDIJ:  cpu time    0.0115: real time    0.0115
     EDDAV:  cpu time    4.5816: real time    4.6255
       DOS:  cpu time    0.1656: real time    0.1666
    CHARGE:  cpu time    0.2382: real time    0.2397
    MIXING:  cpu time    0.0680: real time    0.0687
    --------------------------------------------
      LOOP:  cpu time    5.1425: real time    5.1907

 eigenvalue-minimisations  :  3000
 total energy-change (2. order) : 0.1809845E+01  (-0.5580890E-01)
 number of electron     215.9999999 magnetization 
 augmentation part      -12.8891989 magnetization 

 Broyden mixing:
  rms(total) = 0.20448E+01    rms(broyden)= 0.20448E+01
  rms(prec ) = 0.23412E+01
  weight for this iteration     100.00

 eigenvalues of (default mixing * dielectric matrix)
  average eigenvalue GAMMA=   5.0441
  5.0441

 Free energy of the ion-electron system (eV)
  ---------------------------------------------------
  alpha Z        PSCENC =        93.56316191
  Ewald energy   TEWEN  =     -6229.80980546
  -Hartree energ DENC   =      -330.61124936
  -exchange      EXHF   =         0.00000000
  -V(xc)+E(xc)   XCENC  =      -489.39232878
  PAW double counting   =      7233.46430582    -6294.27136325
  entropy T*S    EENTRO =        -0.00000000
  eigenvalues    EBANDS =        76.53019731
  atomic energy  EATOM  =      5638.56506835
  Solvation  Ediel_sol  =         0.00000000
  ---------------------------------------------------
  free energy    TOTEN  =      -301.96201346 eV

  energy without entropy =     -301.96201346  energy(sigma->0) =     -301.96201346


--------------------------------------------------------------------------------------------------------




--------------------------------------- Iteration      1(   7)  ---------------------------------------


    POTLOK:  cpu time    0.0726: real time    0.0737
    SETDIJ:  cpu time    0.5457: real time    0.5518
     EDDAV:  cpu time    5.0481: real time    5.1049
       DOS:  cpu time    0.3563: real time    0.3612
    CHARGE:  cpu time    0.2473: real time    0.2499
    MIXING:  cpu time    0.0200: real time    0.0203
    --------------------------------------------
      LOOP:  cpu time    6.2900: real time    6.3617

 eigenvalue-minimisations  :  2904
 total energy-change (2. order) : 0.2966814E+01  (-0.8396552E+00)
 number of electron     215.9999999 magnetization 
 augmentation part      -12.6432073 magnetization 

 Broyden mixing:
  rms(total) = 0.19522E+00    rms(broyden)= 0.19522E+00
  rms(prec ) = 0.32643E+00
  weight for this iteration     100.00

 eigenvalues of (default mixing * dielectric matrix)
  average eigenvalue GAMMA=   3.3402
  1.6833  4.9971

 Free energy of the ion-electron system (eV)
  ---------------------------------------------------
  alpha Z        PSCENC =        93.56316191
  Ewald energy   TEWEN  =     -6229.80980546
  -Hartree energ DENC   =      -415.19840172
  -exchange      EXHF   =         0.00000000
  -V(xc)+E(xc)   XCENC  =      -475.84249164
  PAW double counting   =     22733.51528297   -21799.75298805
  entropy T*S    EENTRO =        -0.00000256
  eigenvalues    EBANDS =       155.96497685
  atomic energy  EATOM  =      5638.56506835
  Solvation  Ediel_sol  =         0.00000000
  ---------------------------------------------------
  free energy    TOTEN  =      -298.99519935 eV

  energy without entropy =     -298.99519679  energy(sigma->0) =     -298.99519807


--------------------------------------------------------------------------------------------------------




--------------------------------------- Iteration      1(   8)  ---------------------------------------


    POTLOK:  cpu time    0.0697: real time    0.0708
    SETDIJ:  cpu time    0.1618: real time    0.1630
     EDDAV:  cpu time    4.8139: real time    4.8661
       DOS:  cpu time    0.0065: real time    0.0065
    CHARGE:  cpu time    0.1605: real time    0.1616
    MIXING:  cpu time    0.0040: real time    0.0041
    --------------------------------------------
      LOOP:  cpu time    5.2165: real time    5.2721

 eigenvalue-minimisations  :  2904
 total energy-change (2. order) : 0.3951709E-01  (-0.1295827E+00)
 number of electron     215.9999999 magnetization 
 augmentation part      -12.6287893 magnetization 

 Broyden mixing:
  rms(total) = 0.14640E+00    rms(broyden)= 0.14640E+00
  rms(prec ) = 0.16502E+00
  weight for this iteration     100.00

 eigenvalues of (default mixing * dielectric matrix)
  average eigenvalue GAMMA=   2.5417
  5.0794  1.2729  1.2729

 Free energy of the ion-electron system (eV)
  ---------------------------------------------------
  alpha Z        PSCENC =        93.56316191
  Ewald energy   TEWEN  =     -6229.80980546
  -Hartree energ DENC   =      -414.53906830
  -exchange      EXHF   =         0.00000000
  -V(xc)+E(xc)   XCENC  =      -475.81153462
  PAW double counting   =     23061.52713275   -22127.26194294
  entropy T*S    EENTRO =        -0.00000000
  eigenvalues    EBANDS =       154.81130604
  atomic energy  EATOM  =      5638.56506835
  Solvation  Ediel_sol  =         0.00000000
  ---------------------------------------------------
  free energy    TOTEN  =      -298.95568226 eV

  energy without entropy =     -298.95568226  energy(sigma->0) =     -298.95568226


--------------------------------------------------------------------------------------------------------




--------------------------------------- Iteration      1(   9)  ---------------------------------------


    POTLOK:  cpu time    0.0784: real time    0.0828
    SETDIJ:  cpu time    0.0044: real time    0.0044
     EDDAV:  cpu time    4.3673: real time    4.4097
       DOS:  cpu time    0.1602: real time    0.1620
    CHARGE:  cpu time    0.4044: real time    0.4616
    MIXING:  cpu time    0.0065: real time    0.0195
    --------------------------------------------
      LOOP:  cpu time    5.0210: real time    5.1399

 eigenvalue-minimisations  :  2784
 total energy-change (2. order) :-0.2131665E-01  (-0.1477164E-01)
 number of electron     215.9999999 magnetization 
 augmentation part      -12.6298626 magnetization 

 Broyden mixing:
  rms(total) = 0.85720E-01    rms(broyden)= 0.85720E-01
  rms(prec ) = 0.10494E+00
  weight for this iteration     100.00

 eigenvalues of (default mixing * dielectric matrix)
  average eigenvalue GAMMA=   2.4304
  4.9098  0.9678  1.9221  1.9221

 Free energy of the ion-electron system (eV)
  ---------------------------------------------------
  alpha Z        PSCENC =        93.56316191
  Ewald energy   TEWEN  =     -6229.80980546
  -Hartree energ DENC   =      -416.31698191
  -exchange      EXHF   =         0.00000000
  -V(xc)+E(xc)   XCENC  =      -475.47972947
  PAW double counting   =     23569.84588809   -22635.59812396
  entropy T*S    EENTRO =        -0.00000000
  eigenvalues    EBANDS =       156.25352353
  atomic energy  EATOM  =      5638.56506835
  Solvation  Ediel_sol  =         0.00000000
  ---------------------------------------------------
  free energy    TOTEN  =      -298.97699891 eV

  energy without entropy =     -298.97699891  energy(sigma->0) =     -298.97699891


--------------------------------------------------------------------------------------------------------




--------------------------------------- Iteration      1(  10)  ---------------------------------------


    POTLOK:  cpu time    0.0687: real time    0.1347
    SETDIJ:  cpu time    0.0723: real time    0.1511
     EDDAV:  cpu time    4.1739: real time    4.5453
       DOS:  cpu time    0.1706: real time    0.1728
    CHARGE:  cpu time    0.7902: real time    0.7993
    MIXING:  cpu time    0.2890: real time    0.2931
    --------------------------------------------
      LOOP:  cpu time    5.5647: real time    6.0962

 eigenvalue-minimisations  :  2832
 total energy-change (2. order) :-0.1028662E-02  (-0.1884414E-02)
 number of electron     215.9999999 magnetization 
 augmentation part      -12.6391051 magnetization 

 Broyden mixing:
  rms(total) = 0.53307E-01    rms(broyden)= 0.53307E-01
  rms(prec ) = 0.65479E-01
  weight for this iteration     100.00

 eigenvalues of (default mixing * dielectric matrix)
  average eigenvalue GAMMA=   2.7173
  4.6959  4.6959  2.0213  0.8875  1.2861

 Free energy of the ion-electron system (eV)
  ---------------------------------------------------
  alpha Z        PSCENC =        93.56316191
  Ewald energy   TEWEN  =     -6229.80980546
  -Hartree energ DENC   =      -414.99916703
  -exchange      EXHF   =         0.00000000
  -V(xc)+E(xc)   XCENC  =      -475.59817947
  PAW double counting   =     23442.50086411   -22507.99779755
  entropy T*S    EENTRO =        -0.00000000
  eigenvalues    EBANDS =       154.79782756
  atomic energy  EATOM  =      5638.56506835
  Solvation  Ediel_sol  =         0.00000000
  ---------------------------------------------------
  free energy    TOTEN  =      -298.97802757 eV

  energy without entropy =     -298.97802757  energy(sigma->0) =     -298.97802757


--------------------------------------------------------------------------------------------------------




--------------------------------------- Iteration      1(  11)  ---------------------------------------


    POTLOK:  cpu time    0.0733: real time    0.0745
    SETDIJ:  cpu time    0.5698: real time    0.5751
     EDDAV:  cpu time    6.4531: real time    6.5204
       DOS:  cpu time    0.1646: real time    0.1667
    CHARGE:  cpu time    0.2367: real time    0.2395
    MIXING:  cpu time    0.0204: real time    0.0206
    --------------------------------------------
      LOOP:  cpu time    7.5181: real time    7.5968

 eigenvalue-minimisations  :  3408
 total energy-change (2. order) :-0.7921442E-02  (-0.3022621E-02)
 number of electron     215.9999999 magnetization 
 augmentation part      -12.6489633 magnetization 

 Broyden mixing:
  rms(total) = 0.20595E-01    rms(broyden)= 0.20595E-01
  rms(prec ) = 0.29171E-01
  weight for this iteration     100.00

 eigenvalues of (default mixing * dielectric matrix)
  average eigenvalue GAMMA=   2.4412
  5.0085  3.0069  3.0069  1.4056  1.4056  0.8137

 Free energy of the ion-electron system (eV)
  ---------------------------------------------------
  alpha Z        PSCENC =        93.56316191
  Ewald energy   TEWEN  =     -6229.80980546
  -Hartree energ DENC   =      -413.92806048
  -exchange      EXHF   =         0.00000000
  -V(xc)+E(xc)   XCENC  =      -475.63982531
  PAW double counting   =     23388.55824247   -22453.70497840
  entropy T*S    EENTRO =        -0.00000000
  eigenvalues    EBANDS =       153.41024789
  atomic energy  EATOM  =      5638.56506835
  Solvation  Ediel_sol  =         0.00000000
  ---------------------------------------------------
  free energy    TOTEN  =      -298.98594902 eV

  energy without entropy =     -298.98594902  energy(sigma->0) =     -298.98594902


--------------------------------------------------------------------------------------------------------




--------------------------------------- Iteration      1(  12)  ---------------------------------------


    POTLOK:  cpu time    0.0729: real time    0.0742
    SETDIJ:  cpu time    0.1450: real time    0.1466
     EDDAV:  cpu time    4.1993: real time    4.2391
       DOS:  cpu time    0.0057: real time    0.0057
    CHARGE:  cpu time    0.1699: real time    0.1711
    MIXING:  cpu time    0.0044: real time    0.0044
    --------------------------------------------
      LOOP:  cpu time    4.5972: real time    4.6411

 eigenvalue-minimisations  :  2880
 total energy-change (2. order) : 0.4509123E-03  (-0.6526070E-03)
 number of electron     215.9999999 magnetization 
 augmentation part      -12.6479355 magnetization 

 Broyden mixing:
  rms(total) = 0.22683E-01    rms(broyden)= 0.22683E-01
  rms(prec ) = 0.24636E-01
  weight for this iteration     100.00

 eigenvalues of (default mixing * dielectric matrix)
  average eigenvalue GAMMA=   2.2087
  4.9695  3.1736  3.1736  1.4536  1.4536  0.7894  0.4479

 Free energy of the ion-electron system (eV)
  ---------------------------------------------------
  alpha Z        PSCENC =        93.56316191
  Ewald energy   TEWEN  =     -6229.80980546
  -Hartree energ DENC   =      -415.05913890
  -exchange      EXHF   =         0.00000000
  -V(xc)+E(xc)   XCENC  =      -475.47838976
  PAW double counting   =     23516.23153246   -22581.48018155
  entropy T*S    EENTRO =        -0.00000000
  eigenvalues    EBANDS =       154.48225485
  atomic energy  EATOM  =      5638.56506835
  Solvation  Ediel_sol  =         0.00000000
  ---------------------------------------------------
  free energy    TOTEN  =      -298.98549810 eV

  energy without entropy =     -298.98549810  energy(sigma->0) =     -298.98549810


--------------------------------------------------------------------------------------------------------




--------------------------------------- Iteration      1(  13)  ---------------------------------------


    POTLOK:  cpu time    0.0819: real time    0.0830
    SETDIJ:  cpu time    0.0092: real time    0.0092
     EDDAV:  cpu time    4.0047: real time    4.0393
       DOS:  cpu time    0.0053: real time    0.0053
    CHARGE:  cpu time    0.1699: real time    0.1710
    MIXING:  cpu time    0.0043: real time    0.0044
    --------------------------------------------
      LOOP:  cpu time    4.2753: real time    4.3122

 eigenvalue-minimisations  :  2760
 total energy-change (2. order) :-0.6615986E-03  (-0.1375233E-03)
 number of electron     215.9999999 magnetization 
 augmentation part      -12.6491040 magnetization 

 Broyden mixing:
  rms(total) = 0.16320E-01    rms(broyden)= 0.16320E-01
  rms(prec ) = 0.17646E-01
  weight for this iteration     100.00

 eigenvalues of (default mixing * dielectric matrix)
  average eigenvalue GAMMA=   2.4869
  5.1166  5.1166  2.2994  2.2994  1.5992  1.5992  0.9719  0.8930

 Free energy of the ion-electron system (eV)
  ---------------------------------------------------
  alpha Z        PSCENC =        93.56316191
  Ewald energy   TEWEN  =     -6229.80980546
  -Hartree energ DENC   =      -414.93950483
  -exchange      EXHF   =         0.00000000
  -V(xc)+E(xc)   XCENC  =      -475.49173453
  PAW double counting   =     23421.75540981   -22486.97311386
  entropy T*S    EENTRO =        -0.00000000
  eigenvalues    EBANDS =       154.34435890
  atomic energy  EATOM  =      5638.56506835
  Solvation  Ediel_sol  =         0.00000000
  ---------------------------------------------------
  free energy    TOTEN  =      -298.98615970 eV

  energy without entropy =     -298.98615970  energy(sigma->0) =     -298.98615970


--------------------------------------------------------------------------------------------------------




--------------------------------------- Iteration      1(  14)  ---------------------------------------


    POTLOK:  cpu time    0.0776: real time    0.0786
    SETDIJ:  cpu time    0.0106: real time    0.0107
     EDDAV:  cpu time    4.4987: real time    4.5359
       DOS:  cpu time    0.0055: real time    0.0055
    CHARGE:  cpu time    0.1690: real time    0.1702
    MIXING:  cpu time    0.0047: real time    0.0047
    --------------------------------------------
      LOOP:  cpu time    4.7662: real time    4.8057

 eigenvalue-minimisations  :  3120
 total energy-change (2. order) :-0.8515486E-03  (-0.1318805E-03)
 number of electron     215.9999999 magnetization 
 augmentation part      -12.6508658 magnetization 

 Broyden mixing:
  rms(total) = 0.10885E-01    rms(broyden)= 0.10885E-01
  rms(prec ) = 0.12873E-01
  weight for this iteration     100.00

 eigenvalues of (default mixing * dielectric matrix)
  average eigenvalue GAMMA=   2.5299
  5.2280  5.2280  3.1421  3.1421  1.6132  1.6132  0.8801  0.9611  0.9611

 Free energy of the ion-electron system (eV)
  ---------------------------------------------------
  alpha Z        PSCENC =        93.56316191
  Ewald energy   TEWEN  =     -6229.80980546
  -Hartree energ DENC   =      -414.83309940
  -exchange      EXHF   =         0.00000000
  -V(xc)+E(xc)   XCENC  =      -475.48712644
  PAW double counting   =     23361.64662616   -22426.79268340
  entropy T*S    EENTRO =        -0.00000000
  eigenvalues    EBANDS =       154.16084703
  atomic energy  EATOM  =      5638.56506835
  Solvation  Ediel_sol  =         0.00000000
  ---------------------------------------------------
  free energy    TOTEN  =      -298.98701125 eV

  energy without entropy =     -298.98701125  energy(sigma->0) =     -298.98701125


--------------------------------------------------------------------------------------------------------




--------------------------------------- Iteration      1(  15)  ---------------------------------------


    POTLOK:  cpu time    0.0813: real time    0.0823
    SETDIJ:  cpu time    0.0101: real time    0.0102
     EDDAV:  cpu time    3.9743: real time    4.0078
       DOS:  cpu time    0.0047: real time    0.0047
    CHARGE:  cpu time    0.1685: real time    0.1697
    MIXING:  cpu time    0.0048: real time    0.0049
    --------------------------------------------
      LOOP:  cpu time    4.2438: real time    4.2796

 eigenvalue-minimisations  :  2856
 total energy-change (2. order) : 0.1266006E-04  (-0.2887466E-04)
 number of electron     215.9999999 magnetization 
 augmentation part      -12.6504079 magnetization 

 Broyden mixing:
  rms(total) = 0.39681E-02    rms(broyden)= 0.39681E-02
  rms(prec ) = 0.55516E-02
  weight for this iteration     100.00

 eigenvalues of (default mixing * dielectric matrix)
  average eigenvalue GAMMA=   2.4729
  5.4364  5.4364  3.2524  3.2524  1.6587  1.2784  1.2784  1.3199  0.9081  0.9081

 Free energy of the ion-electron system (eV)
  ---------------------------------------------------
  alpha Z        PSCENC =        93.56316191
  Ewald energy   TEWEN  =     -6229.80980546
  -Hartree energ DENC   =      -415.11023727
  -exchange      EXHF   =         0.00000000
  -V(xc)+E(xc)   XCENC  =      -475.45624817
  PAW double counting   =     23300.64289811   -22365.80950491
  entropy T*S    EENTRO =        -0.00000000
  eigenvalues    EBANDS =       154.42766884
  atomic energy  EATOM  =      5638.56506835
  Solvation  Ediel_sol  =         0.00000000
  ---------------------------------------------------
  free energy    TOTEN  =      -298.98699859 eV

  energy without entropy =     -298.98699859  energy(sigma->0) =     -298.98699859


--------------------------------------------------------------------------------------------------------




--------------------------------------- Iteration      1(  16)  ---------------------------------------


    POTLOK:  cpu time    0.0814: real time    0.0825
    SETDIJ:  cpu time    0.0090: real time    0.0090
     EDDAV:  cpu time    4.5912: real time    4.6304
       DOS:  cpu time    0.0034: real time    0.0034
    CHARGE:  cpu time    0.1672: real time    0.1683
    MIXING:  cpu time    0.0052: real time    0.0053
    --------------------------------------------
      LOOP:  cpu time    4.8574: real time    4.8988

 eigenvalue-minimisations  :  3312
 total energy-change (2. order) : 0.9041534E-05  (-0.1481761E-04)
 number of electron     215.9999999 magnetization 
 augmentation part      -12.6501999 magnetization 

 Broyden mixing:
  rms(total) = 0.22725E-02    rms(broyden)= 0.22725E-02
  rms(prec ) = 0.25053E-02
  weight for this iteration     100.00

 eigenvalues of (default mixing * dielectric matrix)
  average eigenvalue GAMMA=   2.3720
  5.6348  5.3246  3.3195  3.3195  1.5146  1.5146  1.4864  1.3640  0.8617  0.8759
  0.8759

 Free energy of the ion-electron system (eV)
  ---------------------------------------------------
  alpha Z        PSCENC =        93.56316191
  Ewald energy   TEWEN  =     -6229.80980546
  -Hartree energ DENC   =      -415.18426272
  -exchange      EXHF   =         0.00000000
  -V(xc)+E(xc)   XCENC  =      -475.44717720
  PAW double counting   =     23282.24729188   -22347.41711098
  entropy T*S    EENTRO =        -0.00000000
  eigenvalues    EBANDS =       154.49584466
  atomic energy  EATOM  =      5638.56506835
  Solvation  Ediel_sol  =         0.00000000
  ---------------------------------------------------
  free energy    TOTEN  =      -298.98698955 eV

  energy without entropy =     -298.98698955  energy(sigma->0) =     -298.98698955


--------------------------------------------------------------------------------------------------------




--------------------------------------- Iteration      1(  17)  ---------------------------------------


    POTLOK:  cpu time    0.0811: real time    0.0822
    SETDIJ:  cpu time    0.0094: real time    0.0095
     EDDAV:  cpu time    3.8590: real time    3.8928
       DOS:  cpu time    0.0037: real time    0.0037
    CHARGE:  cpu time    0.1689: real time    0.1701
    MIXING:  cpu time    0.0054: real time    0.0055
    --------------------------------------------
      LOOP:  cpu time    4.1277: real time    4.1638

 eigenvalue-minimisations  :  2712
 total energy-change (2. order) :-0.6676444E-05  (-0.6562483E-05)
 number of electron     215.9999999 magnetization 
 augmentation part      -12.6502335 magnetization 

 Broyden mixing:
  rms(total) = 0.13528E-02    rms(broyden)= 0.13528E-02
  rms(prec ) = 0.15521E-02
  weight for this iteration     100.00

 eigenvalues of (default mixing * dielectric matrix)
  average eigenvalue GAMMA=   2.2566
  5.4798  5.4798  3.4349  3.4349  1.6329  1.6329  1.4088  1.4088  0.8529  0.8865
  0.8865  0.5401

 Free energy of the ion-electron system (eV)
  ---------------------------------------------------
  alpha Z        PSCENC =        93.56316191
  Ewald energy   TEWEN  =     -6229.80980546
  -Hartree energ DENC   =      -415.20376946
  -exchange      EXHF   =         0.00000000
  -V(xc)+E(xc)   XCENC  =      -475.44463516
  PAW double counting   =     23284.84703645   -22350.01680532
  entropy T*S    EENTRO =        -0.00000000
  eigenvalues    EBANDS =       154.51275246
  atomic energy  EATOM  =      5638.56506835
  Solvation  Ediel_sol  =         0.00000000
  ---------------------------------------------------
  free energy    TOTEN  =      -298.98699623 eV

  energy without entropy =     -298.98699623  energy(sigma->0) =     -298.98699623


--------------------------------------------------------------------------------------------------------




--------------------------------------- Iteration      1(  18)  ---------------------------------------


    POTLOK:  cpu time    0.0812: real time    0.0822
    SETDIJ:  cpu time    0.0097: real time    0.0097
     EDDAV:  cpu time    4.1060: real time    4.1478
       DOS:  cpu time    0.1766: real time    0.1789
    CHARGE:  cpu time    0.2454: real time    0.2480
    MIXING:  cpu time    0.0123: real time    0.0124
    --------------------------------------------
      LOOP:  cpu time    4.6312: real time    4.6791

 eigenvalue-minimisations  :  2616
 total energy-change (2. order) :-0.1569435E-05  (-0.2179035E-06)
 number of electron     215.9999999 magnetization 
 augmentation part      -12.6501452 magnetization 

 Broyden mixing:
  rms(total) = 0.12011E-02    rms(broyden)= 0.12011E-02
  rms(prec ) = 0.13518E-02
  weight for this iteration     100.00

 eigenvalues of (default mixing * dielectric matrix)
  average eigenvalue GAMMA=   2.4212
  6.0055  4.7653  4.3614  4.3614  2.0072  2.0072  1.4708  1.4708  1.2408  1.0467
  1.0467  0.8462  0.8462

 Free energy of the ion-electron system (eV)
  ---------------------------------------------------
  alpha Z        PSCENC =        93.56316191
  Ewald energy   TEWEN  =     -6229.80980546
  -Hartree energ DENC   =      -415.21438889
  -exchange      EXHF   =         0.00000000
  -V(xc)+E(xc)   XCENC  =      -475.44407712
  PAW double counting   =     23285.11735136   -22350.28819146
  entropy T*S    EENTRO =        -0.00000000
  eigenvalues    EBANDS =       154.52388350
  atomic energy  EATOM  =      5638.56506835
  Solvation  Ediel_sol  =         0.00000000
  ---------------------------------------------------
  free energy    TOTEN  =      -298.98699780 eV

  energy without entropy =     -298.98699780  energy(sigma->0) =     -298.98699780


--------------------------------------------------------------------------------------------------------




--------------------------------------- Iteration      1(  19)  ---------------------------------------


    POTLOK:  cpu time    0.1148: real time    0.1162
    SETDIJ:  cpu time    0.0878: real time    0.0884
     EDDAV:  cpu time    3.9448: real time    3.9879
       DOS:  cpu time    0.1700: real time    0.1722
    CHARGE:  cpu time    0.2382: real time    0.2409
    MIXING:  cpu time    0.0191: real time    0.0192
    --------------------------------------------
      LOOP:  cpu time    4.5748: real time    4.6248

 eigenvalue-minimisations  :  2424
 total energy-change (2. order) :-0.1956207E-05  (-0.3007220E-06)
 number of electron     215.9999999 magnetization 
 augmentation part      -12.6500520 magnetization 

 Broyden mixing:
  rms(total) = 0.69553E-03    rms(broyden)= 0.69553E-03
  rms(prec ) = 0.72896E-03
  weight for this iteration     100.00

 eigenvalues of (default mixing * dielectric matrix)
  average eigenvalue GAMMA=   2.4204
  6.1543  4.9987  4.2140  4.2140  3.0188  1.9389  1.6191  1.6191  1.2165  1.2165
  1.0181  1.0181  0.8199  0.8199

 Free energy of the ion-electron system (eV)
  ---------------------------------------------------
  alpha Z        PSCENC =        93.56316191
  Ewald energy   TEWEN  =     -6229.80980546
  -Hartree energ DENC   =      -415.24672306
  -exchange      EXHF   =         0.00000000
  -V(xc)+E(xc)   XCENC  =      -475.44014639
  PAW double counting   =     23287.00725394   -22352.17959119
  entropy T*S    EENTRO =        -0.00000000
  eigenvalues    EBANDS =       154.55378215
  atomic energy  EATOM  =      5638.56506835
  Solvation  Ediel_sol  =         0.00000000
  ---------------------------------------------------
  free energy    TOTEN  =      -298.98699975 eV

  energy without entropy =     -298.98699975  energy(sigma->0) =     -298.98699975


--------------------------------------------------------------------------------------------------------




--------------------------------------- Iteration      1(  20)  ---------------------------------------


    POTLOK:  cpu time    0.0731: real time    0.0742
    SETDIJ:  cpu time    0.1452: real time    0.1466
     EDDAV:  cpu time    3.5325: real time    3.5687
       DOS:  cpu time    0.1893: real time    0.1916
    --------------------------------------------
      LOOP:  cpu time    3.9400: real time    3.9811

 eigenvalue-minimisations  :  1920
 total energy-change (2. order) :-0.8477764E-06  (-0.1214863E-06)
 number of electron     215.9999999 magnetization 
 augmentation part      -12.6500520 magnetization 

 Free energy of the ion-electron system (eV)
  ---------------------------------------------------
  alpha Z        PSCENC =        93.56316191
  Ewald energy   TEWEN  =     -6229.80980546
  -Hartree energ DENC   =      -415.25453308
  -exchange      EXHF   =         0.00000000
  -V(xc)+E(xc)   XCENC  =      -475.43972472
  PAW double counting   =     23287.25005309   -22352.42280894
  entropy T*S    EENTRO =        -0.00000000
  eigenvalues    EBANDS =       154.56158824
  atomic energy  EATOM  =      5638.56506835
  Solvation  Ediel_sol  =         0.00000000
  ---------------------------------------------------
  free energy    TOTEN  =      -298.98700060 eV

  energy without entropy =     -298.98700060  energy(sigma->0) =     -298.98700060


--------------------------------------------------------------------------------------------------------




 average (electrostatic) potential at core
  the test charge radii are     0.9587  0.9892
  (the norm of the test charge is              1.0000)
       1 -83.7451       2 -83.3046       3 -83.3046       4 -83.3046       5 -83.1818
       6 -83.3046       7 -83.3046       8 -83.3046       9 -83.1760      10 -83.3046
      11 -83.1818      12 -83.3046      13 -83.1818      14 -83.1818      15 -83.1351
      16 -83.3046      17 -83.1351      18 -83.1350      19 -83.3046      20 -83.3046
      21 -83.1760      22 -83.3046      23 -83.1351      24 -83.1350      25 -83.1760
      26 -83.1350      27 -83.1760      28 -83.1287      29 -83.1917      30 -83.1917
      31 -83.1917      32 -83.7906      33 -83.1917      34 -83.1917      35 -83.1917
      36 -83.1337      37 -83.1917      38 -83.7906      39 -83.1917      40 -83.7906
      41 -83.7906      42 -83.2913      43 -83.1917      44 -83.2913      45 -83.2913
      46 -83.1917      47 -83.1917      48 -83.1337      49 -83.1917      50 -83.2913
      51 -83.2913      52 -83.1337      53 -83.2913      54 -83.1337
 
 
 
 E-fermi :   6.0318     XC(G=0):  -9.3941     alpha+bet :-11.9616


 k-point     1 :       0.0000    0.0000    0.0000
  band No.  band energies     occupation 
      1      -6.7616      2.00000
      2      -5.8220      2.00000
      3      -4.7869      2.00000
      4      -4.7869      2.00000
      5      -4.7869      2.00000
      6      -4.7229      2.00000
      7      -4.7229      2.00000
      8      -4.7229      2.00000
      9      -4.6885      2.00000
     10      -4.3487      2.00000
     11      -4.2202      2.00000
     12      -4.2202      2.00000
     13      -4.2202      2.00000
     14      -4.2046      2.00000
     15      -4.2046      2.00000
     16      -3.4139      2.00000
     17      -2.9560      2.00000
     18      -2.9560      2.00000
     19      -2.9560      2.00000
     20      -2.8577      2.00000
     21      -2.8577      2.00000
     22      -2.8577      2.00000
     23      -2.8284      2.00000
     24      -2.8284      2.00000
     25      -2.7964      2.00000
     26      -2.7964      2.00000
     27      -2.7964      2.00000
     28      -1.4380      2.00000
     29      -1.0836      2.00000
     30      -1.0836      2.00000
     31      -1.0836      2.00000
     32      -0.9369      2.00000
     33      -0.9369      2.00000
     34      -0.9369      2.00000
     35      -0.9010      2.00000
     36      -0.9010      2.00000
     37      -0.8711      2.00000
     38      -0.8711      2.00000
     39      -0.8711      2.00000
     40       0.2428      2.00000
     41       0.3240      2.00000
     42       0.3240      2.00000
     43       0.3240      2.00000
     44       0.5080      2.00000
     45       0.5080      2.00000
     46       0.5080      2.00000
     47       0.5261      2.00000
     48       0.7867      2.00000
     49       0.7984      2.00000
     50       0.7984      2.00000
     51       0.7984      2.00000
     52       0.8363      2.00000
     53       0.8363      2.00000
     54       1.1867      2.00000
     55       1.1867      2.00000
     56       1.1867      2.00000
     57       1.4012      2.00000
     58       1.4012      2.00000
     59       1.4740      2.00000
     60       1.4740      2.00000
     61       1.4740      2.00000
     62       1.4949      2.00000
     63       1.4949      2.00000
     64       1.4949      2.00000
     65       1.4963      2.00000
     66       2.9527      2.00000
     67       2.9527      2.00000
     68       2.9527      2.00000
     69       3.3887      2.00000
     70       3.3887      2.00000
     71       3.3887      2.00000
     72       3.4235      2.00000
     73       3.4235      2.00000
     74       3.4235      2.00000
     75       3.4483      2.00000
     76       3.4483      2.00000
     77       3.4483      2.00000
     78       3.6742      2.00000
     79       3.6742      2.00000
     80       3.6742      2.00000
     81       3.7235      2.00000
     82       3.7235      2.00000
     83       3.7235      2.00000
     84       3.7298      2.00000
     85       3.7298      2.00000
     86       3.7438      2.00000
     87       3.7633      2.00000
     88       3.7633      2.00000
     89       3.7633      2.00000
     90       4.5829      2.00000
     91       4.5829      2.00000
     92       4.5829      2.00000
     93       4.8116      2.00000
     94       4.8116      2.00000
     95       4.8145      2.00000
     96       4.8145      2.00000
     97       4.8145      2.00000
     98       4.8789      2.00000
     99       4.8789      2.00000
    100       4.8789      2.00000
    101       4.8816      2.00000
    102       4.8816      2.00000
    103       4.8822      2.00000
    104       4.8822      2.00000
    105       4.8822      2.00000
    106       5.8149      2.00000
    107       5.8149      2.00000
    108       5.8149      2.00000
    109       6.2612      0.00000
    110       6.5073      0.00000
    111       6.5073      0.00000
    112       6.5073      0.00000
    113       6.5693      0.00000
    114       6.5693      0.00000
    115       6.9119      0.00000
    116       7.3044      0.00000
    117       7.3044      0.00000
    118       7.3044      0.00000
    119       7.3722      0.00000
    120       7.3722      0.00000
    121       7.4118      0.00000
    122       7.4118      0.00000
    123       7.4118      0.00000
    124       7.4304      0.00000
    125       7.4304      0.00000
    126       7.4304      0.00000
    127       7.5425      0.00000
    128       7.5703      0.00000
    129       7.5703      0.00000
    130       7.5703      0.00000
    131       7.6450      0.00000
    132       7.6521      0.00000
    133       7.6521      0.00000
    134       7.6521      0.00000
    135       7.8360      0.00000
    136       7.8360      0.00000
    137       7.8360      0.00000
    138       7.8446      0.00000
    139       7.8446      0.00000
    140       7.8520      0.00000
    141       8.3454      0.00000
    142       8.3454      0.00000
    143       8.3454      0.00000
    144       9.1383      0.00000

 k-point     2 :       0.2500    0.0000    0.0000
  band No.  band energies     occupation 
      1      -6.7447      2.00000
      2      -5.7919      2.00000
      3      -5.2285      2.00000
      4      -4.8844      2.00000
      5      -4.8844      2.00000
      6      -4.6936      2.00000
      7      -4.6106      2.00000
      8      -4.6106      2.00000
      9      -4.5175      2.00000
     10      -4.4438      2.00000
     11      -4.4438      2.00000
     12      -4.1945      2.00000
     13      -3.8635      2.00000
     14      -3.6896      2.00000
     15      -3.6896      2.00000
     16      -3.5872      2.00000
     17      -3.4525      2.00000
     18      -3.4525      2.00000
     19      -3.0995      2.00000
     20      -2.9042      2.00000
     21      -2.9042      2.00000
     22      -2.8528      2.00000
     23      -2.8060      2.00000
     24      -2.8060      2.00000
     25      -2.6705      2.00000
     26      -2.5846      2.00000
     27      -2.5846      2.00000
     28      -1.5190      2.00000
     29      -1.2347      2.00000
     30      -1.2347      2.00000
     31      -1.2009      2.00000
     32      -1.0526      2.00000
     33      -1.0526      2.00000
     34      -0.9728      2.00000
     35      -0.9293      2.00000
     36      -0.9293      2.00000
     37      -0.6743      2.00000
     38      -0.5211      2.00000
     39      -0.4898      2.00000
[...]
   32        0.752   0.907   0.000   1.660
   33        0.750   0.939   0.000   1.689
   34        0.750   0.939   0.000   1.688
   35        0.750   0.939   0.000   1.688
   36        0.750   0.938   0.000   1.688
   37        0.750   0.939   0.000   1.689
   38        0.754   0.904   0.000   1.658
   39        0.750   0.939   0.000   1.689
   40        0.755   0.902   0.000   1.657
   41        0.755   0.902   0.000   1.657
   42        0.751   0.937   0.000   1.688
   43        0.750   0.939   0.000   1.689
   44        0.750   0.936   0.000   1.686
   45        0.750   0.936   0.000   1.686
   46        0.750   0.938   0.000   1.688
   47        0.750   0.939   0.000   1.688
   48        0.750   0.938   0.000   1.688
   49        0.750   0.939   0.000   1.689
   50        0.749   0.936   0.000   1.685
   51        0.749   0.935   0.000   1.685
   52        0.750   0.938   0.000   1.688
   53        0.750   0.936   0.000   1.686
   54        0.750   0.938   0.000   1.688
--------------------------------------------------
tot         40.782  51.061   0.000  91.843
 
    CHARGE:  cpu time    0.1872: real time    0.1885
    FORLOC:  cpu time    0.0335: real time    0.0338
    FORNL :  cpu time    1.6337: real time    1.6469
    STRESS:  cpu time    5.4873: real time    5.5339
    FORCOR:  cpu time    0.1349: real time    0.1363
    FORHAR:  cpu time    0.0444: real time    0.0448
    MIXING:  cpu time    0.0157: real time    0.0158
    OFIELD:  cpu time    0.0001: real time    0.0006

  FORCE on cell =-STRESS in cart. coord.  units (eV):
  Direction    XX          YY          ZZ          XY          YZ          ZX
  --------------------------------------------------------------------------------------
  Alpha Z    93.56316    93.56316    93.56316
  Ewald   -2076.61550 -2076.61550 -2076.61550    -0.00000    -0.00000    -0.00000
  Hartree   138.42043   138.42043   138.42043    -0.00000     0.00000     0.00000
  E(xc)    -685.68212  -685.68211  -685.68214    -0.00001    -0.00001    -0.00001
  Local    -804.43350  -804.43360  -804.43310     0.00014     0.00024     0.00035
  n-local  2095.23945  2112.05735  2126.76916    -2.34599    -0.97769     0.69135
  augment  -318.55710  -318.55702  -318.55745    -0.00012    -0.00021    -0.00030
  Kinetic  1518.69218  1544.53708  1567.23266    -1.61652    -1.34764     0.95293
  Fock        0.00000     0.00000     0.00000     0.00000     0.00000     0.00000
  -------------------------------------------------------------------------------------
  Total       1.53800     1.53800     1.53800     0.00000     0.00000     0.00000
  in kB       2.27952     2.27952     2.27952     0.00000     0.00000     0.00000
  external pressure =        2.28 kB  Pullay stress =        0.00 kB


 VOLUME and BASIS-vectors are now :
 -----------------------------------------------------------------------------
  energy-cutoff  :      550.00
  volume of cell :     1080.99
      direct lattice vectors                 reciprocal lattice vectors
     9.976465530  0.000000000  5.759915070     0.100235900 -0.035438742  0.000000000
     3.325488510  9.405901920  5.759915070     0.000000000  0.106316227  0.000000000
     0.000000000  0.000000000 11.519830140    -0.050117950 -0.035438742  0.086806836

  length of vectors
    11.519830124 11.519830136 11.519830140     0.106316227  0.106316227  0.106316227


 FORCES acting on ions
    electron-ion (+dipol)            ewald-force                    non-local-force                 convergence-correction
 -----------------------------------------------------------------------------------------------
   -.569E-06 -.302E-06 -.863E-06   0.149E-06 -.790E-07 0.129E-10   -.520E-17 -.139E-16 0.694E-17   0.114E-07 0.807E-08 0.198E-07
   -.539E+00 -.381E+00 -.279E+01   0.119E-06 -.632E-07 0.298E+01   0.306E+00 0.216E+00 -.223E+00   0.193E-04 0.137E-04 0.434E-03
   -.539E+00 -.381E+00 0.279E+01   0.119E-06 -.632E-07 -.298E+01   0.306E+00 0.216E+00 0.223E+00   0.193E-04 0.137E-04 -.434E-03
   -.108E+01 -.190E+01 -.186E+01   0.861E+00 0.244E+01 0.149E+01   0.886E-01 -.398E+00 0.153E+00   0.135E-03 0.341E-03 0.234E-03
   -.133E+00 0.471E-01 0.185E-05   -.715E-01 0.253E-01 0.239E-12   0.143E+00 -.506E-01 -.694E-17   -.115E-03 0.406E-04 -.335E-08
   -.108E+01 -.190E+01 0.186E+01   0.861E+00 0.244E+01 -.149E+01   0.886E-01 -.398E+00 -.153E+00   0.135E-03 0.341E-03 -.234E-03
   0.537E+00 0.266E+01 0.929E+00   -.861E+00 -.244E+01 -.149E+01   0.217E+00 -.343E-01 0.376E+00   -.116E-03 -.368E-03 -.200E-03
   0.537E+00 0.266E+01 -.929E+00   -.861E+00 -.244E+01 0.149E+01   0.217E+00 -.343E-01 -.376E+00   -.116E-03 -.368E-03 0.200E-03
   -.263E+00 0.929E-01 0.510E-06   0.715E-01 -.253E-01 -.503E-11   0.122E+00 -.430E-01 0.000E+00   0.823E-04 -.291E-04 -.100E-07
   -.215E+01 -.381E+00 -.186E+01   0.258E+01 -.630E-07 0.149E+01   -.346E+00 0.216E+00 0.153E+00   0.366E-03 0.137E-04 0.234E-03
   0.100E-05 -.141E+00 0.185E-05   0.115E-06 -.758E-01 0.232E-12   -.186E-16 0.152E+00 -.486E-16   -.194E-08 -.122E-03 -.335E-08
   -.215E+01 -.381E+00 0.186E+01   0.258E+01 -.630E-07 -.149E+01   -.346E+00 0.216E+00 -.153E+00   0.366E-03 0.137E-04 -.234E-03
   0.666E-01 0.471E-01 -.115E+00   0.357E-01 0.253E-01 -.619E-01   -.715E-01 -.506E-01 0.124E+00   0.574E-04 0.406E-04 -.995E-04
   0.666E-01 0.471E-01 0.115E+00   0.357E-01 0.253E-01 0.619E-01   -.715E-01 -.506E-01 -.124E+00   0.574E-04 0.406E-04 0.995E-04
   -.825E+00 -.583E+00 0.313E-06   0.868E+00 0.614E+00 0.362E-12   -.388E-01 -.274E-01 0.208E-16   0.268E-03 0.190E-03 -.950E-08
   -.107E+01 0.266E+01 -.178E-05   0.172E+01 -.244E+01 0.479E-11   -.435E+00 -.343E-01 0.434E-17   0.231E-03 -.368E-03 0.136E-07
   -.412E+00 0.583E+00 -.714E+00   0.434E+00 -.614E+00 0.752E+00   -.194E-01 0.274E-01 -.336E-01   0.134E-03 -.190E-03 0.232E-03
   -.412E+00 0.583E+00 0.714E+00   0.434E+00 -.614E+00 -.752E+00   -.194E-01 0.274E-01 0.336E-01   0.134E-03 -.190E-03 -.232E-03
   0.269E+01 -.381E+00 0.929E+00   -.258E+01 -.634E-07 -.149E+01   0.400E-01 0.216E+00 0.376E+00   -.386E-03 0.137E-04 -.200E-03
   0.269E+01 -.381E+00 -.929E+00   -.258E+01 -.634E-07 0.149E+01   0.400E-01 0.216E+00 -.376E+00   -.386E-03 0.137E-04 0.200E-03
   0.222E-06 -.279E+00 0.510E-06   0.124E-06 0.758E-01 -.504E-11   -.217E-17 0.129E+00 0.486E-16   -.579E-08 0.873E-04 -.100E-07
   0.215E+01 -.190E+01 -.178E-05   -.172E+01 0.244E+01 0.479E-11   -.177E+00 -.398E+00 -.694E-17   -.270E-03 0.341E-03 0.136E-07
   0.412E+00 -.583E+00 -.714E+00   -.434E+00 0.614E+00 0.752E+00   0.194E-01 -.274E-01 -.336E-01   -.134E-03 0.190E-03 0.232E-03
   0.412E+00 -.583E+00 0.714E+00   -.434E+00 0.614E+00 -.752E+00   0.194E-01 -.274E-01 0.336E-01   -.134E-03 0.190E-03 -.232E-03
   0.131E+00 0.929E-01 -.227E+00   -.357E-01 -.253E-01 0.619E-01   -.608E-01 -.430E-01 0.105E+00   -.412E-04 -.291E-04 0.713E-04
   0.825E+00 0.583E+00 0.143E-05   -.868E+00 -.614E+00 -.107E-10   0.388E-01 0.274E-01 -.243E-16   -.268E-03 -.190E-03 -.298E-08
   0.131E+00 0.929E-01 0.227E+00   -.357E-01 -.253E-01 -.619E-01   -.608E-01 -.430E-01 -.105E+00   -.411E-04 -.291E-04 -.713E-04
   0.683E-06 0.401E-06 0.107E-05   -.116E-06 0.615E-07 0.105E-10   -.165E-16 -.347E-17 -.694E-17   -.214E-08 -.152E-08 -.371E-08
   0.125E+01 0.881E+00 0.858E+00   -.142E+01 -.101E+01 -.718E+00   0.133E+00 0.938E-01 -.846E-01   -.289E-03 -.205E-03 -.699E-04
   0.125E+01 0.881E+00 -.858E+00   -.142E+01 -.101E+01 0.718E+00   0.133E+00 0.938E-01 0.846E-01   -.289E-03 -.205E-03 0.699E-04
   0.870E+00 -.180E+00 0.151E+01   -.919E+00 0.420E+00 -.159E+01   0.419E-01 -.163E+00 0.725E-01   -.165E-03 0.147E-03 -.285E-03
   0.574E+01 -.203E+01 -.155E-05   -.932E+01 0.329E+01 0.597E-11   0.358E+01 -.127E+01 0.555E-16   -.279E-03 0.987E-04 0.154E-07
   0.870E+00 -.180E+00 -.151E+01   -.919E+00 0.420E+00 0.159E+01   0.419E-01 -.163E+00 -.725E-01   -.165E-03 0.147E-03 0.285E-03
   0.375E+00 -.158E+01 0.650E+00   -.504E+00 0.159E+01 -.873E+00   0.907E-01 -.247E-01 0.157E+00   -.124E-03 0.262E-03 -.216E-03
   0.375E+00 -.158E+01 -.650E+00   -.504E+00 0.159E+01 0.873E+00   0.907E-01 -.247E-01 -.157E+00   -.124E-03 0.262E-03 0.216E-03
   0.298E+00 -.105E+00 -.337E-07   -.334E+00 0.118E+00 -.490E-11   0.343E-01 -.121E-01 -.104E-16   -.152E-03 0.537E-04 -.934E-08
   0.120E+00 0.881E+00 0.151E+01   0.899E-01 -.101E+01 -.159E+01   -.140E+00 0.938E-01 0.725E-01   0.841E-04 -.205E-03 -.285E-03
   -.814E-06 0.609E+01 -.155E-05   -.120E-06 -.988E+01 0.595E-11   0.694E-17 0.380E+01 0.104E-15   0.888E-08 -.296E-03 0.154E-07
   0.120E+00 0.881E+00 -.151E+01   0.899E-01 -.101E+01 0.159E+01   -.140E+00 0.938E-01 -.725E-01   0.841E-04 -.205E-03 0.285E-03
   -.287E+01 -.203E+01 0.497E+01   0.466E+01 0.329E+01 -.807E+01   -.179E+01 -.127E+01 0.310E+01   0.140E-03 0.987E-04 -.242E-03
   -.287E+01 -.203E+01 -.497E+01   0.466E+01 0.329E+01 0.807E+01   -.179E+01 -.127E+01 -.310E+01   0.140E-03 0.986E-04 0.242E-03
   0.332E+00 0.235E+00 -.263E-06   0.215E+00 0.152E+00 -.104E-10   -.335E+00 -.237E+00 -.486E-16   -.583E-05 -.412E-05 -.102E-07
   -.750E+00 -.158E+01 0.132E-05   0.101E+01 0.159E+01 -.457E-12   -.181E+00 -.247E-01 0.694E-17   0.249E-03 0.262E-03 -.325E-08
   0.166E+00 -.235E+00 0.288E+00   0.108E+00 -.152E+00 0.186E+00   -.167E+00 0.237E+00 -.290E+00   -.292E-05 0.411E-05 -.505E-05
   0.166E+00 -.235E+00 -.288E+00   0.108E+00 -.152E+00 -.186E+00   -.167E+00 0.237E+00 0.290E+00   -.290E-05 0.412E-05 0.506E-05
   -.137E+01 0.881E+00 0.650E+00   0.133E+01 -.101E+01 -.873E+00   0.699E-02 0.938E-01 0.157E+00   0.205E-03 -.205E-03 -.216E-03
   -.137E+01 0.881E+00 -.650E+00   0.133E+01 -.101E+01 0.873E+00   0.699E-02 0.938E-01 -.157E+00   0.205E-03 -.205E-03 0.216E-03
   0.538E-07 0.316E+00 -.337E-07   -.122E-06 -.354E+00 -.492E-11   0.781E-17 0.364E-01 0.694E-17   -.539E-08 -.161E-03 -.934E-08
   -.174E+01 -.180E+00 0.132E-05   0.184E+01 0.420E+00 -.453E-12   -.838E-01 -.163E+00 0.139E-16   0.330E-03 0.147E-03 -.325E-08
   -.166E+00 0.235E+00 0.288E+00   -.108E+00 0.152E+00 0.186E+00   0.167E+00 -.237E+00 -.290E+00   0.291E-05 -.412E-05 -.505E-05
   -.166E+00 0.235E+00 -.288E+00   -.108E+00 0.152E+00 -.186E+00   0.167E+00 -.237E+00 0.290E+00   0.292E-05 -.411E-05 0.506E-05
   -.149E+00 -.105E+00 0.258E+00   0.167E+00 0.118E+00 -.289E+00   -.172E-01 -.121E-01 0.297E-01   0.759E-04 0.537E-04 -.132E-03
   -.332E+00 -.235E+00 -.169E-05   -.215E+00 -.152E+00 -.393E-12   0.335E+00 0.237E+00 -.347E-17   0.583E-05 0.412E-05 0.131E-07
   -.149E+00 -.105E+00 -.258E+00   0.167E+00 0.118E+00 0.289E+00   -.172E-01 -.121E-01 -.297E-01   0.759E-04 0.537E-04 0.131E-03
 -----------------------------------------------------------------------------------------------
   0.425E-06 0.282E-06 0.695E-06   0.167E-13 -.902E-15 -.152E-13   0.187E-14 0.229E-15 -.867E-15   0.268E-08 0.189E-08 0.464E-08
 
 
 POSITION                                       TOTAL-FORCE (eV/Angst)
 -----------------------------------------------------------------------------------
      3.87974      2.74339      6.71990        -0.000000     -0.000000      0.000000
      3.87974      2.74339     10.55984        -0.232951     -0.164721     -0.031081
      3.87974      2.74339     14.39979        -0.232951     -0.164721      0.031081
      4.98823      5.87869      8.63987        -0.125448      0.139344     -0.217282
      4.98823      5.87869     12.47982        -0.061737      0.021827     -0.000000
      4.98823      5.87869     16.31976        -0.125448      0.139344      0.217282
      6.09673      9.01399     10.55984        -0.107503      0.190099     -0.186201
      6.09673      9.01399     14.39979        -0.107503      0.190099      0.186201
      6.09673      9.01399     18.23973        -0.069531      0.024583      0.000000
      7.20523      2.74339      8.63987         0.089558     -0.164721     -0.217282
      7.20523      2.74339     12.47982        -0.000000     -0.065482     -0.000000
      7.20523      2.74339     16.31976         0.089558     -0.164721      0.217282
      8.31372      5.87869     10.55984         0.030869      0.021827     -0.053466
      8.31372      5.87869     14.39979         0.030869      0.021827      0.053466
      8.31372      5.87869     18.23973         0.004664      0.003298      0.000000
      9.42222      9.01399     12.47982         0.215006      0.190099      0.000000
      9.42222      9.01399     16.31976         0.002332     -0.003298      0.004039
      9.42222      9.01399     20.15970         0.002332     -0.003298     -0.004039
     10.53071      2.74339     10.55984         0.143393     -0.164721     -0.186201
     10.53071      2.74339     14.39979         0.143393     -0.164721      0.186201
     10.53071      2.74339     18.23973        -0.000000     -0.073749      0.000000
     11.63921      5.87869     12.47982         0.250896      0.139344     -0.000000
     11.63921      5.87869     16.31976        -0.002332      0.003298      0.004039
     11.63921      5.87869     20.15970        -0.002332      0.003298     -0.004039
     12.74771      9.01399     14.39979         0.034766      0.024583     -0.060216
     12.74771      9.01399     18.23973        -0.004664     -0.003298      0.000000
     12.74771      9.01399     22.07967         0.034766      0.024583      0.060216
      0.55425      0.39191      0.95999        -0.000000     -0.000000      0.000000
      0.55425      0.39191      4.79993        -0.045320     -0.032046      0.055376
      0.55425      0.39191      8.63987        -0.045320     -0.032046     -0.055376
      1.66274      3.52721      2.87996        -0.006674      0.077261     -0.011560
      1.66274      3.52721      6.71990         0.008792     -0.003108      0.000000
      1.66274      3.52721     10.55984        -0.006674      0.077261      0.011560
      2.77124      6.66251      4.79993        -0.038646     -0.013168     -0.066937
      2.77124      6.66251      8.63987        -0.038646     -0.013168      0.066937
      2.77124      6.66251     12.47982        -0.001879      0.000664      0.000000
      3.87974      0.39191      2.87996         0.070617     -0.032046     -0.011560
      3.87974      0.39191      6.71990        -0.000000      0.009325      0.000000
      3.87974      0.39191     10.55984         0.070617     -0.032046      0.011560
      4.98823      3.52721      4.79993        -0.004396     -0.003108      0.007614
      4.98823      3.52721      8.63987        -0.004396     -0.003108     -0.007614
      4.98823      3.52721     12.47982         0.212686      0.150392     -0.000000
      6.09673      6.66251      6.71990         0.077292     -0.013168      0.000000
      6.09673      6.66251     10.55984         0.106343     -0.150392      0.184192
      6.09673      6.66251     14.39979         0.106343     -0.150392     -0.184192
      7.20523      0.39191      4.79993        -0.025297     -0.032046     -0.066937
      7.20523      0.39191      8.63987        -0.025297     -0.032046      0.066937
      7.20523      0.39191     12.47982        -0.000000     -0.001993      0.000000
      8.31372      3.52721      6.71990         0.013349      0.077261      0.000000
      8.31372      3.52721     10.55984        -0.106343      0.150392      0.184192
      8.31372      3.52721     14.39979        -0.106343      0.150392     -0.184192
      9.42222      6.66251      8.63987         0.000940      0.000664     -0.001628
      9.42222      6.66251     12.47982        -0.212686     -0.150392     -0.000000
      9.42222      6.66251     16.31976         0.000940      0.000664      0.001628
 -----------------------------------------------------------------------------------
    total drift:                                0.000000      0.000000      0.000001


--------------------------------------------------------------------------------------------------------



  FREE ENERGIE OF THE ION-ELECTRON SYSTEM (eV)
  ---------------------------------------------------
  free  energy   TOTEN  =      -298.98700060 eV

  energy  without entropy=     -298.98700060  energy(sigma->0) =     -298.98700060
 


--------------------------------------------------------------------------------------------------------


    POTLOK:  cpu time    0.0902: real time    0.0912


--------------------------------------------------------------------------------------------------------


 writing wavefunctions
     LOOP+:  cpu time  113.8550: real time  115.6349
    4ORBIT:  cpu time    0.0000: real time    0.0000
 


 total charge     
 
# of ion       s       p       d       tot
------------------------------------------
    1        1.018   1.469   0.000   2.486
    2        0.751   0.939   0.000   1.690
    3        0.751   0.939   0.000   1.690
    4        0.750   0.939   0.000   1.689
    5        0.750   0.939   0.000   1.689
    6        0.750   0.939   0.000   1.689
    7        0.750   0.939   0.000   1.689
    8        0.750   0.939   0.000   1.689
    9        0.750   0.938   0.000   1.688
   10        0.750   0.939   0.000   1.688
   11        0.750   0.939   0.000   1.689
   12        0.749   0.939   0.000   1.688
   13        0.750   0.939   0.000   1.689
   14        0.750   0.939   0.000   1.689
   15        0.750   0.939   0.000   1.689
   16        0.750   0.939   0.000   1.689
   17        0.750   0.939   0.000   1.689
   18        0.750   0.939   0.000   1.689
   19        0.750   0.938   0.000   1.688
   20        0.750   0.938   0.000   1.688
   21        0.750   0.938   0.000   1.688
   22        0.750   0.938   0.000   1.689
   23        0.750   0.939   0.000   1.689
   24        0.750   0.939   0.000   1.689
   25        0.750   0.938   0.000   1.688
   26        0.750   0.938   0.000   1.688
   27        0.750   0.938   0.000   1.688
   28        0.750   0.939   0.000   1.689
   29        0.750   0.939   0.000   1.688
   30        0.750   0.939   0.000   1.688
   31        0.750   0.939   0.000   1.689
   32        0.752   0.907   0.000   1.660
   33        0.750   0.939   0.000   1.689
   34        0.750   0.939   0.000   1.688
   35        0.750   0.939   0.000   1.688
   36        0.750   0.938   0.000   1.688
   37        0.750   0.939   0.000   1.689
   38        0.754   0.904   0.000   1.658
   39        0.750   0.939   0.000   1.689
   40        0.755   0.902   0.000   1.657
   41        0.755   0.902   0.000   1.657
   42        0.751   0.937   0.000   1.688
   43        0.750   0.939   0.000   1.689
   44        0.750   0.936   0.000   1.686
   45        0.750   0.936   0.000   1.686
   46        0.750   0.938   0.000   1.688
   47        0.750   0.939   0.000   1.688
   48        0.750   0.938   0.000   1.688
   49        0.750   0.939   0.000   1.689
   50        0.749   0.936   0.000   1.685
   51        0.749   0.935   0.000   1.685
   52        0.750   0.938   0.000   1.688
   53        0.750   0.936   0.000   1.686
   54        0.750   0.938   0.000   1.688
--------------------------------------------------
tot         40.782  51.061   0.000  91.843
 

 total amount of memory used by VASP MPI-rank0   140598. kBytes
=======================================================================

   base      :      30000. kBytes
   nonl-proj :      59902. kBytes
   fftplans  :       5382. kBytes
   grid      :      20451. kBytes
   one-center:        165. kBytes
   wavefun   :      24698. kBytes
 
  
  
 General timing and accounting informations for this job:
 ========================================================
  
                  Total CPU time used (sec):      129.260
                            User time (sec):      122.578
                          System time (sec):        6.682
                         Elapsed time (sec):      134.316
  
                   Maximum memory used (kb):      381284.
                   Average memory used (kb):           0.
  
                          Minor page faults:        53974
                          Major page faults:            0
                 Voluntary context switches:         5293
