 vasp.5.4.4.18Apr17-6-g9f103f2a35 (build Jun 19 2019 10:34:07) complex          
  
 executed on               LB-5.4 date 2023.05.15  18:42:41
 running on   96 total cores
 distrk:  each k-point on   24 cores,    4 groups
 distr:  one band on NCORES_PER_BAND=   1 cores,   24 groups


--------------------------------------------------------------------------------------------------------


 INCAR:
 POTCAR:    PAW_PBE Si 05Jan2001                  

 ----------------------------------------------------------------------------- 
|                                                                             |
|           W    W    AA    RRRRR   N    N  II  N    N   GGGG   !!!           |
|           W    W   A  A   R    R  NN   N  II  NN   N  G    G  !!!           |
|           W    W  A    A  R    R  N N  N  II  N N  N  G       !!!           |
|           W WW W  AAAAAA  RRRRR   N  N N  II  N  N N  G  GGG   !            |
|           WW  WW  A    A  R   R   N   NN  II  N   NN  G    G                |
|           W    W  A    A  R    R  N    N  II  N    N   GGGG   !!!           |
|                                                                             |
|      For optimal performance we recommend to set                            |
|        NCORE= 4 - approx SQRT( number of cores)                             |
|      NCORE specifies how many cores store one orbital (NPAR=cpu/NCORE).     |
|      This setting can  greatly improve the performance of VASP for DFT.     |
|      The default,   NCORE=1            might be grossly inefficient         |
|      on modern multi-core architectures or massively parallel machines.     |
|      Do your own testing !!!!                                               |
|      Unfortunately you need to use the default for GW and RPA calculations. |
|      (for HF NCORE is supported but not extensively tested yet)             |
|                                                                             |
 ----------------------------------------------------------------------------- 


 ----------------------------------------------------------------------------- 
|                                                                             |
|           W    W    AA    RRRRR   N    N  II  N    N   GGGG   !!!           |
|           W    W   A  A   R    R  NN   N  II  NN   N  G    G  !!!           |
|           W    W  A    A  R    R  N N  N  II  N N  N  G       !!!           |
|           W WW W  AAAAAA  RRRRR   N  N N  II  N  N N  G  GGG   !            |
|           WW  WW  A    A  R   R   N   NN  II  N   NN  G    G                |
|           W    W  A    A  R    R  N    N  II  N    N   GGGG   !!!           |
|                                                                             |
|      You have enabled k-point parallelism (KPAR>1).                         |
|      This developmental code was originally  written by Paul Kent at ORNL,  |
|      and carefully double checked in Vienna.                                |
|      GW as well as linear response parallelism added by Martijn Marsman     |
|      and Georg Kresse.                                                      |
|      Carefully verify results versus KPAR=1.                                |
|      Report problems to Paul Kent and Vienna.                               |
|                                                                             |
 ----------------------------------------------------------------------------- 

 POTCAR:    PAW_PBE Si 05Jan2001                  
   VRHFIN =Si: s2p2                                                             
   LEXCH  = PE                                                                  
   EATOM  =   103.0669 eV,    7.5752 Ry                                         
                                                                                
   TITEL  = PAW_PBE Si 05Jan2001                                                
   LULTRA =        F    use ultrasoft PP ?                                      
   IUNSCR =        1    unscreen: 0-lin 1-nonlin 2-no                           
   RPACOR =    1.500    partial core radius                                     
   POMASS =   28.085; ZVAL   =    4.000    mass and valenz                      
   RCORE  =    1.900    outmost cutoff radius                                   
   RWIGS  =    2.480; RWIGS  =    1.312    wigner-seitz radius (au A)           
   ENMAX  =  245.345; ENMIN  =  184.009 eV                                      
   ICORE  =        2    local potential                                         
   LCOR   =        T    correct aug charges                                     
   LPAW   =        T    paw PP                                                  
   EAUG   =  322.069                                                            
   DEXC   =    0.000                                                            
   RMAX   =    1.950    core radius for proj-oper                               
   RAUG   =    1.300    factor for augmentation sphere                          
   RDEP   =    1.993    radius for radial grids                                 
   RDEPT  =    1.837    core radius for aug-charge                              
                                                                                
   Atomic configuration                                                         
    6 entries                                                                   
     n  l   j            E        occ.                                          
     1  0  0.50     -1785.8828   2.0000                                         
     2  0  0.50      -139.4969   2.0000                                         
     2  1  1.50       -95.5546   6.0000                                         
     3  0  0.50       -10.8127   2.0000                                         
     3  1  0.50        -4.0811   2.0000                                         
     3  2  1.50        -4.0817   0.0000                                         
   Description                                                                  
     l       E           TYP  RCUT    TYP  RCUT                                 
     0    -10.8127223     23  1.900                                             
     0     -7.6451159     23  1.900                                             
     1     -4.0811372     23  1.900                                             
     1      2.4879257     23  1.900                                             
     2     -4.0817478      7  1.900                                             
  local pseudopotential read in
  partial core-charges read in
  partial kinetic energy density read in
  atomic valenz-charges read in
  non local Contribution for L=           0  read in
    real space projection operators read in
  non local Contribution for L=           0  read in
    real space projection operators read in
  non local Contribution for L=           1  read in
    real space projection operators read in
  non local Contribution for L=           1  read in
    real space projection operators read in
    PAW grid and wavefunctions read in
 
   number of l-projection  operators is LMAX  =           4
   number of lm-projection operators is LMMAX =           8
 

 ----------------------------------------------------------------------------- 
|                                                                             |
|  ADVICE TO THIS USER RUNNING 'VASP/VAMP'   (HEAR YOUR MASTER'S VOICE ...):  |
|                                                                             |
|      You have a (more or less) 'large supercell' and for larger cells       |
|      it might be more efficient to use real space projection opertators     |
|      So try LREAL= Auto  in the INCAR   file.                               |
|      Mind:          For very  accurate calculation you might also keep the  |
|      reciprocal projection scheme          (i.e. LREAL=.FALSE.)             |
|                                                                             |
 ----------------------------------------------------------------------------- 

  PAW_PBE Si 05Jan2001                  :
 energy of atom  1       EATOM= -103.0669
 kinetic energy error for atom=    0.0004 (will be added to EATOM!!)
 
 
 POSCAR: Si55                                    
  positions in direct lattice
  velocities in cartesian coordinates
 exchange correlation table for  LEXCH =        8
   RHO(1)=    0.500       N(1)  =     2000
   RHO(2)=  100.500       N(2)  =     4000
 


--------------------------------------------------------------------------------------------------------


 ion  position               nearest neighbor table
   1  0.292  0.292  0.292-  32 2.35  40 2.35  41 2.35  38 2.35
   2  0.292  0.292  0.625-  33 2.35  41 2.35  42 2.35  39 2.35
   3  0.292  0.292  0.958-  31 2.35  40 2.35  42 2.35  37 2.35
   4  0.292  0.625  0.292-  35 2.35  43 2.35  44 2.35  41 2.35
   5  0.292  0.625  0.625-  36 2.35  44 2.35  45 2.35  42 2.35
   6  0.292  0.625  0.958-  34 2.35  43 2.35  45 2.35  40 2.35
   7  0.292  0.958  0.292-  29 2.35  37 2.35  38 2.35  44 2.35
   8  0.292  0.958  0.625-  30 2.35  38 2.35  39 2.35  45 2.35
   9  0.292  0.958  0.958-  28 2.35  37 2.35  39 2.35  43 2.35
  10  0.625  0.292  0.292-  41 2.35  49 2.35  50 2.35  47 2.35
  11  0.625  0.292  0.625-  55 2.25  42 2.35  50 2.35  51 2.35  48 2.35
  12  0.625  0.292  0.958-  40 2.35  49 2.35  51 2.35  46 2.35
  13  0.625  0.625  0.292-  55 2.25  44 2.35  52 2.35  53 2.35  50 2.35
  14  0.625  0.625  0.625-  55 2.25  45 2.35  53 2.35  54 2.35  51 2.35
  15  0.625  0.625  0.958-  43 2.35  52 2.35  54 2.35  49 2.35
  16  0.625  0.958  0.292-  38 2.35  46 2.35  47 2.35  53 2.35
  17  0.625  0.958  0.625-  39 2.35  47 2.35  48 2.35  54 2.35
  18  0.625  0.958  0.958-  37 2.35  46 2.35  48 2.35  52 2.35
  19  0.958  0.292  0.292-  50 2.35  32 2.35  31 2.35  29 2.35
  20  0.958  0.292  0.625-  51 2.35  33 2.35  32 2.35  30 2.35
  21  0.958  0.292  0.958-  49 2.35  31 2.35  33 2.35  28 2.35
  22  0.958  0.625  0.292-  53 2.35  35 2.35  34 2.35  32 2.35
  23  0.958  0.625  0.625-  54 2.35  36 2.35  35 2.35  33 2.35
  24  0.958  0.625  0.958-  52 2.35  34 2.35  36 2.35  31 2.35
  25  0.958  0.958  0.292-  47 2.35  29 2.35  28 2.35  35 2.35
  26  0.958  0.958  0.625-  48 2.35  30 2.35  29 2.35  36 2.35
  27  0.958  0.958  0.958-  46 2.35  28 2.35  30 2.35  34 2.35
  28  0.042  0.042  0.042-   9 2.35  27 2.35  25 2.35  21 2.35
  29  0.042  0.042  0.375-   7 2.35  25 2.35  26 2.35  19 2.35
  30  0.042  0.042  0.708-   8 2.35  26 2.35  27 2.35  20 2.35
  31  0.042  0.375  0.042-   3 2.35  21 2.35  19 2.35  24 2.35
  32  0.042  0.375  0.375-   1 2.35  19 2.35  20 2.35  22 2.35
  33  0.042  0.375  0.708-   2 2.35  20 2.35  21 2.35  23 2.35
  34  0.042  0.708  0.042-   6 2.35  24 2.35  22 2.35  27 2.35
  35  0.042  0.708  0.375-   4 2.35  22 2.35  23 2.35  25 2.35
  36  0.042  0.708  0.708-   5 2.35  23 2.35  24 2.35  26 2.35
  37  0.375  0.042  0.042-  18 2.35   9 2.35   7 2.35   3 2.35
  38  0.375  0.042  0.375-  16 2.35   8 2.35   7 2.35   1 2.35
  39  0.375  0.042  0.708-  17 2.35   9 2.35   8 2.35   2 2.35
  40  0.375  0.375  0.042-  12 2.35   3 2.35   1 2.35   6 2.35
  41  0.375  0.375  0.375-  10 2.35   2 2.35   1 2.35   4 2.35
  42  0.375  0.375  0.708-  11 2.35   3 2.35   2 2.35   5 2.35
  43  0.375  0.708  0.042-  15 2.35   6 2.35   4 2.35   9 2.35
  44  0.375  0.708  0.375-  13 2.35   5 2.35   4 2.35   7 2.35
  45  0.375  0.708  0.708-  14 2.35   6 2.35   5 2.35   8 2.35
  46  0.708  0.042  0.042-  27 2.35  18 2.35  16 2.35  12 2.35
  47  0.708  0.042  0.375-  25 2.35  17 2.35  16 2.35  10 2.35
  48  0.708  0.042  0.708-  26 2.35  18 2.35  17 2.35  11 2.35
  49  0.708  0.375  0.042-  21 2.35  12 2.35  10 2.35  15 2.35
  50  0.708  0.375  0.375-  55 2.25  19 2.35  11 2.35  10 2.35  13 2.35
  51  0.708  0.375  0.708-  55 2.25  20 2.35  12 2.35  11 2.35  14 2.35
  52  0.708  0.708  0.042-  24 2.35  15 2.35  13 2.35  18 2.35
  53  0.708  0.708  0.375-  55 2.25  22 2.35  14 2.35  13 2.35  16 2.35
  54  0.708  0.708  0.708-  23 2.35  15 2.35  14 2.35  17 2.35
  55  0.667  0.500  0.500-  50 2.25  11 2.25  13 2.25  53 2.25  14 2.25  51 2.25
 
  LATTYP: Found a face centered cubic cell.
 ALAT       =    16.2915000202
  
  Lattice vectors:
  
 A1 = (   9.9764655300,   0.0000000000,   5.7599150700)
 A2 = (   3.3254885100,   9.4059019200,   5.7599150700)
 A3 = (   0.0000000000,   0.0000000000,  11.5198301400)


Analysis of symmetry for initial positions (statically):
=====================================================================
 Subroutine PRICEL returns:
 Original cell was already a primitive cell.
 

 Routine SETGRP: Setting up the symmetry group for a 
 face centered cubic supercell.


 Subroutine GETGRP returns: Found 12 space group operations
 (whereof  2 operations were pure point group operations)
 out of a pool of 48 trial point group operations.


The static configuration has the point symmetry C_1h.
 The point group associated with its full space group is D_3d.


Analysis of symmetry for dynamics (positions and initial velocities):
=====================================================================
 Subroutine PRICEL returns:
 Original cell was already a primitive cell.
 

 Routine SETGRP: Setting up the symmetry group for a 
 face centered cubic supercell.


 Subroutine GETGRP returns: Found 12 space group operations
 (whereof  2 operations were pure point group operations)
 out of a pool of 48 trial point group operations.


The dynamic configuration has the point symmetry C_1h.
 The point group associated with its full space group is D_3d.


 Subroutine INISYM returns: Found 12 space group operations
 (whereof  2 operations are pure point group operations),
 and found     1 'primitive' translations

 
 
 KPOINTS: Automatic kpoint scheme                 

Automatic generation of k-mesh.
Space group operators:
 irot       det(A)        alpha          n_x          n_y          n_z        tau_x        tau_y        tau_z
    1     1.000000     0.000000     1.000000     0.000000     0.000000     0.000000     0.000000     0.000000
    2    -1.000000   180.000000     0.288675     0.816497    -0.500000     0.000000     0.000000     0.000000
    3    -1.000000     0.000000     1.000000     0.000000     0.000000     0.333333     0.000000     0.000000
    4     1.000000   120.000000     0.942809    -0.333333     0.000000     0.000000     0.000000     0.166667
    5    -1.000000   120.000000     0.942809    -0.333333     0.000000     0.333333     0.000000     0.833333
    6     1.000000   180.000000     0.288675     0.816497     0.500000     0.333333     0.833333    -0.000000
    7    -1.000000   180.000000     0.288675     0.816497     0.500000    -0.000000     0.166667     0.000000
    8     1.000000   180.000000     0.000000    -0.000000     1.000000     0.333333     0.000000     0.833333
    9    -1.000000   180.000000     0.000000    -0.000000     1.000000     0.000000     0.000000     0.166667
   10     1.000000   120.000000    -0.942809     0.333333     0.000000     0.000000     0.166667    -0.000000
   11    -1.000000   120.000000    -0.942809     0.333333     0.000000     0.333333     0.833333    -0.000000
   12     1.000000   180.000000     0.288675     0.816497    -0.500000     0.333333     0.000000     0.000000
 
 Subroutine IBZKPT returns following result:
 ===========================================
 
 Found     13 irreducible k-points:
 
 Following reciprocal coordinates:
            Coordinates               Weight
  0.000000  0.000000  0.000000      1.000000
  0.250000  0.000000  0.000000      2.000000
  0.500000  0.000000  0.000000      1.000000
  0.000000  0.250000  0.000000      6.000000
  0.250000  0.250000  0.000000      6.000000
  0.500000  0.250000  0.000000      6.000000
 -0.250000  0.250000  0.000000      6.000000
  0.000000  0.500000  0.000000      3.000000
  0.250000  0.500000  0.000000      6.000000
  0.500000  0.500000  0.000000      3.000000
  0.000000  0.500000  0.250000     12.000000
  0.250000  0.500000  0.250000      6.000000
 -0.250000  0.500000  0.250000      6.000000
 
 Following cartesian coordinates:
            Coordinates               Weight
  0.000000  0.000000  0.000000      1.000000
  0.025059 -0.008860  0.000000      2.000000
  0.050118 -0.017719  0.000000      1.000000
  0.000000  0.026579  0.000000      6.000000
  0.025059  0.017719  0.000000      6.000000
  0.050118  0.008860  0.000000      6.000000
 -0.025059  0.035439  0.000000      6.000000
  0.000000  0.053158  0.000000      3.000000
  0.025059  0.044298  0.000000      6.000000
  0.050118  0.035439  0.000000      3.000000
 -0.012529  0.044298  0.021702     12.000000
  0.012529  0.035439  0.021702      6.000000
 -0.037588  0.053158  0.021702      6.000000
 


--------------------------------------------------------------------------------------------------------




 Dimension of arrays:
   k-points           NKPTS =     13   k-points in BZ     NKDIM =     13   number of bands    NBANDS=    144
   number of dos      NEDOS =    301   number of ions     NIONS =     55
   non local maximal  LDIM  =      4   non local SUM 2l+1 LMDIM =      8
   total plane-waves  NPLWV = 343000
   max r-space proj   IRMAX =      1   max aug-charges    IRDMAX=  10807
   dimension x,y,z NGX =    70 NGY =   70 NGZ =   70
   dimension x,y,z NGXF=   140 NGYF=  140 NGZF=  140
   support grid    NGXF=   140 NGYF=  140 NGZF=  140
   ions per type =              55
   NGX,Y,Z   is equivalent  to a cutoff of  10.10, 10.10, 10.10 a.u.
   NGXF,Y,Z  is equivalent  to a cutoff of  20.20, 20.20, 20.20 a.u.

 SYSTEM =  Si                                      
 POSCAR =  Si55                                    

 Startparameter for this run:
   NWRITE =      2    write-flag & timer
   PREC   = normal    normal or accurate (medium, high low for compatibility)
   ISTART =      1    job   : 0-new  1-cont  2-samecut
   ICHARG =      0    charge: 1-file 2-atom 10-const
   ISPIN  =      1    spin polarized calculation?
   LNONCOLLINEAR =      F non collinear calculations
   LSORBIT =      F    spin-orbit coupling
   INIWAV =      1    electr: 0-lowe 1-rand  2-diag
   LASPH  =      F    aspherical Exc in radial PAW
   METAGGA=      F    non-selfconsistent MetaGGA calc.

 Electronic Relaxation 1
   ENCUT  =  550.0 eV  40.42 Ry    6.36 a.u.  22.03 22.03 22.03*2*pi/ulx,y,z
   ENINI  =  550.0     initial cutoff
   ENAUG  =  322.1 eV  augmentation charge cutoff
   NELM   =    200;   NELMIN=  2; NELMDL=  0     # of ELM steps 
   EDIFF  = 0.1E-04   stopping-criterion for ELM
   LREAL  =      F    real-space projection
   NLSPLINE    = F    spline interpolate recip. space projectors
   LCOMPAT=      F    compatible to vasp.4.4
   GGA_COMPAT  = T    GGA compatible to vasp.4.4-vasp.4.6
   LMAXPAW     = -100 max onsite density
   LMAXMIX     =    2 max onsite mixed and CHGCAR
   VOSKOWN=      0    Vosko Wilk Nusair interpolation
   ROPT   =    0.00000
 Ionic relaxation
   EDIFFG = -.5E-01   stopping-criterion for IOM
   NSW    =    100    number of steps for IOM
   NBLOCK =      1;   KBLOCK =    100    inner block; outer block 
   IBRION =      2    ionic relax: 0-MD 1-quasi-New 2-CG
   NFREE  =      1    steps in history (QN), initial steepest desc. (CG)
   ISIF   =      2    stress and relaxation
   IWAVPR =     11    prediction:  0-non 1-charg 2-wave 3-comb
   ISYM   =      2    0-nonsym 1-usesym 2-fastsym
   LCORR  =      T    Harris-Foulkes like correction to forces

   POTIM  = 0.5000    time-step for ionic-motion
   TEIN   =    0.0    initial temperature
   TEBEG  =    0.0;   TEEND  =   0.0 temperature during run
   SMASS  =  -3.00    Nose mass-parameter (am)
   estimated Nose-frequenzy (Omega)   =  0.10E-29 period in steps =****** mass=  -0.303E-26a.u.
   SCALEE = 1.0000    scale energy and forces
   NPACO  =    256;   APACO  = 16.0  distance and # of slots for P.C.
   PSTRESS=    0.0 pullay stress

  Mass of Ions in am
   POMASS =  28.09
  Ionic Valenz
   ZVAL   =   4.00
  Atomic Wigner-Seitz radii
   RWIGS  =  -1.00
  virtual crystal weights 
   VCA    =   1.00
   NELECT =     221.0000    total number of electrons
   NUPDOWN=      -1.0000    fix difference up-down

 DOS related values:
   EMIN   =  10.00;   EMAX   =-10.00  energy-range for DOS
   EFERMI =   0.00
   ISMEAR =     0;   SIGMA  =   0.05  broadening in eV -4-tet -1-fermi 0-gaus

 Electronic relaxation 2 (details)
   IALGO  =     38    algorithm
   LDIAG  =      T    sub-space diagonalisation (order eigenvalues)
   LSUBROT=      F    optimize rotation matrix (better conditioning)
   TURBO    =      0    0=normal 1=particle mesh
   IRESTART =      0    0=no restart 2=restart with 2 vectors
   NREBOOT  =      0    no. of reboots
   NMIN     =      0    reboot dimension
   EREF     =   0.00    reference energy to select bands
   IMIX   =      4    mixing-type and parameters
     AMIX     =   0.20;   BMIX     =  1.00
     AMIX_MAG =   0.80;   BMIX_MAG =  1.00
     AMIN     =   0.10
     WC   =   100.;   INIMIX=   1;  MIXPRE=   1;  MAXMIX= -45

 Intra band minimization:
   WEIMIN = 0.0010     energy-eigenvalue tresh-hold
   EBREAK =  0.17E-07  absolut break condition
   DEPER  =   0.30     relativ break condition  

   TIME   =   0.40     timestep for ELM

  volume/ion in A,a.u.               =      19.65       132.63
  Fermi-wavevector in a.u.,A,eV,Ry     =   0.964416  1.822482 12.654761  0.930099
  Thomas-Fermi vector in A             =   2.094046
 
 Write flags
   LWAVE        =      T    write WAVECAR
   LDOWNSAMPLE  =      F    k-point downsampling of WAVECAR
   LCHARG       =      T    write CHGCAR
   LVTOT        =      F    write LOCPOT, total local potential
   LVHAR        =      F    write LOCPOT, Hartree potential only
   LELF         =      F    write electronic localiz. function (ELF)
   LORBIT       =     10    0 simple, 1 ext, 2 COOP (PROOUT), +10 PAW based schemes


 Dipole corrections
   LMONO  =      F    monopole corrections only (constant potential shift)
   LDIPOL =      F    correct potential (dipole corrections)
   IDIPOL =      0    1-x, 2-y, 3-z, 4-all directions 
   EPSILON=  1.0000000 bulk dielectric constant

 Exchange correlation treatment:
   GGA     =    --    GGA type
   LEXCH   =     8    internal setting for exchange type
   VOSKOWN=      0    Vosko Wilk Nusair interpolation
   LHFCALC =     F    Hartree Fock is set to
   LHFONE  =     F    Hartree Fock one center treatment
   AEXX    =    0.0000 exact exchange contribution

 Linear response parameters
   LEPSILON=     F    determine dielectric tensor
   LRPA    =     F    only Hartree local field effects (RPA)
   LNABLA  =     F    use nabla operator in PAW spheres
   LVEL    =     F    velocity operator in full k-point grid
   LINTERFAST=   F  fast interpolation
   KINTER  =     0    interpolate to denser k-point grid
   CSHIFT  =0.1000    complex shift for real part using Kramers Kronig
   OMEGAMAX=  -1.0    maximum frequency
   DEG_THRESHOLD= 0.2000000E-02 threshold for treating states as degnerate
   RTIME   =   -0.100 relaxation time in fs
  (WPLASMAI=    0.000 imaginary part of plasma frequency in eV, 0.658/RTIME)
   DFIELD  = 0.0000000 0.0000000 0.0000000 field for delta impulse in time
 
 Orbital magnetization related:
   ORBITALMAG=     F  switch on orbital magnetization
   LCHIMAG   =     F  perturbation theory with respect to B field
   DQ        =  0.001000  dq finite difference perturbation B field
   LLRAUG    =     F  two centre corrections for induced B field



--------------------------------------------------------------------------------------------------------


 conjugate gradient relaxation of ions
 charge density and potential will be updated during run
 non-spin polarized calculation
 Variant of blocked Davidson
 Davidson routine will perform the subspace rotation
 perform sub-space diagonalisation
    after iterative eigenvector-optimisation
 modified Broyden-mixing scheme, WC =      100.0
 initial mixing is a Kerker type mixing with AMIX =  0.2000 and BMIX =      1.0000
 Hartree-type preconditioning will be used
 using additional bands           33
 reciprocal scheme for non local part
 use partial core corrections
 calculate Harris-corrections to forces 
   (improved forces if not selfconsistent)
 use gradient corrections 
 use of overlap-Matrix (Vanderbilt PP)
 Gauss-broadening in eV      SIGMA  =   0.05


--------------------------------------------------------------------------------------------------------


  energy-cutoff  :      550.00
  volume of cell :     1080.99
      direct lattice vectors                 reciprocal lattice vectors
     9.976465530  0.000000000  5.759915070     0.100235900 -0.035438742  0.000000000
     3.325488510  9.405901920  5.759915070     0.000000000  0.106316227  0.000000000
     0.000000000  0.000000000 11.519830140    -0.050117950 -0.035438742  0.086806836

  length of vectors
    11.519830124 11.519830136 11.519830140     0.106316227  0.106316227  0.106316227


 
 old parameters found on file WAVECAR:
  energy-cutoff  :      550.00
  volume of cell :     1080.99
      direct lattice vectors                 reciprocal lattice vectors
     9.976465530  0.000000000  5.759915070     0.100235900 -0.035438742  0.000000000
     3.325488510  9.405901920  5.759915070     0.000000000  0.106316227  0.000000000
     0.000000000  0.000000000 11.519830140    -0.050117950 -0.035438742  0.086806836

  length of vectors

 
 k-points in units of 2pi/SCALE and weight: Automatic kpoint scheme                 
   0.00000000  0.00000000  0.00000000       0.016
   0.02505897 -0.00885969  0.00000000       0.031
   0.05011795 -0.01771937  0.00000000       0.016
   0.00000000  0.02657906  0.00000000       0.094
   0.02505897  0.01771937  0.00000000       0.094
   0.05011795  0.00885969  0.00000000       0.094
  -0.02505897  0.03543874  0.00000000       0.094
   0.00000000  0.05315811  0.00000000       0.047
   0.02505897  0.04429843  0.00000000       0.094
   0.05011795  0.03543874  0.00000000       0.047
  -0.01252949  0.04429843  0.02170171       0.188
   0.01252949  0.03543874  0.02170171       0.094
  -0.03758846  0.05315811  0.02170171       0.094
 
 k-points in reciprocal lattice and weights: Automatic kpoint scheme                 
   0.00000000  0.00000000  0.00000000       0.016
   0.25000000  0.00000000  0.00000000       0.031
   0.50000000  0.00000000  0.00000000       0.016
   0.00000000  0.25000000  0.00000000       0.094
   0.25000000  0.25000000  0.00000000       0.094
   0.50000000  0.25000000  0.00000000       0.094
  -0.25000000  0.25000000  0.00000000       0.094
   0.00000000  0.50000000  0.00000000       0.047
   0.25000000  0.50000000  0.00000000       0.094
   0.50000000  0.50000000  0.00000000       0.047
   0.00000000  0.50000000  0.25000000       0.188
   0.25000000  0.50000000  0.25000000       0.094
  -0.25000000  0.50000000  0.25000000       0.094
 
 position of ions in fractional coordinates (direct lattice) 
   0.29166667  0.29166667  0.29166667
   0.29166667  0.29166667  0.62500000
   0.29166667  0.29166667  0.95833333
   0.29166667  0.62500000  0.29166667
   0.29166667  0.62500000  0.62500000
   0.29166667  0.62500000  0.95833333
   0.29166667  0.95833333  0.29166667
   0.29166667  0.95833333  0.62500000
   0.29166667  0.95833333  0.95833333
   0.62500000  0.29166667  0.29166667
   0.62500000  0.29166667  0.62500000
   0.62500000  0.29166667  0.95833333
   0.62500000  0.62500000  0.29166667
   0.62500000  0.62500000  0.62500000
   0.62500000  0.62500000  0.95833333
   0.62500000  0.95833333  0.29166667
   0.62500000  0.95833333  0.62500000
   0.62500000  0.95833333  0.95833333
   0.95833333  0.29166667  0.29166667
   0.95833333  0.29166667  0.62500000
   0.95833333  0.29166667  0.95833333
   0.95833333  0.62500000  0.29166667
   0.95833333  0.62500000  0.62500000
   0.95833333  0.62500000  0.95833333
   0.95833333  0.95833333  0.29166667
   0.95833333  0.95833333  0.62500000
   0.95833333  0.95833333  0.95833333
   0.04166667  0.04166667  0.04166667
   0.04166667  0.04166667  0.37500000
   0.04166667  0.04166667  0.70833333
   0.04166667  0.37500000  0.04166667
   0.04166667  0.37500000  0.37500000
   0.04166667  0.37500000  0.70833333
   0.04166667  0.70833333  0.04166667
   0.04166667  0.70833333  0.37500000
   0.04166667  0.70833333  0.70833333
   0.37500000  0.04166667  0.04166667
   0.37500000  0.04166667  0.37500000
   0.37500000  0.04166667  0.70833333
   0.37500000  0.37500000  0.04166667
   0.37500000  0.37500000  0.37500000
   0.37500000  0.37500000  0.70833333
   0.37500000  0.70833333  0.04166667
   0.37500000  0.70833333  0.37500000
   0.37500000  0.70833333  0.70833333
   0.70833333  0.04166667  0.04166667
   0.70833333  0.04166667  0.37500000
   0.70833333  0.04166667  0.70833333
   0.70833333  0.37500000  0.04166667
   0.70833333  0.37500000  0.37500000
   0.70833333  0.37500000  0.70833333
   0.70833333  0.70833333  0.04166667
   0.70833333  0.70833333  0.37500000
   0.70833333  0.70833333  0.70833333
   0.66666667  0.50000000  0.50000000
 
 position of ions in cartesian coordinates  (Angst):
   3.87973659  2.74338806  6.71990091
   3.87973659  2.74338806 10.55984429
   3.87973659  2.74338806 14.39978767
   4.98823276  5.87868870  8.63987260
   4.98823276  5.87868870 12.47981598
   4.98823276  5.87868870 16.31975937
   6.09672893  9.01398934 10.55984429
   6.09672893  9.01398934 14.39978767
   6.09672893  9.01398934 18.23973106
   7.20522510  2.74338806  8.63987260
   7.20522510  2.74338806 12.47981598
   7.20522510  2.74338806 16.31975937
   8.31372128  5.87868870 10.55984429
   8.31372128  5.87868870 14.39978767
   8.31372128  5.87868870 18.23973106
   9.42221745  9.01398934 12.47981598
   9.42221745  9.01398934 16.31975937
   9.42221745  9.01398934 20.15970275
  10.53071362  2.74338806 10.55984429
  10.53071362  2.74338806 14.39978767
  10.53071362  2.74338806 18.23973106
  11.63920979  5.87868870 12.47981598
  11.63920979  5.87868870 16.31975937
  11.63920979  5.87868870 20.15970275
  12.74770596  9.01398934 14.39978767
  12.74770596  9.01398934 18.23973106
  12.74770596  9.01398934 22.07967444
   0.55424808  0.39191258  0.95998584
   0.55424808  0.39191258  4.79992922
   0.55424808  0.39191258  8.63987260
   1.66274425  3.52721322  2.87995753
   1.66274425  3.52721322  6.71990091
   1.66274425  3.52721322 10.55984430
   2.77124042  6.66251386  4.79992922
   2.77124042  6.66251386  8.63987261
   2.77124042  6.66251386 12.47981599
   3.87973659  0.39191258  2.87995753
   3.87973659  0.39191258  6.71990091
   3.87973659  0.39191258 10.55984430
   4.98823277  3.52721322  4.79992922
   4.98823277  3.52721322  8.63987261
   4.98823277  3.52721322 12.47981599
   6.09672894  6.66251386  6.71990091
   6.09672894  6.66251386 10.55984430
   6.09672894  6.66251386 14.39978768
   7.20522511  0.39191258  4.79992922
   7.20522511  0.39191258  8.63987261
   7.20522511  0.39191258 12.47981599
   8.31372128  3.52721322  6.71990091
   8.31372128  3.52721322 10.55984430
   8.31372128  3.52721322 14.39978768
   9.42221745  6.66251386  8.63987260
   9.42221745  6.66251386 12.47981599
   9.42221745  6.66251386 16.31975937
   8.31372127  4.70295096 12.47981598
 


--------------------------------------------------------------------------------------------------------


 k-point  1 :   0.0000 0.0000 0.0000  plane waves:   31415
 k-point  2 :   0.2500 0.0000 0.0000  plane waves:   31608
 k-point  3 :   0.5000 0.0000 0.0000  plane waves:   31638
 k-point  4 :   0.0000 0.2500 0.0000  plane waves:   31608
 k-point  5 :   0.2500 0.2500 0.0000  plane waves:   31695
 k-point  6 :   0.5000 0.2500 0.0000  plane waves:   31649
 k-point  7 :  -0.2500 0.2500 0.0000  plane waves:   31674
 k-point  8 :   0.0000 0.5000 0.0000  plane waves:   31638
 k-point  9 :   0.2500 0.5000 0.0000  plane waves:   31649
 k-point 10 :   0.5000 0.5000 0.0000  plane waves:   31716
 k-point 11 :   0.0000 0.5000 0.2500  plane waves:   31649
 k-point 12 :   0.2500 0.5000 0.2500  plane waves:   31674
 k-point 13 :  -0.2500 0.5000 0.2500  plane waves:   31684

 maximum and minimum number of plane-waves per node :     31716    31415

 maximum number of plane-waves:     31716
 maximum index in each direction: 
   IXMAX=   22   IYMAX=   22   IZMAX=   22
   IXMIN=  -22   IYMIN=  -22   IZMIN=  -22


 serial   3D FFT for wavefunctions
 parallel 3D FFT for charge:
    minimum data exchange during FFTs selected (reduces bandwidth)


 total amount of memory used by VASP MPI-rank0   149529. kBytes
=======================================================================

   base      :      30000. kBytes
   nonl-proj :      54318. kBytes
   fftplans  :       5382. kBytes
   grid      :      19496. kBytes
   one-center:        168. kBytes
   wavefun   :      40165. kBytes
 
     INWAV:  cpu time    8.7701: real time    9.2121
 Broyden mixing: mesh for mixing (old mesh)
   NGX = 45   NGY = 45   NGZ = 45
  (NGX  =140   NGY  =140   NGZ  =140)
  gives a total of  91125 points

 charge density for first step will be calculated from the start-wavefunctions


--------------------------------------------------------------------------------------------------------


 Maximum index for augmentation-charges          505 (set IRDMAX)


--------------------------------------------------------------------------------------------------------


 initial charge from wavefunction
 First call to EWALD:  gamma=   0.173
 Maximum number of real-space cells 3x 3x 3
 Maximum number of reciprocal cells 3x 3x 3

    FEWALD:  cpu time    0.0933: real time    0.0941


--------------------------------------- Iteration      1(   1)  ---------------------------------------


    POTLOK:  cpu time    0.1147: real time    0.1228
    SETDIJ:  cpu time    0.1065: real time    0.1081
     EDDAV:  cpu time    5.2218: real time    5.2700
       DOS:  cpu time    0.0123: real time    0.0136
    CHARGE:  cpu time    0.2755: real time    0.2776
    MIXING:  cpu time    0.0694: real time    0.0706
    --------------------------------------------
      LOOP:  cpu time    5.8003: real time    5.8626

 eigenvalue-minimisations  :  2808
 total energy-change (2. order) :-0.2868920E+03  (-0.4109837E-06)
 number of electron     221.0000000 magnetization 
 augmentation part      -12.7043897 magnetization 

 Broyden mixing:
  rms(total) = 0.17981E-03    rms(broyden)= 0.17981E-03
  rms(prec ) = 0.52498E-03
  weight for this iteration     100.00

 Free energy of the ion-electron system (eV)
  ---------------------------------------------------
  alpha Z        PSCENC =        94.20124788
  Ewald energy   TEWEN  =     -6273.82433833
  -Hartree energ DENC   =      -445.05713908
  -exchange      EXHF   =         0.00000000
  -V(xc)+E(xc)   XCENC  =      -489.04499629
  PAW double counting   =     24655.57534465   -23694.29188443
  entropy T*S    EENTRO =        -0.00553160
  eigenvalues    EBANDS =       196.89953535
  atomic energy  EATOM  =      5668.65580356
  Solvation  Ediel_sol  =         0.00000000
  ---------------------------------------------------
  free energy    TOTEN  =      -286.89195829 eV

  energy without entropy =     -286.88642669  energy(sigma->0) =     -286.88919249


--------------------------------------------------------------------------------------------------------




--------------------------------------- Iteration      1(   2)  ---------------------------------------


    POTLOK:  cpu time    0.2762: real time    0.2799
    SETDIJ:  cpu time    0.0861: real time    0.0871
     EDDAV:  cpu time    5.8145: real time    5.8762
       DOS:  cpu time    0.0145: real time    0.0145
    --------------------------------------------
      LOOP:  cpu time    6.1912: real time    6.2576

 eigenvalue-minimisations  :  2808
 total energy-change (2. order) : 0.3037567E-06  (-0.1462201E-06)
 number of electron     221.0000000 magnetization 
 augmentation part      -12.7043897 magnetization 

 Free energy of the ion-electron system (eV)
  ---------------------------------------------------
  alpha Z        PSCENC =        94.20124788
  Ewald energy   TEWEN  =     -6273.82433833
  -Hartree energ DENC   =      -445.05612399
  -exchange      EXHF   =         0.00000000
  -V(xc)+E(xc)   XCENC  =      -489.04499445
  PAW double counting   =     24655.60932279   -23694.32584619
  entropy T*S    EENTRO =        -0.00553323
  eigenvalues    EBANDS =       196.89850398
  atomic energy  EATOM  =      5668.65580356
  Solvation  Ediel_sol  =         0.00000000
  ---------------------------------------------------
  free energy    TOTEN  =      -286.89195799 eV

  energy without entropy =     -286.88642476  energy(sigma->0) =     -286.88919137


--------------------------------------------------------------------------------------------------------




 average (electrostatic) potential at core
  the test charge radii are     0.9892
  (the norm of the test charge is              1.0000)
       1 -83.0720       2 -83.0808       3 -83.0808       4 -83.0808       5 -83.0515
       6 -83.0808       7 -83.0808       8 -83.0808       9 -83.0931      10 -83.1255
      11 -83.3715      12 -83.1255      13 -83.3715      14 -83.3715      15 -83.1166
      16 -83.1255      17 -83.1166      18 -83.1166      19 -83.0722      20 -83.0722
      21 -83.0827      22 -83.0722      23 -83.0685      24 -83.0685      25 -83.0827
      26 -83.0685      27 -83.0827      28 -83.0931      29 -83.0808      30 -83.0808
      31 -83.0808      32 -83.0515      33 -83.0808      34 -83.0808      35 -83.0808
      36 -83.0720      37 -83.0827      38 -83.0685      39 -83.0827      40 -83.0685
      41 -83.0685      42 -83.0722      43 -83.0827      44 -83.0722      45 -83.0722
      46 -83.1166      47 -83.1166      48 -83.1255      49 -83.1166      50 -83.3715
      51 -83.3715      52 -83.1255      53 -83.3715      54 -83.1255      55 -82.9593
 
 
 
 E-fermi :   6.7622     XC(G=0):  -9.5095     alpha+bet :-12.2050


 k-point     1 :       0.0000    0.0000    0.0000
  band No.  band energies     occupation 
      1      -6.9789      2.00000
      2      -5.6892      2.00000
      3      -4.9866      2.00000
      4      -4.9866      2.00000
      5      -4.6212      2.00000
      6      -4.6059      2.00000
      7      -4.6042      2.00000
      8      -4.6042      2.00000
      9      -4.5942      2.00000
     10      -4.2723      2.00000
     11      -4.2205      2.00000
     12      -4.2205      2.00000
     13      -4.0909      2.00000
     14      -4.0899      2.00000
     15      -4.0899      2.00000
     16      -3.2338      2.00000
     17      -3.2338      2.00000
     18      -3.0125      2.00000
     19      -2.7923      2.00000
     20      -2.7923      2.00000
     21      -2.7414      2.00000
     22      -2.7175      2.00000
     23      -2.7175      2.00000
     24      -2.7154      2.00000
     25      -2.7154      2.00000
     26      -2.6981      2.00000
     27      -2.6979      2.00000
     28      -1.4466      2.00000
     29      -1.1731      2.00000
     30      -1.1731      2.00000
     31      -0.9826      2.00000
     32      -0.9826      2.00000
     33      -0.8785      2.00000
     34      -0.8071      2.00000
     35      -0.8071      2.00000
     36      -0.7932      2.00000
     37      -0.7932      2.00000
     38      -0.7736      2.00000
     39      -0.7708      2.00000
     40      -0.2070      2.00000
     41       0.4256      2.00000
     42       0.4283      2.00000
     43       0.4283      2.00000
     44       0.4839      2.00000
     45       0.4839      2.00000
     46       0.6179      2.00000
     47       0.6296      2.00000
     48       0.8393      2.00000
     49       0.8393      2.00000
     50       0.8828      2.00000
     51       0.8828      2.00000
     52       0.9245      2.00000
     53       0.9413      2.00000
     54       1.0179      2.00000
     55       1.2395      2.00000
     56       1.4541      2.00000
     57       1.4661      2.00000
     58       1.4661      2.00000
     59       1.4792      2.00000
     60       1.4792      2.00000
     61       1.5649      2.00000
     62       1.5679      2.00000
     63       1.5679      2.00000
     64       1.5761      2.00000
     65       1.5761      2.00000
     66       2.7467      2.00000
     67       2.7467      2.00000
     68       3.2032      2.00000
     69       3.3868      2.00000
     70       3.3868      2.00000
     71       3.4177      2.00000
     72       3.5279      2.00000
     73       3.5279      2.00000
     74       3.5287      2.00000
     75       3.5642      2.00000
     76       3.5642      2.00000
     77       3.5674      2.00000
     78       3.7297      2.00000
     79       3.7297      2.00000
     80       3.7816      2.00000
     81       3.7865      2.00000
     82       3.7865      2.00000
     83       3.7904      2.00000
     84       3.8285      2.00000
     85       3.8285      2.00000
     86       3.8444      2.00000
     87       3.8444      2.00000
     88       3.8734      2.00000
     89       3.8790      2.00000
     90       4.6687      2.00000
     91       4.6687      2.00000
     92       4.7011      2.00000
     93       4.7011      2.00000
     94       4.8026      2.00000
     95       4.8949      2.00000
     96       4.9000      2.00000
     97       4.9306      2.00000
     98       4.9306      2.00000
     99       4.9817      2.00000
    100       4.9817      2.00000
    101       4.9832      2.00000
    102       4.9832      2.00000
    103       4.9833      2.00000
    104       4.9975      2.00000
    105       4.9975      2.00000
    106       5.2879      2.00000
    107       5.4332      2.00000
    108       5.8817      2.00000
    109       5.8817      2.00000
    110       5.9488      2.00000
    111       6.5357      2.00000
    112       6.5357      2.00000
    113       6.6133      1.99997
    114       6.6133      1.99997
    115       6.9261      0.00000
    116       6.9688      0.00000
    117       7.2529      0.00000
    118       7.2529      0.00000
    119       7.3316      0.00000
    120       7.3316      0.00000
    121       7.3879      0.00000
    122       7.3879      0.00000
    123       7.4898      0.00000
    124       7.5127      0.00000
    125       7.5127      0.00000
    126       7.5138      0.00000
    127       7.6332      0.00000
    128       7.6511      0.00000
    129       7.6511      0.00000
    130       7.6538      0.00000
    131       7.6898      0.00000
    132       7.6898      0.00000
    133       7.6967      0.00000
    134       7.7512      0.00000
    135       7.8207      0.00000
    136       7.8647      0.00000
    137       7.8939      0.00000
    138       7.8939      0.00000
    139       7.9079      0.00000
    140       7.9079      0.00000
    141       8.2222      0.00000
    142       8.2222      0.00000
    143       8.4839      0.00000
    144       8.9623      0.00000

 k-point     2 :       0.2500    0.0000    0.0000
  band No.  band energies     occupation 
      1      -6.9692      2.00000
      2      -5.6616      2.00000
      3      -5.0671      2.00000
      4      -5.0105      2.00000
      5      -5.0105      2.00000
      6      -4.6205      2.00000
      7      -4.5866      2.00000
      8      -4.5866      2.00000
      9      -4.3759      2.00000
     10      -4.3629      2.00000
     11      -4.3629      2.00000
     12      -4.0728      2.00000
     13      -3.7236      2.00000
     14      -3.7127      2.00000
     15      -3.7127      2.00000
     16      -3.4160      2.00000
     17      -3.4160      2.00000
     18      -3.4018      2.00000
     19      -2.9788      2.00000
     20      -2.9788      2.00000
     21      -2.7880      2.00000
     22      -2.7880      2.00000
     23      -2.7055      2.00000
     24      -2.6929      2.00000
     25      -2.6403      2.00000
     26      -2.4947      2.00000
     27      -2.4947      2.00000
     28      -1.3451      2.00000
     29      -1.2804      2.00000
     30      -1.2804      2.00000
     31      -1.0940      2.00000
     32      -1.0940      2.00000
     33      -0.9891      2.00000
     34      -0.9050      2.00000
     35      -0.9050      2.00000
     36      -0.8114      2.00000
     37      -0.7495      2.00000
     38      -0.5753      2.00000
     39      -0.4066      2.00000
     40      -0.4066      2.00000
     41      -0.0580      2.00000
     42       0.0598      2.00000
     43       0.0598      2.00000
     44       0.1520      2.00000
     45       0.1520      2.00000
     46       0.1668      2.00000
     47       0.6038      2.00000
     48       0.9646      2.00000
     49       0.9646      2.00000
     50       1.2086      2.00000
     51       1.3104      2.00000
     52       1.3104      2.00000
     53       1.4028      2.00000
     54       1.5504      2.00000
     55       1.6238      2.00000
     56       1.7077      2.00000
     57       1.7077      2.00000
     58       1.7182      2.00000
     59       1.7182      2.00000
     60       1.7532      2.00000
     61       1.7532      2.00000
     62       1.8630      2.00000
     63       1.8780      2.00000
     64       1.8780      2.00000
     65       2.0249      2.00000
     66       2.7295      2.00000
     67       2.7295      2.00000
     68       2.8025      2.00000
     69       3.0228      2.00000
     70       3.0228      2.00000
     71       3.3335      2.00000
     72       3.3823      2.00000
     73       3.4092      2.00000
     74       3.4092      2.00000
     75       3.4562      2.00000
     76       3.4562      2.00000
     77       3.5229      2.00000
     78       3.5278      2.00000
     79       3.5278      2.00000
     80       3.5733      2.00000
     81       3.5791      2.00000
     82       3.6048      2.00000
     83       3.6048      2.00000
     84       3.7609      2.00000
     85       3.7609      2.00000
     86       3.8128      2.00000
     87       4.0207      2.00000
     88       4.0382      2.00000
     89       4.0382      2.00000
     90       4.1244      2.00000
     91       4.1244      2.00000
     92       4.2172      2.00000
     93       4.5478      2.00000
     94       4.5478      2.00000
     95       4.5787      2.00000
     96       4.5798      2.00000
     97       4.5798      2.00000
     98       4.6263      2.00000
     99       4.7210      2.00000
    100       4.7210      2.00000
    101       4.8912      2.00000
    102       4.8912      2.00000
    103       4.9519      2.00000
    104       5.0390      2.00000
    105       5.1523      2.00000
    106       5.1523      2.00000
    107       5.4010      2.00000
    108       5.7474      2.00000
    109       5.7474      2.00000
    110       5.8972      2.00000
    111       6.6991      1.92574
    112       6.6991      1.92574
    113       6.9123      0.00002
    114       6.9123      0.00002
    115       7.1057      0.00000
    116       7.2047      0.00000
    117       7.2047      0.00000
    118       7.2067      0.00000
    119       7.5011      0.00000
    120       7.6447      0.00000
    121       7.6672      0.00000
    122       7.6672      0.00000
    123       7.7638      0.00000
    124       7.7638      0.00000
    125       7.9150      0.00000
    126       7.9150      0.00000
    127       7.9285      0.00000
    128       7.9730      0.00000
    129       8.0305      0.00000
    130       8.0305      0.00000
    131       8.0823      0.00000
    132       8.1041      0.00000
    133       8.1041      0.00000
    134       8.1108      0.00000
    135       8.1716      0.00000
    136       8.1716      0.00000
    137       8.2246      0.00000
    138       8.4385      0.00000
    139       8.4385      0.00000
    140       8.5103      0.00000
    141       8.5507      0.00000
    142       8.7072      0.00000
    143       8.7072      0.00000
    144       9.0332      0.00000

 k-point     3 :       0.5000    0.0000    0.0000
  band No.  band energies     occupation 
      1      -6.9593      2.00000
      2      -5.6094      2.00000
      3      -5.2863      2.00000
      4      -5.0200      2.00000
      5      -5.0200      2.00000
      6      -4.6867      2.00000
      7      -4.6867      2.00000
      8      -4.6831      2.00000
      9      -4.2030      2.00000
     10      -4.1331      2.00000
     11      -4.1331      2.00000
     12      -3.9115      2.00000
     13      -3.8724      2.00000
     14      -3.8724      2.00000
     15      -3.7037      2.00000
     16      -3.2192      2.00000
     17      -3.2012      2.00000
     18      -3.2012      2.00000
     19      -2.9451      2.00000
     20      -2.9451      2.00000
     21      -2.9407      2.00000
     22      -2.8223      2.00000
     23      -2.8223      2.00000
     24      -2.7690      2.00000
     25      -2.7690      2.00000
     26      -2.6887      2.00000
     27      -2.6875      2.00000
     28      -1.2950      2.00000
     29      -1.2950      2.00000
     30      -1.2432      2.00000
     31      -1.0947      2.00000
     32      -0.9645      2.00000
     33      -0.9645      2.00000
     34      -0.8499      2.00000
     35      -0.6924      2.00000
     36      -0.6863      2.00000
     37      -0.6863      2.00000
     38      -0.6437      2.00000
     39      -0.6437      2.00000
     40      -0.6347      2.00000
     41      -0.5585      2.00000
     42      -0.1375      2.00000
     43      -0.1375      2.00000
     44      -0.0761      2.00000
     45      -0.0761      2.00000
     46      -0.0464      2.00000
     47       0.6993      2.00000
     48       1.2788      2.00000
     49       1.2788      2.00000
     50       1.3913      2.00000
     51       1.3913      2.00000
     52       1.4901      2.00000
     53       1.6284      2.00000
     54       1.8078      2.00000
     55       1.8354      2.00000
     56       1.9532      2.00000
     57       1.9532      2.00000
     58       1.9756      2.00000
     59       1.9756      2.00000
     60       2.2450      2.00000
     61       2.2450      2.00000
     62       2.2472      2.00000
     63       2.2472      2.00000
     64       2.2835      2.00000
     65       2.5925      2.00000
     66       2.5925      2.00000
     67       2.7580      2.00000
     68       2.8687      2.00000
     69       2.8749      2.00000
     70       2.8749      2.00000
     71       3.0307      2.00000
     72       3.0307      2.00000
     73       3.1282      2.00000
     74       3.1282      2.00000
     75       3.1668      2.00000
     76       3.2248      2.00000
     77       3.2248      2.00000
     78       3.2292      2.00000
     79       3.3162      2.00000
     80       3.3554      2.00000
     81       3.3554      2.00000
     82       3.4306      2.00000
     83       3.5215      2.00000
     84       3.5401      2.00000
     85       3.8160      2.00000
     86       3.9185      2.00000
     87       3.9185      2.00000
     88       3.9258      2.00000
     89       3.9258      2.00000
     90       3.9626      2.00000
     91       3.9626      2.00000
     92       3.9716      2.00000
     93       4.1374      2.00000
     94       4.1612      2.00000
     95       4.1612      2.00000
     96       4.2356      2.00000
     97       4.5350      2.00000
     98       4.5350      2.00000
     99       4.5543      2.00000
    100       4.5543      2.00000
    101       4.6130      2.00000
    102       4.6890      2.00000
    103       4.7394      2.00000
    104       4.7394      2.00000
    105       5.3516      2.00000
    106       5.3516      2.00000
    107       5.4184      2.00000
    108       5.5300      2.00000
    109       5.5300      2.00000
    110       6.3436      2.00000
    111       6.8265      0.06904
    112       6.8265      0.06903
    113       6.8857      0.00048
    114       6.8857      0.00048
    115       7.1154      0.00000
    116       7.5104      0.00000
    117       7.5760      0.00000
    118       7.6567      0.00000
    119       7.6567      0.00000
    120       7.7704      0.00000
    121       7.7704      0.00000
    122       7.9050      0.00000
    123       8.1860      0.00000
    124       8.2282      0.00000
    125       8.2402      0.00000
    126       8.2402      0.00000
    127       8.2779      0.00000
    128       8.2779      0.00000
    129       8.3207      0.00000
    130       8.4268      0.00000
    131       8.5715      0.00000
    132       8.5715      0.00000
    133       8.5735      0.00000
    134       8.5735      0.00000
    135       8.6503      0.00000
    136       8.6966      0.00000
    137       8.6966      0.00000
    138       8.9397      0.00000
    139       9.0812      0.00000
    140       9.0812      0.00000
    141       9.1960      0.00000
    142       9.1972      0.00000
    143       9.2771      0.00000
    144       9.2957      0.00000

 k-point     4 :       0.0000    0.2500    0.0000
  band No.  band energies     occupation 
      1      -6.9667      2.00000
      2      -5.6885      2.00000
      3      -5.1625      2.00000
      4      -5.0176      2.00000
      5      -4.7947      2.00000
      6      -4.6127      2.00000
      7      -4.5930      2.00000
      8      -4.5632      2.00000
      9      -4.4672      2.00000
     10      -4.3788      2.00000
     11      -4.3287      2.00000
     12      -4.1261      2.00000
     13      -3.7372      2.00000
     14      -3.6804      2.00000
     15      -3.6507      2.00000
     16      -3.5528      2.00000
     17      -3.4462      2.00000
     18      -3.3304      2.00000
     19      -3.0471      2.00000
     20      -2.8856      2.00000
     21      -2.8413      2.00000
     22      -2.7546      2.00000
     23      -2.7109      2.00000
     24      -2.7083      2.00000
     25      -2.6075      2.00000
     26      -2.4877      2.00000
     27      -2.4580      2.00000
     28      -1.5919      2.00000
     29      -1.3437      2.00000
     30      -1.1614      2.00000
     31      -1.1383      2.00000
     32      -1.0218      2.00000
     33      -0.9961      2.00000
     34      -0.8719      2.00000
     35      -0.8415      2.00000
     36      -0.8389      2.00000
     37      -0.6339      2.00000
     38      -0.4750      2.00000
     39      -0.4464      2.00000
     40      -0.3993      2.00000
     41      -0.0444      2.00000
     42      -0.0412      2.00000
     43       0.0721      2.00000
     44       0.1490      2.00000
     45       0.1777      2.00000
     46       0.2310      2.00000
     47       0.5195      2.00000
     48       0.9482      2.00000
     49       0.9939      2.00000
     50       1.1752      2.00000
     51       1.2763      2.00000
     52       1.4301      2.00000
     53       1.4740      2.00000
     54       1.4887      2.00000
     55       1.6281      2.00000
     56       1.6670      2.00000
     57       1.6737      2.00000
     58       1.6889      2.00000
     59       1.7000      2.00000
     60       1.7483      2.00000
     61       1.7606      2.00000
     62       1.8311      2.00000
     63       1.9177      2.00000
     64       1.9185      2.00000
     65       2.0205      2.00000
     66       2.4337      2.00000
     67       2.6002      2.00000
     68       2.9785      2.00000
     69       3.0342      2.00000
     70       3.1778      2.00000
     71       3.3204      2.00000
     72       3.3290      2.00000
     73       3.3790      2.00000
     74       3.4153      2.00000
     75       3.4211      2.00000
     76       3.4982      2.00000
     77       3.5323      2.00000
     78       3.5374      2.00000
     79       3.5478      2.00000
     80       3.5721      2.00000
     81       3.5926      2.00000
     82       3.6093      2.00000
     83       3.6180      2.00000
     84       3.7081      2.00000
     85       3.7365      2.00000
     86       3.8130      2.00000
     87       3.9336      2.00000
     88       4.0769      2.00000
     89       4.0961      2.00000
     90       4.1474      2.00000
     91       4.1552      2.00000
     92       4.2318      2.00000
     93       4.4082      2.00000
     94       4.5273      2.00000
     95       4.5899      2.00000
     96       4.6153      2.00000
     97       4.6289      2.00000
     98       4.6489      2.00000
     99       4.7619      2.00000
    100       4.7794      2.00000
    101       4.8955      2.00000
    102       4.9022      2.00000
    103       4.9692      2.00000
    104       5.0503      2.00000
    105       5.1338      2.00000
    106       5.1546      2.00000
    107       5.6087      2.00000
    108       5.6492      2.00000
    109       5.7441      2.00000
    110       5.8504      2.00000
    111       6.6750      1.98638
    112       6.7271      1.68027
    113       6.9376      0.00000
    114       7.0416      0.00000
    115       7.1004      0.00000
    116       7.1028      0.00000
    117       7.1765      0.00000
    118       7.3737      0.00000
    119       7.4294      0.00000
    120       7.5238      0.00000
    121       7.5291      0.00000
    122       7.6692      0.00000
    123       7.8151      0.00000
    124       7.8211      0.00000
    125       7.8540      0.00000
    126       7.9380      0.00000
    127       7.9679      0.00000
    128       7.9893      0.00000
    129       8.0055      0.00000
    130       8.0197      0.00000
    131       8.0358      0.00000
    132       8.0826      0.00000
    133       8.1107      0.00000
    134       8.1537      0.00000
    135       8.2019      0.00000
    136       8.2171      0.00000
    137       8.2210      0.00000
    138       8.3571      0.00000
    139       8.4623      0.00000
    140       8.5520      0.00000
    141       8.6526      0.00000
    142       8.6934      0.00000
    143       8.6964      0.00000
    144       8.8673      0.00000

 k-point     5 :       0.2500    0.2500    0.0000
  band No.  band energies     occupation 
      1      -6.9637      2.00000
      2      -5.6667      2.00000
      3      -5.1268      2.00000
      4      -5.0606      2.00000
      5      -4.9218      2.00000
      6      -4.8990      2.00000
      7      -4.6622      2.00000
      8      -4.4128      2.00000
      9      -4.2294      2.00000
     10      -4.1011      2.00000
     11      -4.0586      2.00000
     12      -4.0364      2.00000
     13      -4.0089      2.00000
     14      -3.9906      2.00000
     15      -3.6225      2.00000
     16      -3.4649      2.00000
     17      -3.3295      2.00000
     18      -3.2659      2.00000
     19      -3.1727      2.00000
     20      -3.0533      2.00000
     21      -3.0377      2.00000
     22      -2.9763      2.00000
     23      -2.9534      2.00000
     24      -2.3666      2.00000
     25      -2.3533      2.00000
     26      -2.2724      2.00000
     27      -2.2134      2.00000
     28      -1.6353      2.00000
     29      -1.4876      2.00000
     30      -1.4354      2.00000
     31      -1.3201      2.00000
     32      -1.1406      2.00000
     33      -0.9861      2.00000
     34      -0.9041      2.00000
     35      -0.8793      2.00000
     36      -0.5934      2.00000
     37      -0.5479      2.00000
     38      -0.4470      2.00000
     39      -0.3278      2.00000
     40      -0.3145      2.00000
     41      -0.2661      2.00000
     42      -0.2114      2.00000
     43      -0.1902      2.00000
     44      -0.1582      2.00000
     45       0.5248      2.00000
     46       0.6048      2.00000
     47       0.6871      2.00000
     48       0.6877      2.00000
     49       0.7822      2.00000
     50       1.3102      2.00000
     51       1.4096      2.00000
     52       1.4797      2.00000
     53       1.5155      2.00000
     54       1.6211      2.00000
     55       1.6357      2.00000
     56       1.6650      2.00000
     57       1.7408      2.00000
     58       1.7497      2.00000
     59       1.7617      2.00000
     60       1.8021      2.00000
     61       1.8562      2.00000
     62       2.0066      2.00000
     63       2.0331      2.00000
     64       2.0555      2.00000
     65       2.2977      2.00000
     66       2.4672      2.00000
     67       2.6372      2.00000
     68       2.9449      2.00000
     69       3.0421      2.00000
     70       3.0675      2.00000
     71       3.1222      2.00000
     72       3.1551      2.00000
     73       3.1702      2.00000
     74       3.1883      2.00000
     75       3.2038      2.00000
     76       3.3996      2.00000
     77       3.4046      2.00000
     78       3.4730      2.00000
     79       3.5336      2.00000
     80       3.6719      2.00000
     81       3.7524      2.00000
     82       3.7703      2.00000
     83       3.7706      2.00000
     84       3.8673      2.00000
     85       3.8755      2.00000
     86       3.9115      2.00000
     87       3.9312      2.00000
     88       4.0147      2.00000
     89       4.0410      2.00000
     90       4.0573      2.00000
     91       4.1720      2.00000
     92       4.2077      2.00000
     93       4.2212      2.00000
     94       4.3339      2.00000
     95       4.3621      2.00000
     96       4.3684      2.00000
     97       4.3850      2.00000
     98       4.4311      2.00000
     99       4.5133      2.00000
    100       4.5206      2.00000
    101       4.5492      2.00000
    102       5.1232      2.00000
    103       5.1775      2.00000
    104       5.1913      2.00000
    105       5.2502      2.00000
    106       5.2743      2.00000
    107       5.4701      2.00000
    108       5.4874      2.00000
    109       5.6804      2.00000
    110       5.8011      2.00000
    111       6.5633      2.00000
    112       7.0259      0.00000
    113       7.0860      0.00000
    114       7.1296      0.00000
    115       7.2759      0.00000
    116       7.2889      0.00000
    117       7.4533      0.00000
    118       7.4763      0.00000
    119       7.5355      0.00000
    120       7.5809      0.00000
    121       7.6106      0.00000
    122       7.6415      0.00000
    123       7.6837      0.00000
    124       7.8418      0.00000
    125       7.8893      0.00000
    126       7.9601      0.00000
    127       8.0125      0.00000
    128       8.0716      0.00000
    129       8.1460      0.00000
    130       8.1490      0.00000
    131       8.2010      0.00000
    132       8.2817      0.00000
    133       8.3320      0.00000
    134       8.3545      0.00000
    135       8.3777      0.00000
    136       8.3852      0.00000
    137       8.4406      0.00000
    138       8.4647      0.00000
    139       8.4801      0.00000
    140       8.4827      0.00000
    141       8.6552      0.00000
    142       8.6926      0.00000
    143       8.9264      0.00000
    144       8.9960      0.00000

 k-point     6 :       0.5000    0.2500    0.0000
  band No.  band energies     occupation 
      1      -6.9540      2.00000
      2      -5.5609      2.00000
      3      -5.3701      2.00000
      4      -5.1409      2.00000
      5      -5.0867      2.00000
      6      -4.7158      2.00000
      7      -4.6392      2.00000
      8      -4.4582      2.00000
      9      -4.1647      2.00000
     10      -4.0976      2.00000
     11      -4.0520      2.00000
     12      -3.8630      2.00000
     13      -3.7953      2.00000
     14      -3.6965      2.00000
     15      -3.5987      2.00000
     16      -3.4816      2.00000
     17      -3.4564      2.00000
     18      -3.3435      2.00000
     19      -3.2401      2.00000
     20      -3.2122      2.00000
     21      -3.1026      2.00000
     22      -3.0851      2.00000
     23      -2.6491      2.00000
     24      -2.5137      2.00000
     25      -2.4286      2.00000
     26      -2.2897      2.00000
     27      -2.2879      2.00000
     28      -1.6187      2.00000
     29      -1.4292      2.00000
     30      -1.2822      2.00000
     31      -1.2231      2.00000
     32      -1.1703      2.00000
     33      -1.1123      2.00000
     34      -0.9846      2.00000
     35      -0.9100      2.00000
     36      -0.8724      2.00000
     37      -0.6045      2.00000
     38      -0.5954      2.00000
     39      -0.5118      2.00000
     40      -0.4587      2.00000
     41      -0.4472      2.00000
     42      -0.1364      2.00000
     43      -0.1238      2.00000
     44       0.0182      2.00000
     45       0.1957      2.00000
     46       0.2488      2.00000
     47       0.6940      2.00000
     48       0.8071      2.00000
     49       0.9467      2.00000
     50       1.2183      2.00000
     51       1.7282      2.00000
     52       1.7764      2.00000
     53       1.8366      2.00000
     54       1.8367      2.00000
     55       1.9847      2.00000
     56       2.0216      2.00000
     57       2.1041      2.00000
     58       2.1265      2.00000
     59       2.2358      2.00000
     60       2.2842      2.00000
     61       2.3455      2.00000
     62       2.4637      2.00000
     63       2.4755      2.00000
     64       2.4930      2.00000
     65       2.4976      2.00000
     66       2.6112      2.00000
     67       2.6267      2.00000
     68       2.7270      2.00000
     69       2.7967      2.00000
     70       2.8094      2.00000
     71       2.9186      2.00000
     72       2.9702      2.00000
     73       3.0036      2.00000
     74       3.0222      2.00000
     75       3.0674      2.00000
     76       3.0677      2.00000
     77       3.2134      2.00000
     78       3.2324      2.00000
     79       3.2533      2.00000
     80       3.2824      2.00000
     81       3.3640      2.00000
     82       3.3874      2.00000
     83       3.4881      2.00000
     84       3.5892      2.00000
     85       3.6988      2.00000
     86       3.7161      2.00000
     87       3.7572      2.00000
     88       3.7979      2.00000
     89       3.8910      2.00000
     90       3.9844      2.00000
     91       3.9994      2.00000
     92       4.0148      2.00000
     93       4.0307      2.00000
     94       4.2200      2.00000
     95       4.2290      2.00000
     96       4.3087      2.00000
     97       4.3386      2.00000
     98       4.3460      2.00000
     99       4.3809      2.00000
    100       4.4055      2.00000
    101       4.5216      2.00000
    102       4.5399      2.00000
    103       4.9041      2.00000
    104       4.9351      2.00000
    105       4.9821      2.00000
    106       5.0933      2.00000
    107       5.2936      2.00000
    108       5.5535      2.00000
    109       5.7639      2.00000
    110       6.2191      2.00000
    111       6.7146      1.82219
    112       7.1895      0.00000
    113       7.2594      0.00000
    114       7.4018      0.00000
    115       7.5160      0.00000
    116       7.5541      0.00000
    117       7.6329      0.00000
    118       7.6913      0.00000
    119       7.8935      0.00000
    120       7.9426      0.00000
    121       7.9776      0.00000
    122       8.0958      0.00000
    123       8.1085      0.00000
    124       8.1323      0.00000
    125       8.2827      0.00000
    126       8.3160      0.00000
    127       8.3858      0.00000
    128       8.4567      0.00000
    129       8.5060      0.00000
    130       8.5739      0.00000
    131       8.5848      0.00000
    132       8.6529      0.00000
    133       8.6675      0.00000
    134       8.7119      0.00000
    135       8.7441      0.00000
    136       8.8289      0.00000
    137       8.8470      0.00000
    138       8.8927      0.00000
    139       8.9471      0.00000
    140       8.9763      0.00000
    141       9.0213      0.00000
    142       9.1191      0.00000
    143       9.1296      0.00000
    144       9.1630      0.00000

 k-point     7 :      -0.2500    0.2500    0.0000
  band No.  band energies     occupation 
      1      -6.9571      2.00000
      2      -5.6158      2.00000
      3      -5.3296      2.00000
      4      -5.0417      2.00000
      5      -5.0402      2.00000
      6      -4.6965      2.00000
      7      -4.5660      2.00000
      8      -4.5230      2.00000
      9      -4.3675      2.00000
     10      -4.1841      2.00000
     11      -4.1048      2.00000
     12      -3.9138      2.00000
     13      -3.8130      2.00000
     14      -3.7539      2.00000
     15      -3.6103      2.00000
     16      -3.4364      2.00000
     17      -3.3612      2.00000
     18      -3.2807      2.00000
     19      -3.1155      2.00000
     20      -3.0388      2.00000
     21      -3.0000      2.00000
     22      -2.8821      2.00000
     23      -2.8183      2.00000
     24      -2.7955      2.00000
     25      -2.5766      2.00000
     26      -2.5079      2.00000
     27      -2.1092      2.00000
     28      -1.7687      2.00000
     29      -1.3450      2.00000
     30      -1.1671      2.00000
     31      -1.1009      2.00000
     32      -1.0200      2.00000
     33      -0.8703      2.00000
     34      -0.8501      2.00000
     35      -0.8118      2.00000
     36      -0.7552      2.00000
     37      -0.7261      2.00000
     38      -0.6760      2.00000
     39      -0.6201      2.00000
     40      -0.6075      2.00000
     41      -0.5377      2.00000
     42      -0.5353      2.00000
     43       0.0649      2.00000
     44       0.3538      2.00000
     45       0.4157      2.00000
     46       0.5233      2.00000
     47       0.5593      2.00000
     48       0.6046      2.00000
     49       0.6477      2.00000
     50       1.0901      2.00000
     51       1.6277      2.00000
     52       1.7038      2.00000
     53       1.7134      2.00000
     54       1.8095      2.00000
     55       1.8773      2.00000
     56       1.9879      2.00000
     57       2.0463      2.00000
     58       2.0651      2.00000
     59       2.0956      2.00000
     60       2.1707      2.00000
     61       2.1969      2.00000
     62       2.2965      2.00000
     63       2.3668      2.00000
     64       2.4554      2.00000
     65       2.5031      2.00000
     66       2.5507      2.00000
     67       2.5708      2.00000
     68       2.6665      2.00000
     69       2.8106      2.00000
     70       2.8332      2.00000
     71       2.9324      2.00000
     72       2.9593      2.00000
     73       2.9623      2.00000
     74       3.0079      2.00000
     75       3.1932      2.00000
     76       3.2823      2.00000
     77       3.3017      2.00000
     78       3.3107      2.00000
     79       3.4072      2.00000
     80       3.4557      2.00000
     81       3.4731      2.00000
     82       3.5223      2.00000
     83       3.5588      2.00000
     84       3.5730      2.00000
     85       3.6309      2.00000
     86       3.7020      2.00000
     87       3.7764      2.00000
     88       3.9086      2.00000
     89       3.9349      2.00000
     90       3.9823      2.00000
     91       4.0297      2.00000
     92       4.0688      2.00000
     93       4.2607      2.00000
     94       4.2732      2.00000
     95       4.3229      2.00000
     96       4.4198      2.00000
     97       4.4813      2.00000
     98       4.5105      2.00000
     99       4.6095      2.00000
    100       4.6165      2.00000
    101       4.6859      2.00000
    102       4.7282      2.00000
    103       4.8296      2.00000
    104       4.8483      2.00000
    105       4.9125      2.00000
    106       4.9940      2.00000
    107       5.0833      2.00000
    108       5.7648      2.00000
    109       5.7698      2.00000
    110       6.0931      2.00000
    111       6.7841      0.53631
    112       6.9887      0.00000
    113       7.1681      0.00000
    114       7.2637      0.00000
    115       7.5144      0.00000
    116       7.5413      0.00000
    117       7.6021      0.00000
    118       7.6784      0.00000
    119       7.7576      0.00000
    120       7.8010      0.00000
    121       7.8142      0.00000
    122       7.8150      0.00000
    123       7.8555      0.00000
    124       8.0663      0.00000
    125       8.0729      0.00000
    126       8.1158      0.00000
    127       8.2560      0.00000
    128       8.3424      0.00000
    129       8.3981      0.00000
    130       8.4305      0.00000
    131       8.4818      0.00000
    132       8.5280      0.00000
    133       8.5638      0.00000
    134       8.5983      0.00000
    135       8.6255      0.00000
    136       8.6295      0.00000
    137       8.6763      0.00000
    138       8.8216      0.00000
    139       8.8837      0.00000
    140       9.0189      0.00000
    141       9.0204      0.00000
    142       9.0647      0.00000
    143       9.1204      0.00000
    144       9.1557      0.00000

 k-point     8 :       0.0000    0.5000    0.0000
  band No.  band energies     occupation 
      1      -6.9542      2.00000
      2      -5.6784      2.00000
      3      -5.3186      2.00000
      4      -5.0331      2.00000
      5      -4.7878      2.00000
      6      -4.6907      2.00000
      7      -4.6729      2.00000
      8      -4.6673      2.00000
      9      -4.3439      2.00000
     10      -4.1583      2.00000
     11      -4.1053      2.00000
     12      -3.8995      2.00000
     13      -3.8873      2.00000
     14      -3.8755      2.00000
     15      -3.7211      2.00000
     16      -3.2337      2.00000
     17      -3.2120      2.00000
     18      -3.1879      2.00000
     19      -2.9734      2.00000
     20      -2.9434      2.00000
     21      -2.9189      2.00000
     22      -2.8603      2.00000
     23      -2.7894      2.00000
     24      -2.7477      2.00000
     25      -2.7412      2.00000
     26      -2.7062      2.00000
     27      -2.7027      2.00000
     28      -1.6120      2.00000
     29      -1.1382      2.00000
     30      -1.0686      2.00000
     31      -1.0628      2.00000
     32      -1.0403      2.00000
     33      -0.9151      2.00000
     34      -0.8803      2.00000
     35      -0.8349      2.00000
     36      -0.7386      2.00000
     37      -0.6408      2.00000
     38      -0.6098      2.00000
     39      -0.6088      2.00000
     40      -0.5985      2.00000
     41      -0.2918      2.00000
     42      -0.1760      2.00000
     43      -0.1471      2.00000
     44      -0.0979      2.00000
     45      -0.0624      2.00000
     46      -0.0421      2.00000
     47       0.9200      2.00000
     48       0.9262      2.00000
     49       1.3310      2.00000
     50       1.3939      2.00000
     51       1.4916      2.00000
     52       1.5281      2.00000
     53       1.6151      2.00000
     54       1.7141      2.00000
     55       1.8330      2.00000
     56       1.9080      2.00000
     57       1.9538      2.00000
     58       1.9607      2.00000
     59       1.9731      2.00000
     60       2.0288      2.00000
     61       2.2018      2.00000
     62       2.3046      2.00000
     63       2.3189      2.00000
     64       2.3318      2.00000
     65       2.4126      2.00000
     66       2.6508      2.00000
     67       2.6777      2.00000
     68       2.7524      2.00000
     69       2.9027      2.00000
     70       2.9066      2.00000
     71       2.9315      2.00000
     72       3.0671      2.00000
     73       3.1064      2.00000
     74       3.1666      2.00000
     75       3.1734      2.00000
     76       3.1817      2.00000
     77       3.2350      2.00000
     78       3.3030      2.00000
     79       3.3310      2.00000
     80       3.4035      2.00000
     81       3.4316      2.00000
     82       3.4434      2.00000
     83       3.4873      2.00000
     84       3.5244      2.00000
     85       3.7457      2.00000
     86       3.8028      2.00000
     87       3.9060      2.00000
     88       3.9390      2.00000
     89       3.9413      2.00000
     90       3.9890      2.00000
     91       4.0348      2.00000
     92       4.1156      2.00000
     93       4.1371      2.00000
     94       4.1392      2.00000
     95       4.2051      2.00000
     96       4.2059      2.00000
     97       4.5155      2.00000
     98       4.5516      2.00000
     99       4.5575      2.00000
    100       4.6525      2.00000
    101       4.6650      2.00000
    102       4.6680      2.00000
    103       4.7457      2.00000
    104       4.7464      2.00000
    105       5.4242      2.00000
    106       5.4424      2.00000
    107       5.4438      2.00000
    108       5.4565      2.00000
    109       5.7609      2.00000
    110       6.0917      2.00000
    111       6.9551      0.00000
    112       6.9813      0.00000
    113       6.9848      0.00000
    114       6.9853      0.00000
    115       7.0627      0.00000
    116       7.2717      0.00000
    117       7.3437      0.00000
    118       7.5555      0.00000
    119       7.8050      0.00000
    120       7.8518      0.00000
    121       7.9198      0.00000
    122       8.0816      0.00000
    123       8.1405      0.00000
    124       8.1497      0.00000
    125       8.1792      0.00000
    126       8.1813      0.00000
    127       8.1937      0.00000
    128       8.3088      0.00000
    129       8.3846      0.00000
    130       8.4094      0.00000
    131       8.4214      0.00000
    132       8.4394      0.00000
    133       8.4892      0.00000
    134       8.6016      0.00000
    135       8.6523      0.00000
    136       8.8306      0.00000
    137       8.9371      0.00000
    138       8.9548      0.00000
    139       8.9740      0.00000
    140       9.0977      0.00000
    141       9.1184      0.00000
    142       9.1573      0.00000
    143       9.1618      0.00000
    144       9.2307      0.00000

 k-point     9 :       0.2500    0.5000    0.0000
  band No.  band energies     occupation 
      1      -6.9514      2.00000
      2      -5.6252      2.00000
      3      -5.3033      2.00000
      4      -5.1439      2.00000
      5      -5.1089      2.00000
      6      -4.7352      2.00000
      7      -4.4536      2.00000
      8      -4.4323      2.00000
      9      -4.3164      2.00000
     10      -4.1378      2.00000
     11      -4.0201      2.00000
     12      -3.8928      2.00000
     13      -3.8312      2.00000
     14      -3.6896      2.00000
     15      -3.5599      2.00000
     16      -3.4677      2.00000
     17      -3.4607      2.00000
     18      -3.3206      2.00000
     19      -3.2805      2.00000
     20      -3.1898      2.00000
     21      -3.1440      2.00000
     22      -3.0868      2.00000
     23      -2.5877      2.00000
     24      -2.4932      2.00000
     25      -2.4555      2.00000
     26      -2.3304      2.00000
     27      -2.2657      2.00000
     28      -1.6653      2.00000
     29      -1.4121      2.00000
     30      -1.3988      2.00000
     31      -1.2220      2.00000
     32      -1.1964      2.00000
     33      -1.0613      2.00000
     34      -0.9120      2.00000
     35      -0.8841      2.00000
     36      -0.8198      2.00000
     37      -0.6305      2.00000
     38      -0.6140      2.00000
     39      -0.4833      2.00000
     40      -0.4572      2.00000
     41      -0.4487      2.00000
     42      -0.1824      2.00000
     43      -0.0817      2.00000
     44       0.1688      2.00000
     45       0.1758      2.00000
     46       0.2155      2.00000
     47       0.7104      2.00000
     48       0.9150      2.00000
     49       0.9213      2.00000
     50       1.1319      2.00000
     51       1.4702      2.00000
     52       1.7981      2.00000
     53       1.7994      2.00000
     54       1.8119      2.00000
[...]
tot         41.660  51.652   0.000  93.312
 
    CHARGE:  cpu time    0.2198: real time    0.2218
    FORLOC:  cpu time    0.0323: real time    0.0324
    FORNL :  cpu time    3.0944: real time    3.1235
    STRESS:  cpu time    8.8296: real time    8.9201
    FORCOR:  cpu time    0.0959: real time    0.0971
    FORHAR:  cpu time    0.0452: real time    0.0455
    MIXING:  cpu time    0.0141: real time    0.0142
    OFIELD:  cpu time    0.0001: real time    0.0001

  FORCE on cell =-STRESS in cart. coord.  units (eV):
  Direction    XX          YY          ZZ          XY          YZ          ZX
  --------------------------------------------------------------------------------------
  Alpha Z    94.20125    94.20125    94.20125
  Ewald   -2139.30943 -2085.93933 -2078.31503    21.56477    -0.00000    -0.00000
  Hartree   133.86815   142.49995   143.73306     3.48777     0.00000     0.00000
  E(xc)    -702.35119  -702.01210  -701.96368     0.13701    -0.00001    -0.00001
  Local    -770.28440  -818.18044  -825.02220   -19.35273     0.00026     0.00036
  n-local  2152.28576  2141.55443  2154.68335    -3.14382    -2.68397     1.10822
  augment  -323.30605  -322.33654  -322.19855     0.39145    -0.00014    -0.00046
  Kinetic  1581.10758  1553.39851  1593.69012    -8.25434    -5.96641     2.29559
  Fock        0.00000     0.00000     0.00000     0.00000     0.00000     0.00000
  -------------------------------------------------------------------------------------
  Total      27.31929    30.23495    30.65148     1.17811     0.00000    -0.00000
  in kB      40.49083    44.81224    45.42958     1.74611     0.00000    -0.00000
  external pressure =       43.58 kB  Pullay stress =        0.00 kB


 VOLUME and BASIS-vectors are now :
 -----------------------------------------------------------------------------
  energy-cutoff  :      550.00
  volume of cell :     1080.99
      direct lattice vectors                 reciprocal lattice vectors
     9.976465530  0.000000000  5.759915070     0.100235900 -0.035438742  0.000000000
     3.325488510  9.405901920  5.759915070     0.000000000  0.106316227  0.000000000
     0.000000000  0.000000000 11.519830140    -0.050117950 -0.035438742  0.086806836

  length of vectors
    11.519830124 11.519830136 11.519830140     0.106316227  0.106316227  0.106316227


 FORCES acting on ions
    electron-ion (+dipol)            ewald-force                    non-local-force                 convergence-correction
 -----------------------------------------------------------------------------------------------
   -.681E-01 0.241E-01 0.318E-06   -.325E+00 0.115E+00 -.142E-10   0.383E+00 -.135E+00 0.173E-16   -.512E-02 0.181E-02 -.402E-07
   0.142E+01 0.132E+01 0.151E+01   -.161E+01 -.121E+01 -.127E+01   0.188E+00 -.109E+00 -.224E+00   0.298E-02 0.499E-02 -.155E-02
   0.142E+01 0.132E+01 -.151E+01   -.161E+01 -.121E+01 0.127E+01   0.188E+00 -.109E+00 0.224E+00   0.298E-02 0.499E-02 0.155E-02
   0.998E+00 0.121E+00 0.224E+01   -.113E+01 0.125E+00 -.209E+01   0.143E+00 -.235E+00 -.147E+00   -.312E-03 -.433E-02 0.416E-02
   0.931E+01 -.329E+01 -.139E-05   -.969E+01 0.343E+01 0.717E-08   0.386E+00 -.136E+00 -.486E-16   0.296E-02 -.105E-02 0.349E-07
   0.998E+00 0.121E+00 -.224E+01   -.113E+01 0.125E+00 0.209E+01   0.143E+00 -.235E+00 0.147E+00   -.312E-03 -.433E-02 -.416E-02
   0.129E+00 -.234E+01 0.731E+00   -.399E+00 0.220E+01 -.820E+00   0.273E+00 0.131E+00 0.773E-01   0.582E-03 -.181E-02 0.571E-02
   0.129E+00 -.234E+01 -.731E+00   -.399E+00 0.220E+01 0.820E+00   0.273E+00 0.131E+00 -.773E-01   0.582E-03 -.181E-02 -.571E-02
   0.261E+00 -.924E-01 0.873E-06   -.298E+00 0.105E+00 -.150E-08   0.608E-01 -.215E-01 0.694E-17   0.285E-02 -.101E-02 -.111E-07
   0.375E+01 0.154E+01 0.469E+01   -.310E+01 -.155E+01 -.433E+01   -.656E+00 0.432E-03 -.378E+00   0.300E-03 0.172E-02 0.298E-02
   0.106E+02 0.246E+02 0.238E-05   -.119E+02 -.249E+02 0.241E-07   0.126E+01 0.298E+00 0.520E-17   -.315E-02 -.297E-02 -.377E-07
   0.375E+01 0.154E+01 -.469E+01   -.310E+01 -.155E+01 0.433E+01   -.656E+00 0.432E-03 0.378E+00   0.300E-03 0.172E-02 -.298E-02
   -.278E+01 -.132E+02 0.232E+02   0.187E+01 0.139E+02 -.238E+02   0.914E+00 -.695E+00 0.608E+00   -.122E-02 0.247E-02 -.333E-02
   -.278E+01 -.132E+02 -.232E+02   0.187E+01 0.139E+02 0.238E+02   0.914E+00 -.695E+00 -.608E+00   -.122E-02 0.247E-02 0.333E-02
   0.210E+01 0.232E-02 0.114E-05   -.171E+01 0.908E-01 -.642E-08   -.374E+00 -.998E-01 0.139E-16   0.584E-03 -.243E-02 0.332E-09
   0.105E+01 -.611E+01 -.107E-06   -.600E+00 0.551E+01 0.191E-08   -.438E+00 0.618E+00 0.191E-16   -.142E-02 -.314E-02 0.244E-07
   0.175E+01 -.992E+00 0.609E+00   -.146E+01 0.774E+00 -.418E+00   -.264E+00 0.209E+00 -.189E+00   0.163E-02 0.536E-03 -.182E-02
   0.175E+01 -.992E+00 -.609E+00   -.146E+01 0.774E+00 0.418E+00   -.264E+00 0.209E+00 0.189E+00   0.163E-02 0.536E-03 0.182E-02
   -.781E+01 0.581E+01 0.498E+01   0.754E+01 -.591E+01 -.529E+01   0.239E+00 0.107E+00 0.312E+00   -.543E-04 0.255E-02 0.414E-02
   -.781E+01 0.581E+01 -.498E+01   0.754E+01 -.591E+01 0.529E+01   0.239E+00 0.107E+00 -.312E+00   -.543E-04 0.255E-02 -.414E-02
   -.265E+00 0.102E+01 -.889E-08   0.458E+00 -.979E+00 -.352E-08   -.214E+00 -.104E-01 0.139E-16   -.191E-02 0.284E-02 0.688E-07
   -.107E+02 -.233E+01 -.156E-07   0.106E+02 0.274E+01 0.604E-08   0.585E-01 -.403E+00 -.208E-16   -.244E-02 -.420E-02 -.408E-07
   -.131E+01 -.352E+00 -.133E+01   0.142E+01 0.402E+00 0.148E+01   -.103E+00 -.487E-01 -.139E+00   -.100E-02 -.342E-02 -.616E-02
   -.131E+01 -.352E+00 0.133E+01   0.142E+01 0.402E+00 -.148E+01   -.103E+00 -.487E-01 0.139E+00   -.100E-02 -.342E-02 0.616E-02
   -.699E+00 -.214E+00 0.753E+00   0.843E+00 0.111E+00 -.667E+00   -.174E+00 0.104E+00 -.703E-01   -.293E-02 -.488E-04 0.177E-02
   -.543E+00 0.182E+01 0.173E-05   0.568E+00 -.201E+01 0.140E-08   -.228E-01 0.178E+00 0.694E-17   0.255E-02 0.664E-02 -.343E-09
   -.699E+00 -.214E+00 -.753E+00   0.843E+00 0.111E+00 0.667E+00   -.174E+00 0.104E+00 0.703E-01   -.293E-02 -.489E-04 -.177E-02
   -.261E+00 0.924E-01 0.109E-05   0.298E+00 -.105E+00 -.149E-08   -.608E-01 0.215E-01 0.000E+00   -.285E-02 0.101E-02 0.111E-07
   -.129E+00 0.234E+01 0.731E+00   0.399E+00 -.220E+01 -.820E+00   -.273E+00 -.131E+00 0.773E-01   -.582E-03 0.181E-02 0.571E-02
   -.129E+00 0.234E+01 -.731E+00   0.399E+00 -.220E+01 0.820E+00   -.273E+00 -.131E+00 -.773E-01   -.582E-03 0.181E-02 -.571E-02
   -.998E+00 -.121E+00 0.224E+01   0.113E+01 -.125E+00 -.209E+01   -.143E+00 0.235E+00 -.147E+00   0.312E-03 0.433E-02 0.416E-02
   -.931E+01 0.329E+01 0.291E-06   0.969E+01 -.343E+01 0.718E-08   -.386E+00 0.136E+00 0.555E-16   -.296E-02 0.105E-02 -.257E-07
   -.998E+00 -.121E+00 -.224E+01   0.113E+01 -.125E+00 0.209E+01   -.143E+00 0.235E+00 0.147E+00   0.312E-03 0.433E-02 -.416E-02
   -.142E+01 -.132E+01 0.151E+01   0.161E+01 0.121E+01 -.127E+01   -.188E+00 0.109E+00 -.224E+00   -.298E-02 -.499E-02 -.155E-02
   -.142E+01 -.132E+01 -.151E+01   0.161E+01 0.121E+01 0.127E+01   -.188E+00 0.109E+00 0.224E+00   -.298E-02 -.499E-02 0.155E-02
   0.681E-01 -.241E-01 0.993E-06   0.325E+00 -.115E+00 -.277E-10   -.383E+00 0.135E+00 -.243E-16   0.512E-02 -.181E-02 0.172E-07
   0.699E+00 0.214E+00 0.753E+00   -.843E+00 -.111E+00 -.667E+00   0.174E+00 -.104E+00 -.703E-01   0.293E-02 0.489E-04 0.177E-02
   0.543E+00 -.182E+01 -.152E-05   -.568E+00 0.201E+01 0.140E-08   0.228E-01 -.178E+00 -.694E-17   -.255E-02 -.664E-02 0.113E-07
   0.699E+00 0.214E+00 -.753E+00   -.843E+00 -.111E+00 0.667E+00   0.174E+00 -.104E+00 0.703E-01   0.293E-02 0.488E-04 -.177E-02
   0.131E+01 0.352E+00 -.133E+01   -.142E+01 -.402E+00 0.148E+01   0.103E+00 0.487E-01 -.139E+00   0.100E-02 0.342E-02 -.616E-02
   0.131E+01 0.352E+00 0.133E+01   -.142E+01 -.402E+00 -.148E+01   0.103E+00 0.487E-01 0.139E+00   0.100E-02 0.342E-02 0.616E-02
   0.107E+02 0.233E+01 -.584E-06   -.106E+02 -.274E+01 0.603E-08   -.585E-01 0.403E+00 -.208E-16   0.244E-02 0.420E-02 0.150E-07
   0.265E+00 -.102E+01 0.179E-05   -.458E+00 0.979E+00 -.353E-08   0.214E+00 0.104E-01 0.000E+00   0.191E-02 -.285E-02 -.607E-07
   0.781E+01 -.581E+01 0.498E+01   -.754E+01 0.591E+01 -.529E+01   -.239E+00 -.107E+00 0.312E+00   0.542E-04 -.255E-02 0.414E-02
   0.781E+01 -.581E+01 -.498E+01   -.754E+01 0.591E+01 0.529E+01   -.239E+00 -.107E+00 -.312E+00   0.542E-04 -.255E-02 -.414E-02
   -.175E+01 0.992E+00 0.609E+00   0.146E+01 -.774E+00 -.418E+00   0.264E+00 -.209E+00 -.189E+00   -.163E-02 -.536E-03 -.182E-02
   -.175E+01 0.992E+00 -.609E+00   0.146E+01 -.774E+00 0.418E+00   0.264E+00 -.209E+00 0.189E+00   -.163E-02 -.536E-03 0.182E-02
   -.105E+01 0.611E+01 -.840E-06   0.600E+00 -.551E+01 0.191E-08   0.438E+00 -.618E+00 0.156E-16   0.142E-02 0.314E-02 -.227E-07
   -.210E+01 -.232E-02 0.701E-06   0.171E+01 -.908E-01 -.643E-08   0.374E+00 0.998E-01 0.000E+00   -.584E-03 0.243E-02 0.202E-07
   0.278E+01 0.132E+02 0.232E+02   -.187E+01 -.139E+02 -.238E+02   -.914E+00 0.695E+00 0.608E+00   0.122E-02 -.247E-02 -.333E-02
   0.278E+01 0.132E+02 -.232E+02   -.187E+01 -.139E+02 0.238E+02   -.914E+00 0.695E+00 -.608E+00   0.122E-02 -.247E-02 0.333E-02
   -.375E+01 -.154E+01 0.469E+01   0.310E+01 0.155E+01 -.433E+01   0.656E+00 -.432E-03 -.378E+00   -.300E-03 -.172E-02 0.298E-02
   -.106E+02 -.246E+02 -.200E-05   0.119E+02 0.249E+02 0.241E-07   -.126E+01 -.298E+00 0.113E-16   0.315E-02 0.297E-02 -.312E-08
   -.375E+01 -.154E+01 -.469E+01   0.310E+01 0.155E+01 0.433E+01   0.656E+00 -.432E-03 0.378E+00   -.300E-03 -.172E-02 -.298E-02
   -.122E-05 0.330E-06 -.113E-06   0.185E-11 0.478E-11 0.115E-06   -.218E-21 0.000E+00 0.953E-21   -.154E-06 0.369E-07 -.287E-07
 -----------------------------------------------------------------------------------------------
   0.564E-05 0.153E-05 0.596E-05   0.189E-13 -.102E-13 0.249E-13   0.333E-15 0.902E-16 -.167E-15   -.165E-06 0.213E-07 -.606E-07
 
 
 POSITION                                       TOTAL-FORCE (eV/Angst)
 -----------------------------------------------------------------------------------
      3.79997      2.77159      6.71990        -0.015391      0.005441     -0.000000
      3.87414      2.74004     10.55635         0.005487     -0.003175      0.009351
      3.87414      2.74004     14.40329         0.005487     -0.003175     -0.009351
      4.98414      5.87959      8.63377         0.008769      0.006107      0.003668
      5.08321      5.84511     12.47982         0.013875     -0.004905      0.000000
      4.98414      5.87959     16.32586         0.008769      0.006107     -0.003668
      6.09465      9.02060     10.55724         0.003370     -0.009164     -0.005684
      6.09465      9.02060     14.40239         0.003370     -0.009164      0.005684
      6.09310      9.01527     18.23973         0.027386     -0.009682      0.000000
      7.15289      2.72578      8.58091         0.001077     -0.007613     -0.011811
      7.13164      2.64290     12.47982         0.002456     -0.012362     -0.000000
      7.15289      2.72578     16.37872         0.001077     -0.007613      0.011811
      8.29977      5.94687     10.45656         0.007874      0.002963     -0.009384
      8.29977      5.94687     14.50308         0.007874      0.002963      0.009384
      8.30301      5.87340     18.23973         0.024279     -0.009067      0.000000
      9.40393      9.09267     12.47982         0.007896      0.011673     -0.000000
      9.41578      9.02080     16.31234         0.024506     -0.008423     -0.000394
      9.41578      9.02080     20.16712         0.024506     -0.008423      0.000394
     10.53647      2.72392     10.53137        -0.025257      0.012709      0.006172
     10.53647      2.72392     14.42826        -0.025257      0.012709     -0.006172
     10.53628      2.73857     18.23973        -0.022515      0.028847     -0.000000
     11.66140      5.90572     12.47982        -0.028820      0.002631      0.000000
     11.67735      5.87565     16.33681         0.005315     -0.001515      0.000594
     11.67735      5.87565     20.14265         0.005315     -0.001515     -0.000594
     12.75461      9.01297     14.39746        -0.032361      0.000998      0.017054
     12.77600      8.98310     18.23973         0.004972     -0.002485      0.000000
     12.75461      9.01297     22.08200        -0.032361      0.000998     -0.017054
      0.55788      0.39063      0.95999        -0.027386      0.009682      0.000000
      0.55633      0.38530      4.79733        -0.003370      0.009164     -0.005684
      0.55633      0.38530      8.64248        -0.003370      0.009164      0.005684
      1.66684      3.52631      2.87386        -0.008769     -0.006107      0.003668
      1.56777      3.56079      6.71990        -0.013875      0.004905     -0.000000
      1.66684      3.52631     10.56594        -0.008769     -0.006107     -0.003668
      2.77684      6.66586      4.79643        -0.005487      0.003175      0.009351
      2.77684      6.66586      8.64337        -0.005487      0.003175     -0.009351
      2.85101      6.63431     12.47982         0.015391     -0.005441      0.000000
      3.87283      0.39293      2.87763         0.032361     -0.000998      0.017054
      3.85144      0.42280      6.71990        -0.004972      0.002485     -0.000000
      3.87283      0.39293     10.56217         0.032361     -0.000998     -0.017054
      4.95009      3.53025      4.81698        -0.005315      0.001515      0.000594
      4.95009      3.53025      8.62282        -0.005315      0.001515     -0.000594
      4.96604      3.50018     12.47982         0.028820     -0.002631     -0.000000
      6.09117      6.66733      6.71990         0.022515     -0.028847      0.000000
      6.09098      6.68198     10.53137         0.025257     -0.012709      0.006172
      6.09098      6.68198     14.42826         0.025257     -0.012709     -0.006172
      7.21166      0.38510      4.79251        -0.024506      0.008423     -0.000394
      7.21166      0.38510      8.64729        -0.024506      0.008423      0.000394
      7.22352      0.31323     12.47982        -0.007896     -0.011673      0.000000
      8.32444      3.53251      6.71990        -0.024279      0.009067     -0.000000
      8.32767      3.45903     10.45656        -0.007874     -0.002963     -0.009384
      8.32767      3.45903     14.50308        -0.007874     -0.002963      0.009384
      9.47455      6.68012      8.58091        -0.001077      0.007613     -0.011811
      9.49580      6.76300     12.47982        -0.002456      0.012362      0.000000
      9.47455      6.68012     16.37872        -0.001077      0.007613      0.011811
      8.31372      4.70295     12.47982        -0.000000      0.000000      0.000000
 -----------------------------------------------------------------------------------
    total drift:                                0.000005      0.000002      0.000006


--------------------------------------------------------------------------------------------------------



  FREE ENERGIE OF THE ION-ELECTRON SYSTEM (eV)
  ---------------------------------------------------
  free  energy   TOTEN  =      -287.70291355 eV

  energy  without entropy=     -287.69835251  energy(sigma->0) =     -287.70063303
 
 d Force = 0.5129226E-02[ 0.275E-02, 0.751E-02]  d Energy = 0.5132978E-02-0.375E-05
 d Force =-0.4829217E-01[-0.562E-01,-0.403E-01]  d Ewald  =-0.4827064E-01-0.215E-04


--------------------------------------------------------------------------------------------------------


    POTLOK:  cpu time    0.0834: real time    0.0872


--------------------------------------------------------------------------------------------------------


 Conjugate gradient step on ions:
 trial-energy change:   -0.005133  1 .order   -0.005129   -0.007509   -0.002750
  (g-gl).g = 0.488E-02      g.g   = 0.592E-02  gl.gl    = 0.869E-02
 g(Force)  = 0.592E-02   g(Stress)= 0.000E+00 ortho     = 0.992E-03
 gamma     =   0.56214
 trial     =   1.15913
 opt step  =   1.82885  (harmonic =   1.82885) maximal distance =0.01972688
 next E    =  -287.703704   (d E  =  -0.00592)


--------------------------------------------------------------------------------------------------------


  
 reached required accuracy - stopping structural energy minimisation
 writing wavefunctions
     LOOP+:  cpu time   49.2696: real time   49.8338
    4ORBIT:  cpu time    0.0000: real time    0.0000
 


 total charge     
 
# of ion       s       p       d       tot
------------------------------------------
    1        0.754   0.941   0.000   1.695
    2        0.753   0.946   0.000   1.700
    3        0.753   0.946   0.000   1.699
    4        0.754   0.947   0.000   1.702
    5        0.756   0.930   0.000   1.686
    6        0.754   0.946   0.000   1.700
    7        0.753   0.947   0.000   1.700
    8        0.753   0.946   0.000   1.699
    9        0.751   0.947   0.000   1.699
   10        0.762   0.942   0.000   1.704
   11        0.762   0.899   0.000   1.661
   12        0.763   0.944   0.000   1.707
   13        0.769   0.908   0.000   1.678
   14        0.765   0.907   0.000   1.672
   15        0.754   0.948   0.000   1.702
   16        0.760   0.941   0.000   1.701
   17        0.752   0.943   0.000   1.695
   18        0.753   0.945   0.000   1.698
   19        0.754   0.946   0.000   1.700
   20        0.755   0.947   0.000   1.703
   21        0.753   0.945   0.000   1.698
   22        0.755   0.947   0.000   1.702
   23        0.754   0.944   0.000   1.698
   24        0.754   0.944   0.000   1.698
   25        0.753   0.945   0.000   1.698
   26        0.754   0.944   0.000   1.698
   27        0.753   0.945   0.000   1.698
   28        0.751   0.947   0.000   1.699
   29        0.753   0.946   0.000   1.699
   30        0.753   0.947   0.000   1.700
   31        0.754   0.946   0.000   1.700
   32        0.756   0.930   0.000   1.686
   33        0.754   0.947   0.000   1.702
   34        0.753   0.946   0.000   1.699
   35        0.753   0.946   0.000   1.700
   36        0.754   0.941   0.000   1.695
   37        0.753   0.945   0.000   1.698
   38        0.754   0.944   0.000   1.698
   39        0.753   0.945   0.000   1.698
   40        0.754   0.944   0.000   1.698
   41        0.754   0.944   0.000   1.698
   42        0.755   0.947   0.000   1.702
   43        0.753   0.945   0.000   1.698
   44        0.755   0.947   0.000   1.703
   45        0.754   0.946   0.000   1.700
   46        0.753   0.945   0.000   1.698
   47        0.752   0.943   0.000   1.695
   48        0.760   0.941   0.000   1.701
   49        0.754   0.948   0.000   1.702
   50        0.765   0.907   0.000   1.672
   51        0.769   0.908   0.000   1.678
   52        0.763   0.944   0.000   1.707
   53        0.762   0.899   0.000   1.661
   54        0.762   0.942   0.000   1.704
   55        0.851   0.883   0.000   1.735
--------------------------------------------------
tot         41.660  51.652   0.000  93.312
 

 total amount of memory used by VASP MPI-rank0   149529. kBytes
=======================================================================

   base      :      30000. kBytes
   nonl-proj :      54318. kBytes
   fftplans  :       5382. kBytes
   grid      :      19496. kBytes
   one-center:        168. kBytes
   wavefun   :      40165. kBytes
 
  
  
 General timing and accounting informations for this job:
 ========================================================
  
                  Total CPU time used (sec):      683.915
                            User time (sec):      675.267
                          System time (sec):        8.648
                         Elapsed time (sec):      694.697
  
                   Maximum memory used (kb):      488400.
                   Average memory used (kb):           0.
  
                          Minor page faults:        49423
                          Major page faults:            0
                 Voluntary context switches:         5042
