 vasp.6.3.0 20Jan22 (build Mar 07 2022 09:35:52) complex                        
  
 executed on             LinuxIFC date 2025.06.26  16:12:43
 running on   96 total cores
 distrk:  each k-point on   96 cores,    1 groups
 distr:  one band on NCORE=   1 cores,   96 groups


--------------------------------------------------------------------------------------------------------


 INCAR:
   ALGO = Normal
   AMIX = 0.2
   EDIFF = 1e-06
   EDIFFG = -0.05
   ENCUT = 550.0
   IBRION = 2
   ISIF = 2
   ISMEAR = 0
   ISPIN = 1
   ISYM = 2
   LCHARG = True
   LORBIT = 11
   LREAL = False
   LVTOT = True
   LWAVE = True
   NELECT = 377.0
   NELM = 200
   NSW = 0
   SIGMA = 0.05
   SYSTEM = SiO2

 POTCAR:    PAW_PBE Si 05Jan2001                  
 POTCAR:    PAW_PBE O 08Apr2002                   
 WARNING: For LVTOT=.TRUE., VASP.5.x writes the TOTAL local potential to the
     file LOCPOT. If you want only the Hartree contributions, use LVHAR=.TRUE.
     instead. 

 -----------------------------------------------------------------------------
|                                                                             |
|           W    W    AA    RRRRR   N    N  II  N    N   GGGG   !!!           |
|           W    W   A  A   R    R  NN   N  II  NN   N  G    G  !!!           |
|           W    W  A    A  R    R  N N  N  II  N N  N  G       !!!           |
|           W WW W  AAAAAA  RRRRR   N  N N  II  N  N N  G  GGG   !            |
|           WW  WW  A    A  R   R   N   NN  II  N   NN  G    G                |
|           W    W  A    A  R    R  N    N  II  N    N   GGGG   !!!           |
|                                                                             |
|     For optimal performance we recommend to set                             |
|       NCORE = 2 up to number-of-cores-per-socket                            |
|     NCORE specifies how many cores store one orbital (NPAR=cpu/NCORE).      |
|     This setting can greatly improve the performance of VASP for DFT.       |
|     The default, NCORE=1 might be grossly inefficient on modern             |
|     multi-core architectures or massively parallel machines. Do your        |
|     own testing! More info at https://www.vasp.at/wiki/index.php/NCORE      |
|     Unfortunately you need to use the default for GW and RPA                |
|     calculations (for HF NCORE is supported but not extensively tested      |
|     yet).                                                                   |
|                                                                             |
 -----------------------------------------------------------------------------

 POTCAR:    PAW_PBE Si 05Jan2001                  
   VRHFIN =Si: s2p2                                                                                 
   LEXCH  = PE                                                                                      
   EATOM  =   103.0669 eV,    7.5752 Ry                                                             
                                                                                                    
   TITEL  = PAW_PBE Si 05Jan2001                                                                    
   LULTRA =        F    use ultrasoft PP ?                                                          
   IUNSCR =        1    unscreen: 0-lin 1-nonlin 2-no                                               
   RPACOR =    1.500    partial core radius                                                         
   POMASS =   28.085; ZVAL   =    4.000    mass and valenz                                          
   RCORE  =    1.900    outmost cutoff radius                                                       
   RWIGS  =    2.480; RWIGS  =    1.312    wigner-seitz radius (au A)                               
   ENMAX  =  245.345; ENMIN  =  184.009 eV                                                          
   ICORE  =        2    local potential                                                             
   LCOR   =        T    correct aug charges                                                         
   LPAW   =        T    paw PP                                                                      
   EAUG   =  322.069                                                                                
   DEXC   =    0.000                                                                                
   RMAX   =    1.950    core radius for proj-oper                                                   
   RAUG   =    1.300    factor for augmentation sphere                                              
   RDEP   =    1.993    radius for radial grids                                                     
   RDEPT  =    1.837    core radius for aug-charge                                                  
                                                                                                    
   Atomic configuration                                                                             
    6 entries                                                                                       
     n  l   j            E        occ.                                                              
     1  0  0.50     -1785.8828   2.0000                                                             
     2  0  0.50      -139.4969   2.0000                                                             
     2  1  1.50       -95.5546   6.0000                                                             
     3  0  0.50       -10.8127   2.0000                                                             
     3  1  0.50        -4.0811   2.0000                                                             
     3  2  1.50        -4.0817   0.0000                                                             
   Description                                                                                      
     l       E           TYP  RCUT    TYP  RCUT                                                     
     0    -10.8127223     23  1.900                                                                 
     0     -7.6451159     23  1.900                                                                 
     1     -4.0811372     23  1.900                                                                 
     1      2.4879257     23  1.900                                                                 
     2     -4.0817478      7  1.900                                                                 
  local pseudopotential read in
  partial core-charges read in
  partial kinetic energy density read in
  atomic valenz-charges read in
  non local Contribution for L=           0  read in
    real space projection operators read in
  non local Contribution for L=           0  read in
    real space projection operators read in
  non local Contribution for L=           1  read in
    real space projection operators read in
  non local Contribution for L=           1  read in
    real space projection operators read in
    PAW grid and wavefunctions read in
 
   number of l-projection  operators is LMAX  =           4
   number of lm-projection operators is LMMAX =           8
 
 POTCAR:    PAW_PBE O 08Apr2002                   
   VRHFIN =O: s2p4                                                                                  
   LEXCH  = PE                                                                                      
   EATOM  =   432.3788 eV,   31.7789 Ry                                                             
                                                                                                    
   TITEL  = PAW_PBE O 08Apr2002                                                                     
   LULTRA =        F    use ultrasoft PP ?                                                          
   IUNSCR =        1    unscreen: 0-lin 1-nonlin 2-no                                               
   RPACOR =    1.200    partial core radius                                                         
   POMASS =   16.000; ZVAL   =    6.000    mass and valenz                                          
   RCORE  =    1.520    outmost cutoff radius                                                       
   RWIGS  =    1.550; RWIGS  =    0.820    wigner-seitz radius (au A)                               
   ENMAX  =  400.000; ENMIN  =  300.000 eV                                                          
   ICORE  =        2    local potential                                                             
   LCOR   =        T    correct aug charges                                                         
   LPAW   =        T    paw PP                                                                      
   EAUG   =  605.392                                                                                
   DEXC   =    0.000                                                                                
   RMAX   =    1.553    core radius for proj-oper                                                   
   RAUG   =    1.300    factor for augmentation sphere                                              
   RDEP   =    1.550    radius for radial grids                                                     
   RDEPT  =    1.329    core radius for aug-charge                                                  
                                                                                                    
   Atomic configuration                                                                             
    4 entries                                                                                       
     n  l   j            E        occ.                                                              
     1  0  0.50      -514.6923   2.0000                                                             
     2  0  0.50       -23.9615   2.0000                                                             
     2  1  0.50        -9.0305   4.0000                                                             
     3  2  1.50        -9.5241   0.0000                                                             
   Description                                                                                      
     l       E           TYP  RCUT    TYP  RCUT                                                     
     0    -23.9615318     23  1.200                                                                 
     0     -9.5240782     23  1.200                                                                 
     1     -9.0304911     23  1.520                                                                 
     1      8.1634956     23  1.520                                                                 
     2     -9.5240782      7  1.500                                                                 
  local pseudopotential read in
  partial core-charges read in
  partial kinetic energy density read in
  kinetic energy density of atom read in
  atomic valenz-charges read in
  non local Contribution for L=           0  read in
    real space projection operators read in
  non local Contribution for L=           0  read in
    real space projection operators read in
  non local Contribution for L=           1  read in
    real space projection operators read in
  non local Contribution for L=           1  read in
    real space projection operators read in
    PAW grid and wavefunctions read in
 
   number of l-projection  operators is LMAX  =           4
   number of lm-projection operators is LMMAX =           8
 
 -----------------------------------------------------------------------------
|                                                                             |
|               ----> ADVICE to this user running VASP <----                  |
|                                                                             |
|     You have a (more or less) 'large supercell' and for larger cells it     |
|     might be more efficient to use real-space projection operators.         |
|     Therefore, try LREAL= Auto in the INCAR file.                           |
|     Mind: For very accurate calculation, you might also keep the            |
|     reciprocal projection scheme (i.e. LREAL=.FALSE.).                      |
|                                                                             |
 -----------------------------------------------------------------------------

  PAW_PBE Si 05Jan2001                  :
 energy of atom  1       EATOM= -103.0669
 kinetic energy error for atom=    0.0004 (will be added to EATOM!!)
  PAW_PBE O 08Apr2002                   :
 energy of atom  2       EATOM= -432.3788
 kinetic energy error for atom=    0.0194 (will be added to EATOM!!)
 
 
 POSCAR: Si23 O47
  positions in direct lattice
  No initial velocities read in
 exchange correlation table for  LEXCH =        8
   RHO(1)=    0.500       N(1)  =     2000
   RHO(2)=  100.500       N(2)  =     4000

 VTST: version 4.2, (08/11/21)

 CHAIN: initializing optimizer
 
 OPT: Using VASP Conjugate-Gradient optimizer
 CHAIN: Read ICHAIN            0
 
 POSCAR: Si23 O47
  positions in direct lattice
  No initial velocities read in
 


--------------------------------------------------------------------------------------------------------


 ion  position               nearest neighbor table
   1  0.266  0.266  0.000-  64 1.61  31 1.61  47 1.62  18 3.06  13 3.06   9 3.06  16 3.06
   2  0.266  0.766  0.000-  66 1.61  33 1.61  49 1.62  26 1.62  15 3.06  16 3.06  11 3.06  18 3.06

   3  0.266  0.766  0.500-  65 1.61  34 1.61  50 1.62  25 1.62  14 3.06  17 3.06  10 3.06  19 3.06

   4  0.766  0.266  0.000-  68 1.61  35 1.61  51 1.62  28 1.62   9 3.06  22 3.06  20 3.06  13 3.06

   5  0.766  0.266  0.500-  67 1.61  36 1.61  52 1.62  27 1.62   8 3.06  23 3.06  21 3.06  12 3.06

   6  0.766  0.766  0.000-  70 1.61  37 1.61  53 1.62  30 1.62  11 3.06  20 3.06  15 3.06  22 3.06

   7  0.766  0.766  0.500-  69 1.61  38 1.61  54 1.62  29 1.62  10 3.06  21 3.06  14 3.06  23 3.06

   8  0.000  0.234  0.333-  24 1.61  59 1.61  39 1.62  67 1.62   5 3.06  18 3.06  20 3.06
   9  0.000  0.234  0.833-  60 1.61  40 1.62  68 1.62   4 3.06   1 3.06  21 3.06  19 3.06
  10  0.000  0.734  0.333-  25 1.61  61 1.61  41 1.62  69 1.62   7 3.06   3 3.06  16 3.06  22 3.06

  11  0.000  0.734  0.833-  26 1.61  62 1.61  42 1.62  70 1.62   6 3.06   2 3.06  17 3.06  23 3.06

  12  0.500  0.234  0.333-  27 1.61  55 1.61  43 1.62  63 1.62   5 3.06  16 3.06  22 3.06
  13  0.500  0.234  0.833-  28 1.61  56 1.61  44 1.62  64 1.62   1 3.06   4 3.06  17 3.06  23 3.06

  14  0.500  0.734  0.333-  29 1.61  57 1.61  45 1.62  65 1.62   3 3.06   7 3.06  18 3.06  20 3.06

  15  0.500  0.734  0.833-  30 1.61  58 1.61  46 1.62  66 1.62   2 3.06   6 3.06  19 3.06  21 3.06

  16  0.234  0.000  0.167-  47 1.61  41 1.61  33 1.62  55 1.62   2 3.06   1 3.06  10 3.06  12 3.06

  17  0.234  0.000  0.667-  48 1.61  42 1.61  34 1.62  56 1.62   3 3.06  11 3.06  13 3.06
  18  0.234  0.500  0.167-  49 1.61  39 1.61  31 1.62  57 1.62   1 3.06   2 3.06   8 3.06  14 3.06

  19  0.234  0.500  0.667-  50 1.61  40 1.61  32 1.62  58 1.62   3 3.06   9 3.06  15 3.06
  20  0.734  0.000  0.167-  51 1.61  45 1.61  37 1.62  59 1.62   6 3.06   4 3.06   8 3.06  14 3.06

  21  0.734  0.000  0.667-  52 1.61  46 1.61  38 1.62  60 1.62   7 3.06   5 3.06   9 3.06  15 3.06

  22  0.734  0.500  0.167-  53 1.61  43 1.61  35 1.62  61 1.62   4 3.06   6 3.06  10 3.06  12 3.06

  23  0.734  0.500  0.667-  54 1.61  44 1.61  36 1.62  62 1.62   5 3.06   7 3.06  11 3.06  13 3.06

  24  0.135  0.207  0.392-   8 1.61
  25  0.135  0.707  0.392-  10 1.61   3 1.62
  26  0.135  0.707  0.892-  11 1.61   2 1.62
  27  0.635  0.207  0.392-  12 1.61   5 1.62
  28  0.635  0.207  0.892-  13 1.61   4 1.62
  29  0.635  0.707  0.392-  14 1.61   7 1.62
  30  0.635  0.707  0.892-  15 1.61   6 1.62
  31  0.293  0.428  0.059-   1 1.61  18 1.62
  32  0.293  0.428  0.559-  19 1.62
  33  0.293  0.928  0.059-   2 1.61  16 1.62
  34  0.293  0.928  0.559-   3 1.61  17 1.62
  35  0.793  0.428  0.059-   4 1.61  22 1.62
  36  0.793  0.428  0.559-   5 1.61  23 1.62
  37  0.793  0.928  0.059-   6 1.61  20 1.62
  38  0.793  0.928  0.559-   7 1.61  21 1.62
  39  0.072  0.365  0.226-  18 1.61   8 1.62
  40  0.072  0.365  0.726-  19 1.61   9 1.62
  41  0.072  0.865  0.226-  16 1.61  10 1.62
  42  0.072  0.865  0.726-  17 1.61  11 1.62
  43  0.572  0.365  0.226-  22 1.61  12 1.62
  44  0.572  0.365  0.726-  23 1.61  13 1.62
  45  0.572  0.865  0.226-  20 1.61  14 1.62
  46  0.572  0.865  0.726-  21 1.61  15 1.62
  47  0.207  0.135  0.108-  16 1.61   1 1.62
  48  0.207  0.135  0.608-  17 1.61
  49  0.207  0.635  0.108-  18 1.61   2 1.62
  50  0.207  0.635  0.608-  19 1.61   3 1.62
  51  0.707  0.135  0.108-  20 1.61   4 1.62
  52  0.707  0.135  0.608-  21 1.61   5 1.62
  53  0.707  0.635  0.108-  22 1.61   6 1.62
  54  0.707  0.635  0.608-  23 1.61   7 1.62
  55  0.365  0.072  0.274-  12 1.61  16 1.62
  56  0.365  0.072  0.774-  13 1.61  17 1.62
  57  0.365  0.572  0.274-  14 1.61  18 1.62
  58  0.365  0.572  0.774-  15 1.61  19 1.62
  59  0.865  0.072  0.274-   8 1.61  20 1.62
  60  0.865  0.072  0.774-   9 1.61  21 1.62
  61  0.865  0.572  0.274-  10 1.61  22 1.62
  62  0.865  0.572  0.774-  11 1.61  23 1.62
  63  0.428  0.293  0.441-  12 1.62
  64  0.428  0.293  0.941-   1 1.61  13 1.62
  65  0.428  0.793  0.441-   3 1.61  14 1.62
  66  0.428  0.793  0.941-   2 1.61  15 1.62
  67  0.928  0.293  0.441-   5 1.61   8 1.62
  68  0.928  0.293  0.941-   4 1.61   9 1.62
  69  0.928  0.793  0.441-   7 1.61  10 1.62
  70  0.928  0.793  0.941-   6 1.61  11 1.62
 
  LATTYP: Found a hexagonal cell.
 ALAT       =     9.8299323535
 C/A-ratio  =     1.1050536148
  
  Lattice vectors:
  
 A1 = (   4.9149661767,  -8.5129711356,   0.0000000000)
 A2 = (   4.9149661767,   8.5129711356,   0.0000000000)
 A3 = (   0.0000000000,   0.0000000000,  10.8626022800)


Analysis of symmetry for initial positions (statically):
=====================================================================
 Subroutine PRICEL returns:
 Original cell was already a primitive cell.
 

 Routine SETGRP: Setting up the symmetry group for a 
 hexagonal supercell.


 Subroutine GETGRP returns: Found  1 space group operations
 (whereof  1 operations were pure point group operations)
 out of a pool of 24 trial point group operations.


The static configuration has the point symmetry C_1 .


Analysis of symmetry for dynamics (positions and initial velocities):
=====================================================================
 Subroutine PRICEL returns:
 Original cell was already a primitive cell.
 

 Routine SETGRP: Setting up the symmetry group for a 
 hexagonal supercell.


 Subroutine GETGRP returns: Found  1 space group operations
 (whereof  1 operations were pure point group operations)
 out of a pool of 24 trial point group operations.


The dynamic configuration has the point symmetry C_1 .


 Subroutine INISYM returns: Found  1 space group operations
 (whereof  1 operations are pure point group operations),
 and found     1 'primitive' translations


----------------------------------------------------------------------------------------

                                     Primitive cell                                     

  volume of cell :     909.0035

  direct lattice vectors                    reciprocal lattice vectors
     4.914966177 -8.512971136  0.000000000     0.101730100 -0.058733901  0.000000000
     4.914966177  8.512971136  0.000000000     0.101730100  0.058733901  0.000000000
     0.000000000  0.000000000 10.862602280     0.000000000  0.000000000  0.092058972

  length of vectors
     9.829932353  9.829932353 10.862602280     0.117467801  0.117467801  0.092058972

  position of ions in fractional coordinates (direct lattice)
     0.265544295  0.265544295  0.000000000
     0.265544295  0.765544295  0.000000000
     0.265544295  0.765544295  0.500000000
     0.765544295  0.265544295  0.000000000
     0.765544295  0.265544295  0.500000000
     0.765544295  0.765544295  0.000000000
     0.765544295  0.765544295  0.500000000
     1.000000000  0.234455705  0.333333333
     1.000000000  0.234455705  0.833333333
     1.000000000  0.734455705  0.333333333
     1.000000000  0.734455705  0.833333333
     0.500000000  0.234455705  0.333333333
     0.500000000  0.234455705  0.833333333
     0.500000000  0.734455705  0.333333333
     0.500000000  0.734455705  0.833333333
     0.234455705  1.000000000  0.166666667
     0.234455705  1.000000000  0.666666667
     0.234455705  0.500000000  0.166666667
     0.234455705  0.500000000  0.666666667
     0.734455705  1.000000000  0.166666667
     0.734455705  1.000000000  0.666666667
     0.734455705  0.500000000  0.166666667
     0.734455705  0.500000000  0.666666667
     0.134611555  0.206697145  0.392445490
     0.134611555  0.706697145  0.392445490
     0.134611555  0.706697145  0.892445490
     0.634611555  0.206697145  0.392445490
     0.634611555  0.206697145  0.892445490
     0.634611555  0.706697145  0.392445490
     0.634611555  0.706697145  0.892445490
     0.293302855  0.427914410  0.059112157
     0.293302855  0.427914410  0.559112157
     0.293302855  0.927914410  0.059112157
     0.293302855  0.927914410  0.559112157
     0.793302855  0.427914410  0.059112157
     0.793302855  0.427914410  0.559112157
     0.793302855  0.927914410  0.059112157
     0.793302855  0.927914410  0.559112157
     0.072085590  0.365388445  0.225778823
     0.072085590  0.365388445  0.725778823
     0.072085590  0.865388445  0.225778823
     0.072085590  0.865388445  0.725778823
     0.572085590  0.365388445  0.225778823
     0.572085590  0.365388445  0.725778823
     0.572085590  0.865388445  0.225778823
     0.572085590  0.865388445  0.725778823
     0.206697145  0.134611555  0.107554510
     0.206697145  0.134611555  0.607554510
     0.206697145  0.634611555  0.107554510
     0.206697145  0.634611555  0.607554510
     0.706697145  0.134611555  0.107554510
     0.706697145  0.134611555  0.607554510
     0.706697145  0.634611555  0.107554510
     0.706697145  0.634611555  0.607554510
     0.365388445  0.072085590  0.274221177
     0.365388445  0.072085590  0.774221177
     0.365388445  0.572085590  0.274221177
     0.365388445  0.572085590  0.774221177
     0.865388445  0.072085590  0.274221177
     0.865388445  0.072085590  0.774221177
     0.865388445  0.572085590  0.274221177
     0.865388445  0.572085590  0.774221177
     0.427914410  0.293302855  0.440887843
     0.427914410  0.293302855  0.940887843
     0.427914410  0.793302855  0.440887843
     0.427914410  0.793302855  0.940887843
     0.927914410  0.293302855  0.440887843
     0.927914410  0.293302855  0.940887843
     0.927914410  0.793302855  0.440887843
     0.927914410  0.793302855  0.940887843

  ion indices of the primitive-cell ions
   primitive index   ion index
                 1           1
                 2           2
                 3           3
                 4           4
                 5           5
                 6           6
                 7           7
                 8           8
                 9           9
                10          10
                11          11
                12          12
                13          13
                14          14
                15          15
                16          16
                17          17
                18          18
                19          19
                20          20
                21          21
                22          22
                23          23
                24          24
                25          25
                26          26
                27          27
                28          28
                29          29
                30          30
                31          31
                32          32
                33          33
                34          34
                35          35
                36          36
                37          37
                38          38
                39          39
                40          40
                41          41
                42          42
                43          43
                44          44
                45          45
                46          46
                47          47
                48          48
                49          49
                50          50
                51          51
                52          52
                53          53
                54          54
                55          55
                56          56
                57          57
                58          58
                59          59
                60          60
                61          61
                62          62
                63          63
                64          64
                65          65
                66          66
                67          67
                68          68
                69          69
                70          70

----------------------------------------------------------------------------------------

 
 
 KPOINTS: pymatgen with grid density = 1000 / numb

Automatic generation of k-mesh.
 Grid dimensions read from file:
 generate k-points for:    4    4    2

 Generating k-lattice:

  Cartesian coordinates                     Fractional coordinates (reciprocal lattice)
     0.025432525 -0.014683475  0.000000000     0.250000000 -0.000000000  0.000000000
     0.025432525  0.014683475  0.000000000    -0.000000000  0.250000000  0.000000000
     0.000000000  0.000000000  0.046029486     0.000000000  0.000000000  0.500000000

  Length of vectors
     0.029366950  0.029366950  0.046029486

  Shift w.r.t. Gamma in fractional coordinates (k-lattice)
     0.000000000  0.000000000  0.000000000

 
 Subroutine IBZKPT returns following result:
 ===========================================
 
 Found     20 irreducible k-points:
 
 Following reciprocal coordinates:
            Coordinates               Weight
  0.000000  0.000000  0.000000      1.000000
  0.250000  0.000000  0.000000      2.000000
  0.000000  0.250000  0.000000      2.000000
 -0.250000  0.250000  0.000000      2.000000
  0.500000  0.000000  0.000000      1.000000
  0.000000  0.500000  0.000000      1.000000
  0.500000  0.500000  0.000000      1.000000
  0.250000  0.250000  0.000000      2.000000
 -0.250000  0.500000  0.000000      2.000000
  0.500000  0.250000  0.000000      2.000000
  0.000000  0.000000  0.500000      1.000000
  0.250000  0.000000  0.500000      2.000000
  0.000000  0.250000  0.500000      2.000000
 -0.250000  0.250000  0.500000      2.000000
  0.500000  0.000000  0.500000      1.000000
  0.000000  0.500000  0.500000      1.000000
  0.500000  0.500000  0.500000      1.000000
  0.250000  0.250000  0.500000      2.000000
 -0.250000  0.500000  0.500000      2.000000
  0.500000  0.250000  0.500000      2.000000
 
 Following cartesian coordinates:
            Coordinates               Weight
  0.000000  0.000000  0.000000      1.000000
  0.025433 -0.014683  0.000000      2.000000
  0.025433  0.014683  0.000000      2.000000
  0.000000  0.029367  0.000000      2.000000
  0.050865 -0.029367  0.000000      1.000000
  0.050865  0.029367  0.000000      1.000000
  0.101730  0.000000  0.000000      1.000000
  0.050865  0.000000  0.000000      2.000000
  0.025433  0.044050  0.000000      2.000000
  0.076298 -0.014683  0.000000      2.000000
  0.000000  0.000000  0.046029      1.000000
  0.025433 -0.014683  0.046029      2.000000
  0.025433  0.014683  0.046029      2.000000
  0.000000  0.029367  0.046029      2.000000
  0.050865 -0.029367  0.046029      1.000000
  0.050865  0.029367  0.046029      1.000000
  0.101730  0.000000  0.046029      1.000000
  0.050865  0.000000  0.046029      2.000000
  0.025433  0.044050  0.046029      2.000000
  0.076298 -0.014683  0.046029      2.000000
 


--------------------------------------------------------------------------------------------------------




 Dimension of arrays:
   k-points           NKPTS =     20   k-points in BZ     NKDIM =     20   number of bands    NBANDS=    288
   number of dos      NEDOS =    301   number of ions     NIONS =     70
   non local maximal  LDIM  =      4   non local SUM 2l+1 LMDIM =      8
   total plane-waves  NPLWV = 200704
   max r-space proj   IRMAX =      1   max aug-charges    IRDMAX=   7581
   dimension x,y,z NGX =    56 NGY =   56 NGZ =   64
   dimension x,y,z NGXF=   112 NGYF=  112 NGZF=  128
   support grid    NGXF=   112 NGYF=  112 NGZF=  128
   ions per type =              23  47
   NGX,Y,Z   is equivalent  to a cutoff of   9.47,  9.47,  9.79 a.u.
   NGXF,Y,Z  is equivalent  to a cutoff of  18.94, 18.94, 19.59 a.u.

 SYSTEM =  SiO2                                    
 POSCAR =  Si23 O47                                

 Startparameter for this run:
   NWRITE =      2    write-flag & timer
   PREC   = normal    normal or accurate (medium, high low for compatibility)
   ISTART =      0    job   : 0-new  1-cont  2-samecut
   ICHARG =      2    charge: 1-file 2-atom 10-const
   ISPIN  =      1    spin polarized calculation?
   LNONCOLLINEAR =      F non collinear calculations
   LSORBIT =      F    spin-orbit coupling
   INIWAV =      1    electr: 0-lowe 1-rand  2-diag
   LASPH  =      F    aspherical Exc in radial PAW
 Electronic Relaxation 1
   ENCUT  =  550.0 eV  40.42 Ry    6.36 a.u.  18.80 18.80 20.77*2*pi/ulx,y,z
   ENINI  =  550.0     initial cutoff
   ENAUG  =  605.4 eV  augmentation charge cutoff
   NELM   =    200;   NELMIN=  2; NELMDL= -5     # of ELM steps 
   EDIFF  = 0.1E-05   stopping-criterion for ELM
   LREAL  =      F    real-space projection
   NLSPLINE    = F    spline interpolate recip. space projectors
   LCOMPAT=      F    compatible to vasp.4.4
   GGA_COMPAT  = T    GGA compatible to vasp.4.4-vasp.4.6
   LMAXPAW     = -100 max onsite density
   LMAXMIX     =    2 max onsite mixed and CHGCAR
   VOSKOWN=      0    Vosko Wilk Nusair interpolation
   ROPT   =    0.00000   0.00000
 Ionic relaxation
   EDIFFG = -.5E-01   stopping-criterion for IOM
   NSW    =      0    number of steps for IOM
   NBLOCK =      1;   KBLOCK =      1    inner block; outer block 
   IBRION =     -1    ionic relax: 0-MD 1-quasi-New 2-CG
   NFREE  =      1    steps in history (QN), initial steepest desc. (CG)
   ISIF   =      2    stress and relaxation
   IWAVPR =     10    prediction:  0-non 1-charg 2-wave 3-comb
   ISYM   =      2    0-nonsym 1-usesym 2-fastsym
   LCORR  =      T    Harris-Foulkes like correction to forces

   POTIM  = 0.5000    time-step for ionic-motion
   TEIN   =    0.0    initial temperature
   TEBEG  =    0.0;   TEEND  =   0.0 temperature during run
   SMASS  =  -3.00    Nose mass-parameter (am)
   estimated Nose-frequenzy (Omega)   =  0.10E-29 period in steps = 0.13E+47 mass=  -0.221E-26a.u.
   SCALEE = 1.0000    scale energy and forces
   NPACO  =    256;   APACO  = 10.0  distance and # of slots for P.C.
   PSTRESS=    0.0 pullay stress

  Mass of Ions in am
   POMASS =  28.09 16.00
  Ionic Valenz
   ZVAL   =   4.00  6.00
  Atomic Wigner-Seitz radii
   RWIGS  =  -1.00 -1.00
  virtual crystal weights 
   VCA    =   1.00  1.00
   NELECT =     377.0000    total number of electrons
   NUPDOWN=      -1.0000    fix difference up-down

 DOS related values:
   EMIN   =  10.00;   EMAX   =-10.00  energy-range for DOS
   EFERMI =   0.00
   ISMEAR =     0;   SIGMA  =   0.05  broadening in eV -4-tet -1-fermi 0-gaus

 Electronic relaxation 2 (details)
   IALGO  =     38    algorithm
   LDIAG  =      T    sub-space diagonalisation (order eigenvalues)
   LSUBROT=      F    optimize rotation matrix (better conditioning)
   TURBO    =      0    0=normal 1=particle mesh
   IRESTART =      0    0=no restart 2=restart with 2 vectors
   NREBOOT  =      0    no. of reboots
   NMIN     =      0    reboot dimension
   EREF     =   0.00    reference energy to select bands
   IMIX   =      4    mixing-type and parameters
     AMIX     =   0.20;   BMIX     =  1.00
     AMIX_MAG =   0.80;   BMIX_MAG =  1.00
     AMIN     =   0.10
     WC   =   100.;   INIMIX=   1;  MIXPRE=   1;  MAXMIX= -45

 Intra band minimization:
   WEIMIN = 0.0000     energy-eigenvalue tresh-hold
   EBREAK =  0.87E-09  absolut break condition
   DEPER  =   0.30     relativ break condition  

   TIME   =   0.40     timestep for ELM

  volume/ion in A,a.u.               =      12.99        87.63
  Fermi-wavevector in a.u.,A,eV,Ry     =   1.220863  2.307096 20.279555  1.490505
  Thomas-Fermi vector in A             =   2.356065
 
 Write flags
   LWAVE        =      T    write WAVECAR
   LDOWNSAMPLE  =      F    k-point downsampling of WAVECAR
   LCHARG       =      T    write CHGCAR
   LVTOT        =      T    write LOCPOT, total local potential
   LVHAR        =      F    write LOCPOT, Hartree potential only
   LELF         =      F    write electronic localiz. function (ELF)
   LORBIT       =     11    0 simple, 1 ext, 2 COOP (PROOUT), +10 PAW based schemes


 Dipole corrections
   LMONO  =      F    monopole corrections only (constant potential shift)
   LDIPOL =      F    correct potential (dipole corrections)
   IDIPOL =      0    1-x, 2-y, 3-z, 4-all directions 
   EPSILON=  1.0000000 bulk dielectric constant

 Exchange correlation treatment:
   GGA     =    --    GGA type
   LEXCH   =     8    internal setting for exchange type
   LIBXC   =     F    Libxc                    
   VOSKOWN =     0    Vosko Wilk Nusair interpolation
   LHFCALC =     F    Hartree Fock is set to
   LHFONE  =     F    Hartree Fock one center treatment
   AEXX    =    0.0000 exact exchange contribution

 Linear response parameters
   LEPSILON=     F    determine dielectric tensor
   LRPA    =     F    only Hartree local field effects (RPA)
   LNABLA  =     F    use nabla operator in PAW spheres
   LVEL    =     F    velocity operator in full k-point grid
   CSHIFT  =0.1000    complex shift for real part using Kramers Kronig
   OMEGAMAX=  -1.0    maximum frequency
   DEG_THRESHOLD= 0.2000000E-02 threshold for treating states as degnerate
   RTIME   =   -0.100 relaxation time in fs
  (WPLASMAI=    0.000 imaginary part of plasma frequency in eV, 0.658/RTIME)
   DFIELD  = 0.0000000 0.0000000 0.0000000 field for delta impulse in time
 
  Optional k-point grid parameters
   LKPOINTS_OPT  =     F    use optional k-point grid
   KPOINTS_OPT_MODE=     1    mode for optional k-point grid
 
 Orbital magnetization related:
   ORBITALMAG=     F  switch on orbital magnetization
   LCHIMAG   =     F  perturbation theory with respect to B field
   DQ        =  0.001000  dq finite difference perturbation B field
   LLRAUG    =     F  two centre corrections for induced B field



--------------------------------------------------------------------------------------------------------


 Static calculation
 charge density and potential will be updated during run
 non-spin polarized calculation
 Variant of blocked Davidson
 Davidson routine will perform the subspace rotation
 perform sub-space diagonalisation
    after iterative eigenvector-optimisation
 modified Broyden-mixing scheme, WC =      100.0
 initial mixing is a Kerker type mixing with AMIX =  0.2000 and BMIX =      1.0000
 Hartree-type preconditioning will be used
 using additional bands           99
 reciprocal scheme for non local part
 use partial core corrections
 calculate Harris-corrections to forces 
   (improved forces if not selfconsistent)
 use gradient corrections 
 use of overlap-Matrix (Vanderbilt PP)
 Gauss-broadening in eV      SIGMA  =   0.05


--------------------------------------------------------------------------------------------------------


  energy-cutoff  :      550.00
  volume of cell :      909.00
      direct lattice vectors                 reciprocal lattice vectors
     4.914966177 -8.512971136  0.000000000     0.101730100 -0.058733901  0.000000000
     4.914966177  8.512971136  0.000000000     0.101730100  0.058733901  0.000000000
     0.000000000  0.000000000 10.862602280     0.000000000  0.000000000  0.092058972

  length of vectors
     9.829932353  9.829932353 10.862602280     0.117467801  0.117467801  0.092058972


 
 k-points in units of 2pi/SCALE and weight: pymatgen with grid density = 1000 / numb
   0.00000000  0.00000000  0.00000000       0.031
   0.02543252 -0.01468348  0.00000000       0.062
   0.02543252  0.01468348  0.00000000       0.062
  -0.00000000  0.02936695  0.00000000       0.062
   0.05086505 -0.02936695  0.00000000       0.031
   0.05086505  0.02936695  0.00000000       0.031
   0.10173010  0.00000000  0.00000000       0.031
   0.05086505  0.00000000  0.00000000       0.062
   0.02543252  0.04405043  0.00000000       0.062
   0.07629757 -0.01468348  0.00000000       0.062
   0.00000000  0.00000000  0.04602949       0.031
   0.02543252 -0.01468348  0.04602949       0.062
   0.02543252  0.01468348  0.04602949       0.062
  -0.00000000  0.02936695  0.04602949       0.062
   0.05086505 -0.02936695  0.04602949       0.031
   0.05086505  0.02936695  0.04602949       0.031
   0.10173010  0.00000000  0.04602949       0.031
   0.05086505  0.00000000  0.04602949       0.062
   0.02543252  0.04405043  0.04602949       0.062
   0.07629757 -0.01468348  0.04602949       0.062
 
 k-points in reciprocal lattice and weights: pymatgen with grid density = 1000 / numb
   0.00000000  0.00000000  0.00000000       0.031
   0.25000000  0.00000000  0.00000000       0.062
   0.00000000  0.25000000  0.00000000       0.062
  -0.25000000  0.25000000  0.00000000       0.062
   0.50000000  0.00000000  0.00000000       0.031
   0.00000000  0.50000000  0.00000000       0.031
   0.50000000  0.50000000  0.00000000       0.031
   0.25000000  0.25000000  0.00000000       0.062
  -0.25000000  0.50000000  0.00000000       0.062
   0.50000000  0.25000000  0.00000000       0.062
   0.00000000  0.00000000  0.50000000       0.031
   0.25000000  0.00000000  0.50000000       0.062
   0.00000000  0.25000000  0.50000000       0.062
  -0.25000000  0.25000000  0.50000000       0.062
   0.50000000  0.00000000  0.50000000       0.031
   0.00000000  0.50000000  0.50000000       0.031
   0.50000000  0.50000000  0.50000000       0.031
   0.25000000  0.25000000  0.50000000       0.062
  -0.25000000  0.50000000  0.50000000       0.062
   0.50000000  0.25000000  0.50000000       0.062
 
 position of ions in fractional coordinates (direct lattice) 
   0.26554429  0.26554429  0.00000000
   0.26554429  0.76554429  0.00000000
   0.26554429  0.76554429  0.50000000
   0.76554429  0.26554429  0.00000000
   0.76554429  0.26554429  0.50000000
   0.76554429  0.76554429  0.00000000
   0.76554429  0.76554429  0.50000000
   0.00000000  0.23445571  0.33333333
   0.00000000  0.23445571  0.83333333
   0.00000000  0.73445571  0.33333333
   0.00000000  0.73445571  0.83333333
   0.50000000  0.23445571  0.33333333
   0.50000000  0.23445571  0.83333333
   0.50000000  0.73445571  0.33333333
   0.50000000  0.73445571  0.83333333
   0.23445571  0.00000000  0.16666667
   0.23445571  0.00000000  0.66666667
   0.23445571  0.50000000  0.16666667
   0.23445571  0.50000000  0.66666667
   0.73445571  0.00000000  0.16666667
   0.73445571  0.00000000  0.66666667
   0.73445571  0.50000000  0.16666667
   0.73445571  0.50000000  0.66666667
   0.13461155  0.20669714  0.39244549
   0.13461155  0.70669714  0.39244549
   0.13461155  0.70669714  0.89244549
   0.63461155  0.20669714  0.39244549
   0.63461155  0.20669714  0.89244549
   0.63461155  0.70669714  0.39244549
   0.63461155  0.70669714  0.89244549
   0.29330286  0.42791441  0.05911216
   0.29330286  0.42791441  0.55911216
   0.29330286  0.92791441  0.05911216
   0.29330286  0.92791441  0.55911216
   0.79330286  0.42791441  0.05911216
   0.79330286  0.42791441  0.55911216
   0.79330286  0.92791441  0.05911216
   0.79330286  0.92791441  0.55911216
   0.07208559  0.36538845  0.22577882
   0.07208559  0.36538845  0.72577882
   0.07208559  0.86538845  0.22577882
   0.07208559  0.86538845  0.72577882
   0.57208559  0.36538845  0.22577882
   0.57208559  0.36538845  0.72577882
   0.57208559  0.86538845  0.22577882
   0.57208559  0.86538845  0.72577882
   0.20669714  0.13461155  0.10755451
   0.20669714  0.13461155  0.60755451
   0.20669714  0.63461155  0.10755451
   0.20669714  0.63461155  0.60755451
   0.70669714  0.13461155  0.10755451
   0.70669714  0.13461155  0.60755451
   0.70669714  0.63461155  0.10755451
   0.70669714  0.63461155  0.60755451
   0.36538845  0.07208559  0.27422118
   0.36538845  0.07208559  0.77422118
   0.36538845  0.57208559  0.27422118
   0.36538845  0.57208559  0.77422118
   0.86538845  0.07208559  0.27422118
   0.86538845  0.07208559  0.77422118
   0.86538845  0.57208559  0.27422118
   0.86538845  0.57208559  0.77422118
   0.42791441  0.29330286  0.44088784
   0.42791441  0.29330286  0.94088784
   0.42791441  0.79330286  0.44088784
   0.42791441  0.79330286  0.94088784
   0.92791441  0.29330286  0.44088784
   0.92791441  0.29330286  0.94088784
   0.92791441  0.79330286  0.44088784
   0.92791441  0.79330286  0.94088784
 
 position of ions in cartesian coordinates  (Angst):
   2.61028246 -0.00000000  0.00000000
   5.06776555  4.25648557  0.00000000
   5.06776555  4.25648557  5.43130114
   5.06776555 -4.25648557  0.00000000
   5.06776555 -4.25648557  5.43130114
   7.52524863  0.00000000  0.00000000
   7.52524863  0.00000000  5.43130114
   1.15234186  1.99591465  3.62086743
   1.15234186  1.99591465  9.05216857
   3.60982495  6.25240022  3.62086743
   3.60982495  6.25240022  9.05216857
   3.60982495 -2.26057092  3.62086743
   3.60982495 -2.26057092  9.05216857
   6.06730804  1.99591465  3.62086743
   6.06730804  1.99591465  9.05216857
   1.15234186 -1.99591465  1.81043371
   1.15234186 -1.99591465  7.24173485
   3.60982495  2.26057092  1.81043371
   3.60982495  2.26057092  7.24173485
   3.60982495 -6.25240022  1.81043371
   3.60982495 -6.25240022  7.24173485
   6.06730804 -1.99591465  1.81043371
   6.06730804 -1.99591465  7.24173485
   1.67752072  0.61366255  4.26297927
   4.13500380  4.87014811  4.26297927
   4.13500380  4.87014811  9.69428041
   4.13500380 -3.64282302  4.26297927
   4.13500380 -3.64282302  9.69428041
   6.59248689  0.61366255  4.26297927
   6.59248689  0.61366255  9.69428041
   3.54475846  1.14594428  0.64211185
   3.54475846  1.14594428  6.07341299
   6.00224155  5.40242985  0.64211185
   6.00224155  5.40242985  6.07341299
   6.00224155 -3.11054129  0.64211185
   6.00224155 -3.11054129  6.07341299
   8.45972464  1.14594428  0.64211185
   8.45972464  1.14594428  6.07341299
   2.15017009  2.49687874  2.45254556
   2.15017009  2.49687874  7.88384670
   4.60765317  6.75336431  2.45254556
   4.60765317  6.75336431  7.88384670
   4.60765317 -1.75960683  2.45254556
   4.60765317 -1.75960683  7.88384670
   7.06513626  2.49687874  2.45254556
   7.06513626  2.49687874  7.88384670
   1.67752072 -0.61366255  1.16832187
   1.67752072 -0.61366255  6.59962301
   4.13500380  3.64282302  1.16832187
   4.13500380  3.64282302  6.59962301
   4.13500380 -4.87014811  1.16832187
   4.13500380 -4.87014811  6.59962301
   6.59248689 -0.61366255  1.16832187
   6.59248689 -0.61366255  6.59962301
   2.15017009 -2.49687874  2.97875558
   2.15017009 -2.49687874  8.41005672
   4.60765317  1.75960683  2.97875558
   4.60765317  1.75960683  8.41005672
   4.60765317 -6.75336431  2.97875558
   4.60765317 -6.75336431  8.41005672
   7.06513626 -2.49687874  2.97875558
   7.06513626 -2.49687874  8.41005672
   3.54475846 -1.14594428  4.78918929
   3.54475846 -1.14594428 10.22049043
   6.00224155  3.11054129  4.78918929
   6.00224155  3.11054129 10.22049043
   6.00224155 -5.40242985  4.78918929
   6.00224155 -5.40242985 10.22049043
   8.45972464 -1.14594428  4.78918929
   8.45972464 -1.14594428 10.22049043
 


--------------------------------------------------------------------------------------------------------


 k-point   1 :   0.0000 0.0000 0.0000  plane waves:   26579
 k-point   2 :   0.2500 0.0000 0.0000  plane waves:   26609
 k-point   3 :   0.0000 0.2500 0.0000  plane waves:   26609
 k-point   4 :  -0.2500 0.2500 0.0000  plane waves:   26609
 k-point   5 :   0.5000 0.0000 0.0000  plane waves:   26614
 k-point   6 :   0.0000 0.5000 0.0000  plane waves:   26614
 k-point   7 :   0.5000 0.5000 0.0000  plane waves:   26614
 k-point   8 :   0.2500 0.2500 0.0000  plane waves:   26641
 k-point   9 :  -0.2500 0.5000 0.0000  plane waves:   26641
 k-point  10 :   0.5000 0.2500 0.0000  plane waves:   26641
 k-point  11 :   0.0000 0.0000 0.5000  plane waves:   26718
 k-point  12 :   0.2500 0.0000 0.5000  plane waves:   26636
 k-point  13 :   0.0000 0.2500 0.5000  plane waves:   26636
 k-point  14 :  -0.2500 0.2500 0.5000  plane waves:   26636
 k-point  15 :   0.5000 0.0000 0.5000  plane waves:   26636
 k-point  16 :   0.0000 0.5000 0.5000  plane waves:   26636
 k-point  17 :   0.5000 0.5000 0.5000  plane waves:   26636
 k-point  18 :   0.2500 0.2500 0.5000  plane waves:   26596
 k-point  19 :  -0.2500 0.5000 0.5000  plane waves:   26596
 k-point  20 :   0.5000 0.2500 0.5000  plane waves:   26596

 maximum and minimum number of plane-waves per node :     26718    26579

 maximum number of plane-waves:     26718
 maximum index in each direction: 
   IXMAX=   19   IYMAX=   18   IZMAX=   20
   IXMIN=  -19   IYMIN=  -19   IZMIN=  -21


 serial   3D FFT for wavefunctions
 parallel 3D FFT for charge:
    minimum data exchange during FFTs selected (reduces bandwidth)


 total amount of memory used by VASP MPI-rank0   166467. kBytes
=======================================================================

   base      :      30000. kBytes
   nonl-proj :      98565. kBytes
   fftplans  :       1721. kBytes
   grid      :       9701. kBytes
   one-center:        215. kBytes
   wavefun   :      26265. kBytes
 
     INWAV:  cpu time      0.0000: real time      0.0006
 Broyden mixing: mesh for mixing (old mesh)
   NGX = 37   NGY = 37   NGZ = 41
  (NGX  =112   NGY  =112   NGZ  =128)
  gives a total of  56129 points

 initial charge density was supplied:
 charge density of overlapping atoms calculated
 number of electron     374.0000000 magnetization 
 keeping initial charge density in first step


--------------------------------------------------------------------------------------------------------


 Maximum index for augmentation-charges          412 (set IRDMAX)


--------------------------------------------------------------------------------------------------------


 First call to EWALD:  gamma=   0.183
 Maximum number of real-space cells 3x 3x 3
 Maximum number of reciprocal cells 3x 3x 3

    FEWALD:  cpu time      0.0023: real time      0.0023


--------------------------------------- Iteration      1(   1)  ---------------------------------------


    POTLOK:  cpu time      0.0163: real time      0.0168
    SETDIJ:  cpu time      0.0025: real time      0.0025
     EDDAV:  cpu time     14.8305: real time     14.9167
       DOS:  cpu time      0.0046: real time      0.0046
    --------------------------------------------
      LOOP:  cpu time     14.8540: real time     14.9407

 eigenvalue-minimisations  : 11520
 total energy-change (2. order) : 0.1946814E+04  (-0.2031455E+05)
 number of electron     374.0000000 magnetization 
 augmentation part      374.0000000 magnetization 

 Free energy of the ion-electron system (eV)
  ---------------------------------------------------
  alpha Z        PSCENC =       527.48178200
  Ewald energy   TEWEN  =    -14529.27944803
  -Hartree energ DENC   =     -7470.65410749
  -exchange      EXHF   =         0.00000000
  -V(xc)+E(xc)   XCENC  =      1108.30413461
  PAW double counting   =     18314.67280499   -17994.56484431
  entropy T*S    EENTRO =        -0.01093551
  eigenvalues    EBANDS =      -700.55679431
  atomic energy  EATOM  =     22691.42155104
  Solvation  Ediel_sol  =         0.00000000
  ---------------------------------------------------
  free energy    TOTEN  =      1946.81414299 eV

  energy without entropy =     1946.82507850  energy(sigma->0) =     1946.81961074


--------------------------------------------------------------------------------------------------------




--------------------------------------- Iteration      1(   2)  ---------------------------------------


     EDDAV:  cpu time     19.3135: real time     19.4160
       DOS:  cpu time      0.0041: real time      0.0041
    --------------------------------------------
      LOOP:  cpu time     19.3176: real time     19.4200

 eigenvalue-minimisations  : 16992
 total energy-change (2. order) :-0.2440922E+04  (-0.2366618E+04)
 number of electron     374.0000000 magnetization 
 augmentation part      374.0000000 magnetization 

 Free energy of the ion-electron system (eV)
  ---------------------------------------------------
  alpha Z        PSCENC =       527.48178200
  Ewald energy   TEWEN  =    -14529.27944803
  -Hartree energ DENC   =     -7470.65410749
  -exchange      EXHF   =         0.00000000
  -V(xc)+E(xc)   XCENC  =      1108.30413461
  PAW double counting   =     18314.67280499   -17994.56484431
  entropy T*S    EENTRO =        -0.02134720
  eigenvalues    EBANDS =     -3141.46841079
  atomic energy  EATOM  =     22691.42155104
  Solvation  Ediel_sol  =         0.00000000
  ---------------------------------------------------
  free energy    TOTEN  =      -494.10788518 eV

  energy without entropy =     -494.08653798  energy(sigma->0) =     -494.09721158


--------------------------------------------------------------------------------------------------------




--------------------------------------- Iteration      1(   3)  ---------------------------------------


     EDDAV:  cpu time     17.2350: real time     17.3309
       DOS:  cpu time      0.0037: real time      0.0037
    --------------------------------------------
      LOOP:  cpu time     17.2387: real time     17.3346

 eigenvalue-minimisations  : 15360
 total energy-change (2. order) :-0.1147994E+03  (-0.1144395E+03)
 number of electron     374.0000000 magnetization 
 augmentation part      374.0000000 magnetization 

 Free energy of the ion-electron system (eV)
  ---------------------------------------------------
  alpha Z        PSCENC =       527.48178200
  Ewald energy   TEWEN  =    -14529.27944803
  -Hartree energ DENC   =     -7470.65410749
  -exchange      EXHF   =         0.00000000
  -V(xc)+E(xc)   XCENC  =      1108.30413461
  PAW double counting   =     18314.67280499   -17994.56484431
  entropy T*S    EENTRO =        -0.02761446
  eigenvalues    EBANDS =     -3256.26157935
  atomic energy  EATOM  =     22691.42155104
  Solvation  Ediel_sol  =         0.00000000
  ---------------------------------------------------
  free energy    TOTEN  =      -608.90732100 eV

  energy without entropy =     -608.87970654  energy(sigma->0) =     -608.89351377


--------------------------------------------------------------------------------------------------------




--------------------------------------- Iteration      1(   4)  ---------------------------------------


     EDDAV:  cpu time     14.3856: real time     14.4641
       DOS:  cpu time      0.0024: real time      0.0024
    --------------------------------------------
      LOOP:  cpu time     14.3880: real time     14.4665

 eigenvalue-minimisations  : 13344
 total energy-change (2. order) :-0.9748455E+00  (-0.9747568E+00)
 number of electron     374.0000000 magnetization 
 augmentation part      374.0000000 magnetization 

 Free energy of the ion-electron system (eV)
  ---------------------------------------------------
  alpha Z        PSCENC =       527.48178200
  Ewald energy   TEWEN  =    -14529.27944803
  -Hartree energ DENC   =     -7470.65410749
  -exchange      EXHF   =         0.00000000
  -V(xc)+E(xc)   XCENC  =      1108.30413461
  PAW double counting   =     18314.67280499   -17994.56484431
  entropy T*S    EENTRO =        -0.02763361
  eigenvalues    EBANDS =     -3257.23640574
  atomic energy  EATOM  =     22691.42155104
  Solvation  Ediel_sol  =         0.00000000
  ---------------------------------------------------
  free energy    TOTEN  =      -609.88216654 eV

  energy without entropy =     -609.85453293  energy(sigma->0) =     -609.86834974


--------------------------------------------------------------------------------------------------------




--------------------------------------- Iteration      1(   5)  ---------------------------------------


     EDDAV:  cpu time     21.2434: real time     21.3510
       DOS:  cpu time      0.0037: real time      0.0037
    CHARGE:  cpu time      0.0821: real time      0.0826
    MIXING:  cpu time      0.0017: real time      0.0027
    --------------------------------------------
      LOOP:  cpu time     21.3309: real time     21.4400

 eigenvalue-minimisations  : 15840
 total energy-change (2. order) :-0.1097205E-01  (-0.1097191E-01)
 number of electron     377.0000060 magnetization 
 augmentation part       35.0800756 magnetization 

 Broyden mixing:
  rms(total) = 0.71262E+01    rms(broyden)= 0.71246E+01
  rms(prec ) = 0.83843E+01
  weight for this iteration     100.00

 Free energy of the ion-electron system (eV)
  ---------------------------------------------------
  alpha Z        PSCENC =       527.48178200
  Ewald energy   TEWEN  =    -14529.27944803
  -Hartree energ DENC   =     -7470.65410749
  -exchange      EXHF   =         0.00000000
  -V(xc)+E(xc)   XCENC  =      1108.30413461
  PAW double counting   =     18314.67280499   -17994.56484431
  entropy T*S    EENTRO =        -0.02763389
  eigenvalues    EBANDS =     -3257.24737752
  atomic energy  EATOM  =     22691.42155104
  Solvation  Ediel_sol  =         0.00000000
  ---------------------------------------------------
  free energy    TOTEN  =      -609.89313859 eV

  energy without entropy =     -609.86550470  energy(sigma->0) =     -609.87932165


--------------------------------------------------------------------------------------------------------




--------------------------------------- Iteration      1(   6)  ---------------------------------------


    POTLOK:  cpu time      0.0126: real time      0.0128
    SETDIJ:  cpu time      0.0017: real time      0.0017
     EDDAV:  cpu time     17.1415: real time     17.2327
       DOS:  cpu time      0.0033: real time      0.0033
    CHARGE:  cpu time      0.0810: real time      0.0817
    MIXING:  cpu time      0.0006: real time      0.0008
    --------------------------------------------
      LOOP:  cpu time     17.2407: real time     17.3329

 eigenvalue-minimisations  : 15360
 total energy-change (2. order) : 0.6304129E+02  (-0.6892233E+01)
 number of electron     377.0000053 magnetization 
 augmentation part       31.3118538 magnetization 

 Broyden mixing:
  rms(total) = 0.48089E+01    rms(broyden)= 0.48088E+01
  rms(prec ) = 0.53517E+01
  weight for this iteration     100.00

 eigenvalues of (default mixing * dielectric matrix)
  average eigenvalue GAMMA=   2.1246
  2.1246

 Free energy of the ion-electron system (eV)
  ---------------------------------------------------
  alpha Z        PSCENC =       527.48178200
  Ewald energy   TEWEN  =    -14529.27944803
  -Hartree energ DENC   =     -7897.87234415
  -exchange      EXHF   =         0.00000000
  -V(xc)+E(xc)   XCENC  =      1146.06394604
  PAW double counting   =     24050.56256933   -23738.86913702
  entropy T*S    EENTRO =        -0.04464421
  eigenvalues    EBANDS =     -2796.31611925
  atomic energy  EATOM  =     22691.42155104
  Solvation  Ediel_sol  =         0.00000000
  ---------------------------------------------------
  free energy    TOTEN  =      -546.85184426 eV

  energy without entropy =     -546.80720004  energy(sigma->0) =     -546.82952215


--------------------------------------------------------------------------------------------------------




--------------------------------------- Iteration      1(   7)  ---------------------------------------


    POTLOK:  cpu time      0.0130: real time      0.0136
    SETDIJ:  cpu time      0.0017: real time      0.0017
     EDDAV:  cpu time     17.4191: real time     17.5075
       DOS:  cpu time      0.0034: real time      0.0034
    CHARGE:  cpu time      0.0807: real time      0.0811
    MIXING:  cpu time      0.0005: real time      0.0006
    --------------------------------------------
      LOOP:  cpu time     17.5184: real time     17.6080

 eigenvalue-minimisations  : 15360
 total energy-change (2. order) : 0.2042015E+02  (-0.7932198E+01)
 number of electron     377.0000047 magnetization 
 augmentation part       27.5102847 magnetization 

 Broyden mixing:
  rms(total) = 0.22350E+01    rms(broyden)= 0.22346E+01
  rms(prec ) = 0.23695E+01
  weight for this iteration     100.00

 eigenvalues of (default mixing * dielectric matrix)
  average eigenvalue GAMMA=   2.0297
  1.9141  2.1453

 Free energy of the ion-electron system (eV)
  ---------------------------------------------------
  alpha Z        PSCENC =       527.48178200
  Ewald energy   TEWEN  =    -14529.27944803
  -Hartree energ DENC   =     -8377.41250323
  -exchange      EXHF   =         0.00000000
  -V(xc)+E(xc)   XCENC  =      1178.34387476
  PAW double counting   =     39057.88545100   -38754.88278427
  entropy T*S    EENTRO =        -0.04132917
  eigenvalues    EBANDS =     -2319.94829109
  atomic energy  EATOM  =     22691.42155104
  Solvation  Ediel_sol  =         0.00000000
  ---------------------------------------------------
  free energy    TOTEN  =      -526.43169698 eV

  energy without entropy =     -526.39036782  energy(sigma->0) =     -526.41103240


--------------------------------------------------------------------------------------------------------




--------------------------------------- Iteration      1(   8)  ---------------------------------------


    POTLOK:  cpu time      0.0126: real time      0.0133
    SETDIJ:  cpu time      0.0018: real time      0.0018
     EDDAV:  cpu time     19.9769: real time     20.0924
       DOS:  cpu time      0.0049: real time      0.0049
    CHARGE:  cpu time      0.0824: real time      0.0830
    MIXING:  cpu time      0.0006: real time      0.0007
    --------------------------------------------
      LOOP:  cpu time     20.0792: real time     20.1960

 eigenvalue-minimisations  : 15360
 total energy-change (2. order) :-0.1860778E+00  (-0.1403704E+01)
 number of electron     377.0000047 magnetization 
 augmentation part       27.3873820 magnetization 

 Broyden mixing:
  rms(total) = 0.12978E+01    rms(broyden)= 0.12976E+01
  rms(prec ) = 0.14810E+01
  weight for this iteration     100.00

 eigenvalues of (default mixing * dielectric matrix)
  average eigenvalue GAMMA=   1.7903
  2.5064  2.2069  0.6576

 Free energy of the ion-electron system (eV)
  ---------------------------------------------------
  alpha Z        PSCENC =       527.48178200
  Ewald energy   TEWEN  =    -14529.27944803
  -Hartree energ DENC   =     -8423.61142060
  -exchange      EXHF   =         0.00000000
  -V(xc)+E(xc)   XCENC  =      1181.67019401
  PAW double counting   =     48129.78923464   -47826.93951268
  entropy T*S    EENTRO =        -0.02935330
  eigenvalues    EBANDS =     -2277.12080186
  atomic energy  EATOM  =     22691.42155104
  Solvation  Ediel_sol  =         0.00000000
  ---------------------------------------------------
  free energy    TOTEN  =      -526.61777476 eV

  energy without entropy =     -526.58842146  energy(sigma->0) =     -526.60309811


--------------------------------------------------------------------------------------------------------




--------------------------------------- Iteration      1(   9)  ---------------------------------------


    POTLOK:  cpu time      0.0128: real time      0.0133
    SETDIJ:  cpu time      0.0015: real time      0.0015
     EDDAV:  cpu time     17.8775: real time     17.9685
       DOS:  cpu time      0.0034: real time      0.0034
    CHARGE:  cpu time      0.0802: real time      0.0807
    MIXING:  cpu time      0.0005: real time      0.0005
    --------------------------------------------
      LOOP:  cpu time     17.9759: real time     18.0680

 eigenvalue-minimisations  : 16320
 total energy-change (2. order) : 0.6417496E+00  (-0.2597547E+00)
 number of electron     377.0000050 magnetization 
 augmentation part       27.4614131 magnetization 

 Broyden mixing:
  rms(total) = 0.83667E+00    rms(broyden)= 0.83640E+00
  rms(prec ) = 0.97124E+00
  weight for this iteration     100.00

 eigenvalues of (default mixing * dielectric matrix)
  average eigenvalue GAMMA=   1.6718
  3.1597  2.1320  0.6977  0.6977

 Free energy of the ion-electron system (eV)
  ---------------------------------------------------
  alpha Z        PSCENC =       527.48178200
  Ewald energy   TEWEN  =    -14529.27944803
  -Hartree energ DENC   =     -8437.63873226
  -exchange      EXHF   =         0.00000000
  -V(xc)+E(xc)   XCENC  =      1182.79859419
  PAW double counting   =     53131.92971340   -52828.97566660
  entropy T*S    EENTRO =        -0.02798683
  eigenvalues    EBANDS =     -2263.68583211
  atomic energy  EATOM  =     22691.42155104
  Solvation  Ediel_sol  =         0.00000000
  ---------------------------------------------------
  free energy    TOTEN  =      -525.97602519 eV

  energy without entropy =     -525.94803836  energy(sigma->0) =     -525.96203178


--------------------------------------------------------------------------------------------------------




--------------------------------------- Iteration      1(  10)  ---------------------------------------


    POTLOK:  cpu time      0.0111: real time      0.0117
    SETDIJ:  cpu time      0.0014: real time      0.0014
     EDDAV:  cpu time     16.9063: real time     17.0395
       DOS:  cpu time      0.0033: real time      0.0033
    CHARGE:  cpu time      0.0810: real time      0.0815
    MIXING:  cpu time      0.0005: real time      0.0005
    --------------------------------------------
      LOOP:  cpu time     17.0036: real time     17.1379

 eigenvalue-minimisations  : 15360
 total energy-change (2. order) : 0.1731685E+00  (-0.2557473E+00)
 number of electron     377.0000047 magnetization 
 augmentation part       27.5064788 magnetization 

 Broyden mixing:
  rms(total) = 0.58532E+00    rms(broyden)= 0.58502E+00
  rms(prec ) = 0.72396E+00
  weight for this iteration     100.00

 eigenvalues of (default mixing * dielectric matrix)
  average eigenvalue GAMMA=   1.7378
  4.2240  2.0773  1.1714  0.7691  0.4473

 Free energy of the ion-electron system (eV)
  ---------------------------------------------------
  alpha Z        PSCENC =       527.48178200
  Ewald energy   TEWEN  =    -14529.27944803
  -Hartree energ DENC   =     -8450.27244245
  -exchange      EXHF   =         0.00000000
  -V(xc)+E(xc)   XCENC  =      1183.80664860
  PAW double counting   =     56434.25167123   -56131.29984124
  entropy T*S    EENTRO =        -0.03282340
  eigenvalues    EBANDS =     -2251.87995440
  atomic energy  EATOM  =     22691.42155104
  Solvation  Ediel_sol  =         0.00000000
  ---------------------------------------------------
  free energy    TOTEN  =      -525.80285665 eV

  energy without entropy =     -525.77003325  energy(sigma->0) =     -525.78644495


--------------------------------------------------------------------------------------------------------




--------------------------------------- Iteration      1(  11)  ---------------------------------------


    POTLOK:  cpu time      0.0122: real time      0.0128
    SETDIJ:  cpu time      0.0015: real time      0.0015
     EDDAV:  cpu time     21.1602: real time     21.2722
       DOS:  cpu time      0.0038: real time      0.0038
    CHARGE:  cpu time      0.0798: real time      0.0804
    MIXING:  cpu time      0.0005: real time      0.0005
    --------------------------------------------
      LOOP:  cpu time     21.2580: real time     21.3713

 eigenvalue-minimisations  : 17088
 total energy-change (2. order) :-0.1551098E+00  (-0.4988835E+00)
 number of electron     377.0000046 magnetization 
 augmentation part       27.5309543 magnetization 

 Broyden mixing:
  rms(total) = 0.51291E+00    rms(broyden)= 0.51253E+00
  rms(prec ) = 0.69572E+00
  weight for this iteration     100.00

 eigenvalues of (default mixing * dielectric matrix)
  average eigenvalue GAMMA=   1.5823
  4.4537  2.0969  1.2863  0.6376  0.6376  0.3819

 Free energy of the ion-electron system (eV)
  ---------------------------------------------------
  alpha Z        PSCENC =       527.48178200
  Ewald energy   TEWEN  =    -14529.27944803
  -Hartree energ DENC   =     -8469.32286698
  -exchange      EXHF   =         0.00000000
  -V(xc)+E(xc)   XCENC  =      1185.30646223
  PAW double counting   =     60321.54014778   -60018.66988681
  entropy T*S    EENTRO =        -0.03502834
  eigenvalues    EBANDS =     -2234.40067934
  atomic energy  EATOM  =     22691.42155104
  Solvation  Ediel_sol  =         0.00000000
  ---------------------------------------------------
  free energy    TOTEN  =      -525.95796645 eV

  energy without entropy =     -525.92293811  energy(sigma->0) =     -525.94045228


--------------------------------------------------------------------------------------------------------




--------------------------------------- Iteration      1(  12)  ---------------------------------------


    POTLOK:  cpu time      0.0116: real time      0.0122
    SETDIJ:  cpu time      0.0016: real time      0.0016
     EDDAV:  cpu time     18.3996: real time     18.5061
       DOS:  cpu time      0.0029: real time      0.0029
    CHARGE:  cpu time      0.0805: real time      0.0811
    MIXING:  cpu time      0.0006: real time      0.0006
    --------------------------------------------
      LOOP:  cpu time     18.4969: real time     18.6045

 eigenvalue-minimisations  : 17088
 total energy-change (2. order) : 0.2166009E+00  (-0.7549930E-01)
 number of electron     377.0000047 magnetization 
 augmentation part       27.5407644 magnetization 

 Broyden mixing:
  rms(total) = 0.23683E+00    rms(broyden)= 0.23656E+00
  rms(prec ) = 0.29329E+00
  weight for this iteration     100.00

 eigenvalues of (default mixing * dielectric matrix)
  average eigenvalue GAMMA=   1.4882
  4.5794  2.0955  1.4267  0.5948  0.5948  0.6715  0.4548

 Free energy of the ion-electron system (eV)
  ---------------------------------------------------
  alpha Z        PSCENC =       527.48178200
  Ewald energy   TEWEN  =    -14529.27944803
  -Hartree energ DENC   =     -8474.20064759
  -exchange      EXHF   =         0.00000000
  -V(xc)+E(xc)   XCENC  =      1185.70404930
  PAW double counting   =     61245.93394755   -60943.08251792
  entropy T*S    EENTRO =        -0.04328205
  eigenvalues    EBANDS =     -2229.67679984
  atomic energy  EATOM  =     22691.42155104
  Solvation  Ediel_sol  =         0.00000000
  ---------------------------------------------------
  free energy    TOTEN  =      -525.74136553 eV

  energy without entropy =     -525.69808348  energy(sigma->0) =     -525.71972451


--------------------------------------------------------------------------------------------------------




--------------------------------------- Iteration      1(  13)  ---------------------------------------


    POTLOK:  cpu time      0.0110: real time      0.0116
    SETDIJ:  cpu time      0.0015: real time      0.0015
     EDDAV:  cpu time     16.2131: real time     16.3011
       DOS:  cpu time      0.0030: real time      0.0030
    CHARGE:  cpu time      0.0811: real time      0.0816
    MIXING:  cpu time      0.0006: real time      0.0006
    --------------------------------------------
      LOOP:  cpu time     16.3102: real time     16.3993

 eigenvalue-minimisations  : 15360
 total energy-change (2. order) :-0.1153278E-01  (-0.2492014E-01)
 number of electron     377.0000047 magnetization 
 augmentation part       27.5252685 magnetization 

 Broyden mixing:
  rms(total) = 0.26385E+00    rms(broyden)= 0.26371E+00
  rms(prec ) = 0.35438E+00
  weight for this iteration     100.00

 eigenvalues of (default mixing * dielectric matrix)
  average eigenvalue GAMMA=   1.3934
  4.5641  2.1285  1.4357  0.7824  0.7824  0.5251  0.5251  0.4038

 Free energy of the ion-electron system (eV)
  ---------------------------------------------------
  alpha Z        PSCENC =       527.48178200
  Ewald energy   TEWEN  =    -14529.27944803
  -Hartree energ DENC   =     -8479.27052935
  -exchange      EXHF   =         0.00000000
  -V(xc)+E(xc)   XCENC  =      1186.07824533
  PAW double counting   =     61495.75792266   -61192.96819510
  entropy T*S    EENTRO =        -0.04393946
  eigenvalues    EBANDS =     -2224.93028742
  atomic energy  EATOM  =     22691.42155104
  Solvation  Ediel_sol  =         0.00000000
  ---------------------------------------------------
  free energy    TOTEN  =      -525.75289831 eV

  energy without entropy =     -525.70895885  energy(sigma->0) =     -525.73092858


--------------------------------------------------------------------------------------------------------




--------------------------------------- Iteration      1(  14)  ---------------------------------------


    POTLOK:  cpu time      0.0123: real time      0.0129
    SETDIJ:  cpu time      0.0016: real time      0.0016
     EDDAV:  cpu time     21.4633: real time     21.5686
       DOS:  cpu time      0.0040: real time      0.0041
    CHARGE:  cpu time      0.1149: real time      0.1160
    MIXING:  cpu time      0.0006: real time      0.0006
    --------------------------------------------
      LOOP:  cpu time     21.5968: real time     21.7038

 eigenvalue-minimisations  : 17280
 total energy-change (2. order) : 0.6395105E-03  (-0.7151356E-01)
 number of electron     377.0000048 magnetization 
 augmentation part       27.5243233 magnetization 

 Broyden mixing:
  rms(total) = 0.22646E+00    rms(broyden)= 0.22617E+00
  rms(prec ) = 0.31781E+00
  weight for this iteration     100.00

 eigenvalues of (default mixing * dielectric matrix)
  average eigenvalue GAMMA=   1.3703
  4.6755  2.1965  1.6931  0.8009  0.8009  0.8460  0.4829  0.4829  0.3539

 Free energy of the ion-electron system (eV)
  ---------------------------------------------------
  alpha Z        PSCENC =       527.48178200
  Ewald energy   TEWEN  =    -14529.27944803
  -Hartree energ DENC   =     -8480.19669034
  -exchange      EXHF   =         0.00000000
  -V(xc)+E(xc)   XCENC  =      1186.14170184
  PAW double counting   =     61372.24016576   -61069.46069958
  entropy T*S    EENTRO =        -0.04389738
  eigenvalues    EBANDS =     -2224.05672413
  atomic energy  EATOM  =     22691.42155104
  Solvation  Ediel_sol  =         0.00000000
  ---------------------------------------------------
  free energy    TOTEN  =      -525.75225880 eV

  energy without entropy =     -525.70836142  energy(sigma->0) =     -525.73031011


--------------------------------------------------------------------------------------------------------




--------------------------------------- Iteration      1(  15)  ---------------------------------------


    POTLOK:  cpu time      0.0117: real time      0.0122
    SETDIJ:  cpu time      0.0015: real time      0.0015
     EDDAV:  cpu time     19.0504: real time     19.1437
       DOS:  cpu time      0.0040: real time      0.0040
    CHARGE:  cpu time      0.0792: real time      0.0798
    MIXING:  cpu time      0.0006: real time      0.0006
    --------------------------------------------
      LOOP:  cpu time     19.1475: real time     19.2419

 eigenvalue-minimisations  : 17280
 total energy-change (2. order) :-0.2320143E-01  (-0.8619683E-01)
 number of electron     377.0000047 magnetization 
 augmentation part       27.5134782 magnetization 

 Broyden mixing:
  rms(total) = 0.32197E+00    rms(broyden)= 0.32163E+00
  rms(prec ) = 0.43566E+00
  weight for this iteration     100.00

 eigenvalues of (default mixing * dielectric matrix)
  average eigenvalue GAMMA=   1.3643
  4.8029  2.6384  1.9327  1.0373  0.8297  0.8297  0.4662  0.4662  0.4223  0.2177

 Free energy of the ion-electron system (eV)
  ---------------------------------------------------
  alpha Z        PSCENC =       527.48178200
  Ewald energy   TEWEN  =    -14529.27944803
  -Hartree energ DENC   =     -8483.97962354
  -exchange      EXHF   =         0.00000000
  -V(xc)+E(xc)   XCENC  =      1186.41827010
  PAW double counting   =     61429.91439275   -61127.17791769
  entropy T*S    EENTRO =        -0.03776001
  eigenvalues    EBANDS =     -2220.53670686
  atomic energy  EATOM  =     22691.42155104
  Solvation  Ediel_sol  =         0.00000000
  ---------------------------------------------------
  free energy    TOTEN  =      -525.77546023 eV

  energy without entropy =     -525.73770022  energy(sigma->0) =     -525.75658023


--------------------------------------------------------------------------------------------------------




--------------------------------------- Iteration      1(  16)  ---------------------------------------


    POTLOK:  cpu time      0.0110: real time      0.0115
    SETDIJ:  cpu time      0.0016: real time      0.0016
     EDDAV:  cpu time     18.3265: real time     18.4168
       DOS:  cpu time      0.0040: real time      0.0040
    CHARGE:  cpu time      0.0797: real time      0.0803
    MIXING:  cpu time      0.0007: real time      0.0007
    --------------------------------------------
      LOOP:  cpu time     18.4234: real time     18.5149

 eigenvalue-minimisations  : 17280
 total energy-change (2. order) : 0.6346383E-02  (-0.5715207E-02)
 number of electron     377.0000047 magnetization 
 augmentation part       27.5020847 magnetization 

 Broyden mixing:
  rms(total) = 0.24189E+00    rms(broyden)= 0.24182E+00
  rms(prec ) = 0.34064E+00
  weight for this iteration     100.00

 eigenvalues of (default mixing * dielectric matrix)
  average eigenvalue GAMMA=   1.4741
  4.9711  4.1674  1.9631  1.1873  0.7334  0.7334  0.7908  0.5811  0.3965  0.3965
  0.2949

 Free energy of the ion-electron system (eV)
  ---------------------------------------------------
  alpha Z        PSCENC =       527.48178200
  Ewald energy   TEWEN  =    -14529.27944803
  -Hartree energ DENC   =     -8487.12808792
  -exchange      EXHF   =         0.00000000
  -V(xc)+E(xc)   XCENC  =      1186.64817597
  PAW double counting   =     61361.04977024   -61058.34955415
  entropy T*S    EENTRO =        -0.04386989
  eigenvalues    EBANDS =     -2217.56943311
  atomic energy  EATOM  =     22691.42155104
  Solvation  Ediel_sol  =         0.00000000
  ---------------------------------------------------
  free energy    TOTEN  =      -525.76911385 eV

  energy without entropy =     -525.72524397  energy(sigma->0) =     -525.74717891


--------------------------------------------------------------------------------------------------------




--------------------------------------- Iteration      1(  17)  ---------------------------------------


    POTLOK:  cpu time      0.0121: real time      0.0126
    SETDIJ:  cpu time      0.0015: real time      0.0015
     EDDAV:  cpu time     19.4281: real time     19.5358
       DOS:  cpu time      0.0035: real time      0.0035
    CHARGE:  cpu time      0.0812: real time      0.0817
    MIXING:  cpu time      0.0007: real time      0.0007
    --------------------------------------------
      LOOP:  cpu time     19.5270: real time     19.6358

 eigenvalue-minimisations  : 15360
 total energy-change (2. order) : 0.1338787E-01  (-0.2672625E-01)
 number of electron     377.0000047 magnetization 
 augmentation part       27.4994248 magnetization 

 Broyden mixing:
  rms(total) = 0.13163E+00    rms(broyden)= 0.13128E+00
  rms(prec ) = 0.17539E+00
  weight for this iteration     100.00

 eigenvalues of (default mixing * dielectric matrix)
  average eigenvalue GAMMA=   1.3661
  5.0573  3.9433  1.9766  1.1357  0.8126  0.8126  0.6328  0.6328  0.3788  0.3788
  0.3759  0.2562

 Free energy of the ion-electron system (eV)
  ---------------------------------------------------
  alpha Z        PSCENC =       527.48178200
  Ewald energy   TEWEN  =    -14529.27944803
  -Hartree energ DENC   =     -8489.41045256
  -exchange      EXHF   =         0.00000000
  -V(xc)+E(xc)   XCENC  =      1186.80851012
  PAW double counting   =     60930.49808573   -60627.81633607
  entropy T*S    EENTRO =        -0.04533367
  eigenvalues    EBANDS =     -2215.41408454
  atomic energy  EATOM  =     22691.42155104
  Solvation  Ediel_sol  =         0.00000000
  ---------------------------------------------------
  free energy    TOTEN  =      -525.75572599 eV

  energy without entropy =     -525.71039232  energy(sigma->0) =     -525.73305915


--------------------------------------------------------------------------------------------------------




--------------------------------------- Iteration      1(  18)  ---------------------------------------


    POTLOK:  cpu time      0.0117: real time      0.0123
    SETDIJ:  cpu time      0.0014: real time      0.0014
     EDDAV:  cpu time     16.7538: real time     16.8352
       DOS:  cpu time      0.0040: real time      0.0040
    CHARGE:  cpu time      0.0794: real time      0.0800
    MIXING:  cpu time      0.0007: real time      0.0007
    --------------------------------------------
      LOOP:  cpu time     16.8510: real time     16.9336

 eigenvalue-minimisations  : 15360
 total energy-change (2. order) : 0.2449472E-02  (-0.5682249E-02)
 number of electron     377.0000047 magnetization 
 augmentation part       27.4970457 magnetization 

 Broyden mixing:
  rms(total) = 0.92611E-01    rms(broyden)= 0.92539E-01
  rms(prec ) = 0.12690E+00
  weight for this iteration     100.00

 eigenvalues of (default mixing * dielectric matrix)
  average eigenvalue GAMMA=   1.3812
  5.0539  4.2013  1.9623  1.1974  0.8993  0.8993  0.7882  0.7882  0.5978  0.4526
  0.4526  0.3636  0.2985

 Free energy of the ion-electron system (eV)
  ---------------------------------------------------
  alpha Z        PSCENC =       527.48178200
  Ewald energy   TEWEN  =    -14529.27944803
  -Hartree energ DENC   =     -8489.75032288
  -exchange      EXHF   =         0.00000000
  -V(xc)+E(xc)   XCENC  =      1186.83266297
  PAW double counting   =     60995.30703382   -60692.62927590
  entropy T*S    EENTRO =        -0.04676920
  eigenvalues    EBANDS =     -2215.09049034
  atomic energy  EATOM  =     22691.42155104
  Solvation  Ediel_sol  =         0.00000000
  ---------------------------------------------------
  free energy    TOTEN  =      -525.75327651 eV

  energy without entropy =     -525.70650732  energy(sigma->0) =     -525.72989192


--------------------------------------------------------------------------------------------------------




--------------------------------------- Iteration      1(  19)  ---------------------------------------


    POTLOK:  cpu time      0.0121: real time      0.0127
    SETDIJ:  cpu time      0.0015: real time      0.0015
     EDDAV:  cpu time     18.2733: real time     18.3606
       DOS:  cpu time      0.0029: real time      0.0029
    CHARGE:  cpu time      0.0790: real time      0.0795
    MIXING:  cpu time      0.0007: real time      0.0007
    --------------------------------------------
      LOOP:  cpu time     18.3695: real time     18.4579

 eigenvalue-minimisations  : 17280
 total energy-change (2. order) : 0.1558398E-02  (-0.2954673E-02)
 number of electron     377.0000047 magnetization 
 augmentation part       27.4992688 magnetization 

 Broyden mixing:
  rms(total) = 0.61780E-01    rms(broyden)= 0.61725E-01
  rms(prec ) = 0.79108E-01
  weight for this iteration     100.00

[...]
   -.512E+01 0.578E+01 -.239E+01   0.100E+02 -.184E+02 0.864E+01   -.267E+01 0.817E+01 -.340E+01   0.132E-02 -.272E-02 0.933E-03
   -.422E+02 0.119E+03 -.471E+02   0.440E+02 -.117E+03 0.451E+02   0.484E+00 -.442E+01 0.229E+01   0.101E-03 0.887E-03 0.667E-03
   -.296E+01 -.898E+00 -.978E+00   0.355E+01 0.112E+01 0.182E+01   -.908E-01 -.111E+00 -.193E+00   -.148E-03 -.674E-04 -.379E-03
   -.647E+01 -.496E+01 -.260E+01   0.823E+01 0.550E+01 -.179E+00   -.111E+01 -.458E+00 0.149E+01   -.735E-03 -.323E-03 0.700E-03
   0.906E+01 -.567E+01 0.591E+00   -.939E+01 0.159E+02 0.110E+02   -.313E+00 -.633E+01 -.716E+01   0.141E-03 0.358E-03 -.368E-03
   0.128E+02 -.182E+02 0.772E-01   -.140E+02 0.187E+02 -.228E+01   0.219E+00 -.603E-01 0.605E+00   0.861E-03 -.388E-03 0.101E-02
   0.603E+01 0.559E+01 -.212E+01   -.719E+01 -.547E+01 0.296E+01   0.169E+00 -.403E+00 -.322E-03   -.380E-03 -.946E-04 0.586E-04
   0.560E+01 0.621E+01 -.453E+00   -.800E+01 -.595E+01 -.126E+01   0.118E+01 -.278E+00 0.733E+00   -.260E-03 -.188E-03 -.493E-04
   -.171E+01 -.162E+02 0.875E+01   0.377E+01 0.158E+02 -.637E+01   -.110E+01 0.583E+00 -.707E+00   0.863E-04 0.692E-03 0.654E-03
   -.688E+01 -.173E+02 -.884E+01   0.118E+02 0.300E+02 0.246E+01   -.265E+01 -.821E+01 0.344E+01   -.148E-02 -.482E-02 0.161E-02
   0.100E+02 0.863E+01 0.925E+01   -.112E+02 -.954E+01 -.728E+01   0.232E+00 0.280E+00 -.554E+00   -.601E-03 -.536E-03 0.102E-02
   0.196E+02 0.135E+02 -.154E+02   -.198E+02 -.237E+02 0.375E+01   -.320E+00 0.630E+01 0.720E+01   0.373E-03 -.511E-03 -.163E-02
   -.519E+01 0.212E+01 0.876E+01   0.697E+01 -.269E+01 -.599E+01   -.109E+01 0.462E+00 -.150E+01   0.525E-03 -.344E-03 0.777E-03
   -.105E+02 0.472E+01 -.734E+01   0.110E+02 -.496E+01 0.642E+01   -.883E-01 0.138E+00 0.159E+00   -.300E-03 0.475E-03 -.571E-03
   0.204E+01 -.393E+01 0.336E+01   -.439E+01 0.364E+01 -.167E+01   0.117E+01 0.289E+00 -.696E+00   0.741E-04 0.485E-04 0.439E-03
   0.670E+01 -.569E+01 -.176E+01   -.777E+01 0.557E+01 0.862E+00   0.124E+00 0.405E+00 0.277E-01   -.381E-05 -.888E-04 -.447E-03
   -.106E+02 0.916E+02 -.341E+02   0.236E+02 -.123E+03 0.519E+02   -.142E+02 0.323E+02 -.194E+02   0.310E-02 0.509E-02 -.418E-02
   0.407E+02 0.578E+02 0.287E+02   -.489E+02 -.742E+02 -.383E+02   0.788E+01 0.164E+02 0.891E+01   -.770E-03 -.105E-02 -.927E-03
   0.422E+02 0.577E+02 0.350E+02   -.504E+02 -.738E+02 -.464E+02   0.802E+01 0.158E+02 0.117E+02   -.253E-03 -.667E-03 0.941E-03
   0.459E+02 0.506E+02 0.276E+02   -.548E+02 -.636E+02 -.366E+02   0.927E+01 0.110E+02 0.875E+01   0.718E-03 0.167E-03 -.607E-03
   0.432E+02 0.554E+02 0.360E+02   -.519E+02 -.713E+02 -.471E+02   0.872E+01 0.154E+02 0.113E+02   0.365E-03 -.281E-03 0.588E-03
   0.505E+02 0.591E+02 0.273E+02   -.607E+02 -.756E+02 -.369E+02   0.104E+02 0.164E+02 0.926E+01   -.189E-04 0.242E-03 -.542E-03
   0.443E+02 0.581E+02 0.360E+02   -.533E+02 -.742E+02 -.470E+02   0.912E+01 0.157E+02 0.112E+02   -.450E-03 0.105E-03 0.429E-03
   -.239E+02 0.237E+02 0.751E+02   0.406E+02 -.233E+02 -.858E+02   -.158E+02 -.410E+00 0.106E+02   -.398E-03 -.172E-03 0.152E-02
   -.721E+01 0.756E+02 0.485E+02   0.347E+01 -.103E+03 -.746E+02   0.470E+01 0.289E+02 0.274E+02   0.393E-03 0.387E-02 -.476E-02
   -.739E+02 -.100E+02 0.429E+02   0.925E+02 0.111E+02 -.528E+02   -.186E+02 -.133E+01 0.933E+01   0.259E-05 0.235E-03 0.114E-02
   -.790E+02 -.123E+02 0.270E+02   0.985E+02 0.166E+02 -.381E+02   -.199E+02 -.593E+01 0.105E+02   -.857E-03 -.391E-02 -.187E-02
   -.697E+02 0.126E+02 0.394E+02   0.875E+02 -.119E+02 -.493E+02   -.173E+02 -.806E+00 0.953E+01   -.528E-04 -.135E-03 0.891E-03
   -.666E+02 0.789E+01 0.265E+02   0.839E+02 -.694E+01 -.380E+02   -.168E+02 -.854E+00 0.118E+02   0.926E-04 -.514E-03 -.124E-02
   -.978E+02 0.135E+02 0.501E+02   0.117E+03 -.128E+02 -.600E+02   -.187E+02 -.975E+00 0.943E+01   0.339E-03 0.538E-04 0.133E-02
   -.875E+02 0.129E+02 0.222E+02   0.108E+03 -.126E+02 -.333E+02   -.201E+02 -.114E+00 0.112E+02   -.651E-03 0.127E-02 -.201E-02
   0.292E+02 -.473E+02 0.412E+02   -.390E+02 0.596E+02 -.488E+02   0.105E+02 -.109E+02 0.582E+01   -.736E-03 -.237E-02 0.272E-02
   0.382E+02 -.646E+01 -.109E+01   -.472E+02 0.185E+02 -.122E+02   0.771E+01 -.110E+02 0.146E+02   0.473E-03 0.103E-02 -.707E-03
   0.173E+02 -.756E+02 0.370E+02   -.260E+02 0.916E+02 -.461E+02   0.821E+01 -.159E+02 0.860E+01   0.464E-03 0.923E-03 0.392E-03
   0.579E+01 -.890E+02 0.212E+02   -.127E+02 0.106E+03 -.338E+02   0.490E+01 -.176E+02 0.140E+02   -.331E-02 -.236E-02 0.188E-02
   0.401E+02 -.749E+02 0.323E+02   -.512E+02 0.917E+02 -.389E+02   0.124E+02 -.169E+02 0.443E+01   -.685E-03 0.137E-03 0.524E-03
   0.504E+02 -.837E+02 0.331E+02   -.623E+02 0.101E+03 -.463E+02   0.122E+02 -.170E+02 0.137E+02   0.179E-02 -.250E-03 0.308E-03
   0.280E+02 -.633E+02 0.352E+02   -.376E+02 0.788E+02 -.446E+02   0.955E+01 -.152E+02 0.894E+01   0.198E-03 -.347E-03 0.499E-03
   0.254E+02 -.615E+02 0.287E+02   -.358E+02 0.769E+02 -.401E+02   0.104E+02 -.152E+02 0.116E+02   -.359E-03 -.220E-03 -.426E-03
   0.405E+02 -.899E+02 0.208E+02   -.480E+02 0.107E+03 -.898E+01   0.725E+01 -.173E+02 -.120E+02   0.251E-03 0.106E-02 0.218E-02
   -.105E+02 -.106E+03 -.424E+01   0.236E+02 0.137E+03 -.138E+02   -.142E+02 -.322E+02 0.198E+02   -.520E-03 0.461E-02 -.426E-02
   0.501E+02 -.477E+02 -.233E+02   -.589E+02 0.634E+02 0.344E+02   0.895E+01 -.152E+02 -.113E+02   -.282E-03 -.493E-03 0.113E-02
   0.507E+02 -.453E+02 -.391E+02   -.596E+02 0.583E+02 0.481E+02   0.922E+01 -.110E+02 -.869E+01   -.691E-03 -.148E-02 -.141E-02
   0.352E+02 -.499E+02 -.223E+02   -.433E+02 0.659E+02 0.337E+02   0.790E+01 -.157E+02 -.116E+02   0.482E-03 -.487E-03 0.100E-02
   0.359E+02 -.525E+02 -.402E+02   -.442E+02 0.689E+02 0.497E+02   0.789E+01 -.164E+02 -.885E+01   0.466E-03 -.246E-03 -.109E-02
   0.443E+02 -.604E+02 -.263E+02   -.533E+02 0.765E+02 0.373E+02   0.910E+01 -.158E+02 -.112E+02   -.112E-03 0.315E-03 0.799E-03
   0.506E+02 -.608E+02 -.364E+02   -.607E+02 0.773E+02 0.460E+02   0.103E+02 -.164E+02 -.922E+01   -.610E-03 0.460E-03 -.766E-03
   0.276E+02 0.468E+02 -.373E+02   -.363E+02 -.591E+02 0.513E+02   0.740E+01 0.113E+02 -.156E+02   0.393E-03 0.139E-02 -.204E-03
   0.312E+02 0.260E+02 -.372E+02   -.409E+02 -.384E+02 0.446E+02   0.105E+02 0.110E+02 -.558E+01   0.867E-03 -.285E-02 0.275E-02
   0.437E+02 0.764E+02 -.369E+02   -.556E+02 -.933E+02 0.500E+02   0.123E+02 0.170E+02 -.135E+02   -.175E-02 -.359E-03 0.724E-03
   0.648E+02 0.830E+02 -.388E+02   -.761E+02 -.998E+02 0.455E+02   0.126E+02 0.169E+02 -.464E+01   0.145E-03 -.167E-03 -.720E-03
   0.158E+02 0.731E+02 -.283E+02   -.227E+02 -.902E+02 0.409E+02   0.488E+01 0.176E+02 -.139E+02   0.318E-02 -.152E-02 0.174E-02
   -.276E+02 0.988E+02 -.595E+02   0.193E+02 -.114E+03 0.689E+02   0.777E+01 0.154E+02 -.895E+01   -.590E-03 0.157E-02 0.643E-03
   0.286E+02 0.650E+02 -.319E+02   -.390E+02 -.805E+02 0.432E+02   0.104E+02 0.153E+02 -.115E+02   -.801E-04 -.343E-03 0.258E-03
   0.278E+02 0.660E+02 -.340E+02   -.374E+02 -.814E+02 0.435E+02   0.955E+01 0.152E+02 -.894E+01   -.720E-03 -.243E-03 0.484E-04
   -.139E+02 -.763E+02 -.737E+02   0.101E+02 0.103E+03 0.999E+02   0.482E+01 -.289E+02 -.274E+02   0.111E-03 0.364E-02 -.585E-02
   -.218E+02 -.551E+02 -.127E+02   0.390E+02 0.552E+02 0.227E+02   -.168E+02 -.141E+00 -.975E+01   0.515E-03 0.422E-03 0.175E-02
   -.660E+02 -.505E+01 -.366E+02   0.833E+02 0.409E+01 0.480E+02   -.168E+02 0.867E+00 -.118E+02   -.405E-03 -.782E-03 -.614E-03
   -.658E+02 -.498E+01 -.277E+02   0.835E+02 0.417E+01 0.377E+02   -.172E+02 0.984E+00 -.951E+01   -.219E-03 -.517E-03 0.550E-03
   -.795E+02 0.113E+02 -.415E+02   0.990E+02 -.156E+02 0.525E+02   -.199E+02 0.595E+01 -.104E+02   0.110E-02 -.279E-02 -.185E-02
   -.866E+02 0.574E+02 -.154E+02   0.106E+03 -.595E+02 0.251E+02   -.191E+02 0.291E+01 -.909E+01   0.966E-04 -.313E-03 0.797E-03
   -.826E+02 -.134E+02 -.383E+02   0.103E+03 0.131E+02 0.494E+02   -.201E+02 0.111E+00 -.112E+02   -.688E-03 0.434E-03 -.208E-02
   -.980E+02 -.237E+02 -.245E+02   0.117E+03 0.229E+02 0.344E+02   -.185E+02 0.934E+00 -.944E+01   -.419E-03 0.177E-03 0.138E-02
 -----------------------------------------------------------------------------------------------
   0.161E+02 0.177E+02 0.118E+02   0.128E-12 0.394E-12 -.135E-12   -.160E+02 -.177E+02 -.118E+02   -.112E-02 -.649E-02 -.218E-02
 
 
 POSITION                                       TOTAL-FORCE (eV/Angst)
 -----------------------------------------------------------------------------------
      2.61028     -0.00000      0.00000        -1.945959      1.995595     -1.853787
      5.06777      4.25649      0.00000        -0.052414      0.034341      0.019763
      5.06777      4.25649      5.43130         0.049904      0.078164      1.229608
      5.06777     -4.25649      0.00000         0.016622     -0.127539      0.018865
      5.06777     -4.25649      5.43130         0.050354     -0.085324     -1.276082
      7.52525      0.00000      0.00000         0.022674      0.038514      0.026098
      7.52525      0.00000      5.43130        -0.006332      0.003111     -0.015351
      1.15234      1.99591      3.62087         2.245420     -4.414045      2.850651
      1.15234      1.99591      9.05217         2.332271     -2.685180      0.317746
      3.60982      6.25240      3.62087         0.496408      0.106390      0.645692
      3.60982      6.25240      9.05217         0.654048      0.085133     -1.282259
      3.60982     -2.26057      3.62087        -0.635885      3.857640      4.472236
      3.60982     -2.26057      9.05217        -0.921405      0.470432     -1.598530
      6.06731      1.99591      3.62087        -0.987109     -0.283171      0.843506
      6.06731      1.99591      9.05217        -1.225538     -0.015969     -0.982338
      1.15234     -1.99591      1.81043         0.960659      0.254110      1.664254
      1.15234     -1.99591      7.24173         2.226914      4.470201     -2.935006
      3.60982      2.26057      1.81043        -0.981154     -0.637345      1.410047
      3.60982      2.26057      7.24173        -0.525279     -3.903957     -4.463617
      3.60982     -6.25240      1.81043         0.694561     -0.114679      1.271942
      3.60982     -6.25240      7.24173         0.413524     -0.104257     -0.758841
      6.06731     -1.99591      1.81043        -1.183559      0.001920      0.996513
      6.06731     -1.99591      7.24173        -0.953520      0.284622     -0.874127
      1.67752      0.61366      4.26298        -1.135072      1.221831     -1.538204
      4.13500      4.87015      4.26298        -0.399370      0.039634     -0.628530
      4.13500      4.87015      9.69428        -0.159822     -0.343340      0.241546
      4.13500     -3.64282      4.26298         0.372938     -1.991526     -0.242199
      4.13500     -3.64282      9.69428         0.047117     -0.438559      0.219865
      6.59249      0.61366      4.26298         0.235426     -0.101591     -0.326544
      6.59249      0.61366      9.69428         0.116121     -0.365590      0.145002
      3.54476      1.14594      0.64211         0.842008      0.077309     -0.026453
      3.54476      1.14594      6.07341         0.961320      1.803774      1.278389
      6.00224      5.40243      0.64211         0.016029     -0.300206     -0.526726
      6.00224      5.40243      6.07341        -0.380826     -1.641745     -0.529242
      6.00224     -3.11054      0.64211         0.419650     -0.118135     -0.405943
      6.00224     -3.11054      6.07341         0.550157      0.097698      0.353346
      8.45972      1.14594      0.64211         0.034383     -0.198756     -0.454621
      8.45972      1.14594      6.07341        -0.102961      0.147034      0.105731
      2.15017      2.49688      2.45255         0.731442      1.456623     -1.782941
      2.15017      2.49688      7.88385        -1.279564      1.011980      1.370290
      4.60765      6.75336      2.45255        -0.457037      0.081990     -0.482025
      4.60765      6.75336      7.88385        -2.006196     -0.539700      1.364682
      4.60765     -1.75961      2.45255         1.343186     -0.101697     -2.166415
      4.60765     -1.75961      7.88385         0.320745     -0.111970      0.499308
      7.06514      2.49688      2.45255        -0.063568      0.253753     -0.545957
      7.06514      2.49688      7.88385         0.013289      0.201764      0.167680
      1.67752     -0.61366      1.16832        -0.295444      0.050494     -0.205537
      1.67752     -0.61366      6.59962        -1.149110     -1.197238      1.690670
      4.13500      3.64282      1.16832         0.129233      0.543559     -0.251357
      4.13500      3.64282      6.59962         0.358332      1.992952      0.265659
      4.13500     -4.87015      1.16832        -0.185767      0.372077     -0.237691
      4.13500     -4.87015      6.59962        -0.403780     -0.040192      0.649482
      6.59249     -0.61366      1.16832         0.112559      0.354118     -0.156265
      6.59249     -0.61366      6.59962         0.226933      0.091641      0.342051
      2.15017     -2.49688      2.97876        -1.326786     -0.993535     -1.587624
      2.15017     -2.49688      8.41006         0.752798     -1.443391      1.858789
      4.60765      1.75961      2.97876         0.370434      0.127476     -0.432068
      4.60765      1.75961      8.41006         1.355847      0.111039      2.120520
      4.60765     -6.75336      2.97876        -2.001710      0.539216     -1.336201
      4.60765     -6.75336      8.41006        -0.580639     -0.163940      0.446965
      7.06514     -2.49688      2.97876         0.005490     -0.193234     -0.167323
      7.06514     -2.49688      8.41006        -0.064169     -0.247511      0.547768
      3.54476     -1.14594      4.78919         0.971644     -1.810059     -1.285789
      3.54476     -1.14594     10.22049         0.497366     -0.085468      0.290649
      6.00224      3.11054      4.78919         0.550516     -0.087706     -0.331493
      6.00224      3.11054     10.22049         0.430249      0.172162      0.424099
      6.00224     -5.40243      4.78919        -0.387643      1.653254      0.557574
      6.00224     -5.40243     10.22049        -0.105002      0.770527      0.634197
      8.45972     -1.14594      4.78919        -0.104071     -0.144941     -0.097847
      8.45972     -1.14594     10.22049         0.078121      0.179419      0.443747
 -----------------------------------------------------------------------------------
    total drift:                                0.011293     -0.000361     -0.000089


--------------------------------------------------------------------------------------------------------



  FREE ENERGIE OF THE ION-ELECTRON SYSTEM (eV)
  ---------------------------------------------------
  free  energy   TOTEN  =      -525.75150050 eV

  energy  without entropy=     -525.70285161  energy(sigma->0) =     -525.72717605
 


--------------------------------------------------------------------------------------------------------


    POTLOK:  cpu time      0.0140: real time      0.0141


--------------------------------------------------------------------------------------------------------


 stress matrix after NEB project (eV)
     59.60861      2.65557     -2.36680
      2.65557     56.48935      2.87571
     -2.36680      2.87571     55.14677
  FORCES: max atom, RMS     5.953207    2.010584
  FORCE total and by dimension   16.821751    4.472236
  Stress total and by dimension   99.132467   59.608612
 writing wavefunctions
     LOOP+:  cpu time    552.8396: real time    555.8807
    4ORBIT:  cpu time      0.0000: real time      0.0000



 total charge

# of ion       s       p       d       tot
------------------------------------------
    1        0.679   0.935   0.000   1.614
    2        0.651   1.015   0.000   1.666
    3        0.651   1.015   0.000   1.667
    4        0.652   1.016   0.000   1.668
    5        0.651   1.015   0.000   1.667
    6        0.651   1.016   0.000   1.667
    7        0.648   1.011   0.000   1.659
    8        0.677   1.038   0.000   1.715
    9        0.675   0.930   0.000   1.605
   10        0.650   1.013   0.000   1.662
   11        0.654   1.018   0.000   1.672
   12        0.677   1.038   0.000   1.715
   13        0.650   1.013   0.000   1.663
   14        0.649   1.012   0.000   1.661
   15        0.652   1.016   0.000   1.669
   16        0.651   1.014   0.000   1.665
   17        0.677   1.038   0.000   1.715
   18        0.650   1.013   0.000   1.663
   19        0.677   1.038   0.000   1.715
   20        0.654   1.018   0.000   1.672
   21        0.650   1.013   0.000   1.663
   22        0.652   1.017   0.000   1.669
   23        0.649   1.011   0.000   1.660
   24        1.589   3.400   0.000   4.989
   25        1.549   3.713   0.000   5.262
   26        1.550   3.711   0.000   5.261
   27        1.551   3.714   0.000   5.264
   28        1.551   3.711   0.000   5.262
   29        1.549   3.709   0.000   5.258
   30        1.550   3.711   0.000   5.261
   31        1.553   3.705   0.000   5.259
   32        1.589   3.398   0.000   4.987
   33        1.551   3.712   0.000   5.262
   34        1.555   3.700   0.000   5.254
   35        1.549   3.714   0.000   5.264
   36        1.549   3.712   0.000   5.261
   37        1.550   3.711   0.000   5.262
   38        1.551   3.705   0.000   5.255
   39        1.549   3.716   0.000   5.265
   40        1.556   3.692   0.000   5.248
   41        1.549   3.714   0.000   5.262
   42        1.558   3.698   0.000   5.256
   43        1.555   3.703   0.000   5.258
   44        1.552   3.697   0.000   5.249
   45        1.550   3.714   0.000   5.263
   46        1.551   3.709   0.000   5.260
   47        1.556   3.694   0.000   5.250
   48        1.589   3.399   0.000   4.989
   49        1.551   3.712   0.000   5.262
   50        1.551   3.714   0.000   5.264
   51        1.550   3.711   0.000   5.261
   52        1.549   3.713   0.000   5.262
   53        1.550   3.711   0.000   5.261
   54        1.549   3.709   0.000   5.258
   55        1.552   3.705   0.000   5.257
   56        1.549   3.715   0.000   5.265
   57        1.553   3.697   0.000   5.249
   58        1.555   3.702   0.000   5.257
   59        1.557   3.699   0.000   5.256
   60        1.552   3.703   0.000   5.256
   61        1.551   3.709   0.000   5.260
   62        1.550   3.714   0.000   5.263
   63        1.589   3.399   0.000   4.988
   64        1.554   3.701   0.000   5.255
   65        1.549   3.712   0.000   5.261
   66        1.549   3.715   0.000   5.264
   67        1.555   3.700   0.000   5.254
   68        1.556   3.700   0.000   5.256
   69        1.550   3.705   0.000   5.255
   70        1.550   3.712   0.000   5.262
--------------------------------------------------
tot         88.201 196.277   0.000 284.478
 

 total amount of memory used by VASP MPI-rank0   166467. kBytes
=======================================================================

   base      :      30000. kBytes
   nonl-proj :      98565. kBytes
   fftplans  :       1721. kBytes
   grid      :       9701. kBytes
   one-center:        215. kBytes
   wavefun   :      26265. kBytes
 
  
  
 General timing and accounting informations for this job:
 ========================================================
  
                  Total CPU time used (sec):      571.905
                            User time (sec):      567.196
                          System time (sec):        4.709
                         Elapsed time (sec):      576.721
  
                   Maximum memory used (kb):      491712.
                   Average memory used (kb):          N/A
  
                          Minor page faults:       246473
                          Major page faults:           75
                 Voluntary context switches:         4445
