<?xml version="1.0" encoding="ISO-8859-1"?>
<modeling>
 <generator>
  <i name="program" type="string">vasp </i>
  <i name="version" type="string">5.4.4.18Apr17-6-g9f103f2a35  </i>
  <i name="subversion" type="string">(build Jun 19 2019 10:34:07) complex            parallel </i>
  <i name="platform" type="string">LB-5.4 </i>
  <i name="date" type="string">2023 05 15 </i>
  <i name="time" type="string">18:34:35 </i>
 </generator>
 <incar>
  <i type="string" name="SYSTEM"> Si</i>
  <i type="string" name="PREC">normal</i>
  <i type="string" name="ALGO"> Normal</i>
  <i type="int" name="ISPIN">     1</i>
  <i name="AMIX">      0.20000000</i>
  <i type="int" name="NELM">   200</i>
  <i type="int" name="IBRION">     2</i>
  <i name="EDIFF">      0.00000100</i>
  <i name="EDIFFG">     -0.05000000</i>
  <i type="int" name="NSW">     0</i>
  <i type="int" name="ISIF">     2</i>
  <i type="int" name="ISYM">     2</i>
  <i name="ENCUT">    550.00000000</i>
  <i name="NELECT">    212.00000000</i>
  <i type="logical" name="LREAL"> F  </i>
  <i type="int" name="ISMEAR">     0</i>
  <i name="SIGMA">      0.05000000</i>
  <i type="logical" name="LWAVE"> T  </i>
  <i type="logical" name="LCHARG"> T  </i>
  <i type="int" name="LORBIT">    10</i>
  <v type="int" name="KPOINT_BSE">    -1     0     0     0</v>
  <i type="int" name="NELM">   200</i>
 </incar>
 <structure name="primitive_cell" >
  <crystal>
   <varray name="basis" >
    <v>       9.97646553       0.00000000       5.75991507 </v>
    <v>       3.32548851       9.40590192       5.75991507 </v>
    <v>       0.00000000       0.00000000      11.51983014 </v>
   </varray>
   <i name="volume">   1080.99386112 </i>
   <varray name="rec_basis" >
    <v>       0.10023590      -0.03543874       0.00000000 </v>
    <v>       0.00000000       0.10631623       0.00000000 </v>
    <v>      -0.05011795      -0.03543874       0.08680684 </v>
   </varray>
  </crystal>
  <varray name="positions" >
   <v>       0.29166667       0.29166667      -0.37500000 </v>
   <v>       0.04166667       0.37500000      -0.29166667 </v>
   <v>       0.37500000       0.37500000       0.37500000 </v>
   <v>       0.37500000       0.37500000      -0.29166667 </v>
   <v>       0.37500000       0.04166667      -0.29166667 </v>
   <v>      -0.04166667       0.29166667      -0.37500000 </v>
   <v>      -0.04166667       0.29166667      -0.04166667 </v>
   <v>      -0.37500000       0.29166667       0.29166667 </v>
   <v>      -0.37500000       0.29166667      -0.37500000 </v>
   <v>      -0.37500000      -0.04166667      -0.37500000 </v>
   <v>      -0.04166667      -0.37500000      -0.37500000 </v>
   <v>       0.29166667      -0.04166667      -0.37500000 </v>
   <v>       0.29166667      -0.04166667      -0.04166667 </v>
   <v>       0.29166667      -0.37500000       0.29166667 </v>
   <v>       0.29166667      -0.37500000      -0.37500000 </v>
   <v>       0.29166667       0.29166667      -0.04166667 </v>
   <v>      -0.29166667       0.37500000       0.37500000 </v>
   <v>       0.04166667       0.04166667      -0.29166667 </v>
   <v>       0.04166667       0.04166667       0.04166667 </v>
   <v>      -0.29166667       0.04166667       0.37500000 </v>
   <v>      -0.29166667       0.04166667      -0.29166667 </v>
   <v>       0.37500000      -0.29166667       0.37500000 </v>
   <v>       0.04166667       0.37500000       0.37500000 </v>
   <v>       0.04166667       0.37500000       0.04166667 </v>
   <v>       0.04166667      -0.29166667       0.37500000 </v>
   <v>       0.04166667      -0.29166667      -0.29166667 </v>
   <v>       0.37500000       0.04166667       0.37500000 </v>
   <v>       0.37500000       0.04166667       0.04166667 </v>
   <v>      -0.04166667      -0.04166667      -0.04166667 </v>
   <v>      -0.37500000      -0.37500000       0.29166667 </v>
   <v>      -0.37500000      -0.04166667       0.29166667 </v>
   <v>      -0.04166667      -0.37500000       0.29166667 </v>
   <v>      -0.37500000      -0.04166667      -0.04166667 </v>
   <v>      -0.04166667      -0.37500000      -0.04166667 </v>
   <v>      -0.29166667       0.37500000      -0.29166667 </v>
   <v>      -0.29166667       0.37500000       0.04166667 </v>
   <v>      -0.29166667      -0.29166667      -0.29166667 </v>
   <v>       0.37500000      -0.29166667       0.04166667 </v>
   <v>       0.37500000      -0.29166667      -0.29166667 </v>
   <v>       0.37500000       0.37500000       0.04166667 </v>
   <v>      -0.37500000       0.29166667      -0.04166667 </v>
   <v>      -0.04166667       0.29166667       0.29166667 </v>
   <v>      -0.37500000      -0.37500000      -0.37500000 </v>
   <v>      -0.37500000      -0.37500000      -0.04166667 </v>
   <v>      -0.04166667      -0.04166667       0.29166667 </v>
   <v>      -0.04166667      -0.04166667      -0.37500000 </v>
   <v>       0.29166667      -0.37500000      -0.04166667 </v>
   <v>       0.29166667      -0.04166667       0.29166667 </v>
   <v>      -0.29166667       0.04166667       0.04166667 </v>
   <v>       0.04166667       0.04166667       0.37500000 </v>
   <v>      -0.29166667      -0.29166667       0.04166667 </v>
   <v>      -0.29166667      -0.29166667       0.37500000 </v>
   <v>       0.04166667      -0.29166667       0.04166667 </v>
  </varray>
 </structure>
 <varray name="primitive_index" >
  <v type="int" >        1 </v>
  <v type="int" >       32 </v>
  <v type="int" >       40 </v>
  <v type="int" >       41 </v>
  <v type="int" >       38 </v>
  <v type="int" >       19 </v>
  <v type="int" >       20 </v>
  <v type="int" >        9 </v>
  <v type="int" >       10 </v>
  <v type="int" >       16 </v>
  <v type="int" >       22 </v>
  <v type="int" >        7 </v>
  <v type="int" >        8 </v>
  <v type="int" >        3 </v>
  <v type="int" >        4 </v>
  <v type="int" >        2 </v>
  <v type="int" >       49 </v>
  <v type="int" >       29 </v>
  <v type="int" >       27 </v>
  <v type="int" >       46 </v>
  <v type="int" >       47 </v>
  <v type="int" >       43 </v>
  <v type="int" >       31 </v>
  <v type="int" >       30 </v>
  <v type="int" >       34 </v>
  <v type="int" >       35 </v>
  <v type="int" >       37 </v>
  <v type="int" >       36 </v>
  <v type="int" >       26 </v>
  <v type="int" >       12 </v>
  <v type="int" >       15 </v>
  <v type="int" >       21 </v>
  <v type="int" >       17 </v>
  <v type="int" >       23 </v>
  <v type="int" >       50 </v>
  <v type="int" >       48 </v>
  <v type="int" >       53 </v>
  <v type="int" >       42 </v>
  <v type="int" >       44 </v>
  <v type="int" >       39 </v>
  <v type="int" >       11 </v>
  <v type="int" >       18 </v>
  <v type="int" >       13 </v>
  <v type="int" >       14 </v>
  <v type="int" >       24 </v>
  <v type="int" >       25 </v>
  <v type="int" >        5 </v>
  <v type="int" >        6 </v>
  <v type="int" >       45 </v>
  <v type="int" >       28 </v>
  <v type="int" >       51 </v>
  <v type="int" >       52 </v>
  <v type="int" >       33 </v>
 </varray>
 <kpoints>
  <generation param="Gamma">
   <v type="int" name="divisions">       4        4        4 </v>
   <v name="usershift">      0.00000000       0.00000000       0.00000000 </v>
   <v name="genvec1">      0.25000000       0.00000000       0.00000000 </v>
   <v name="genvec2">      0.00000000       0.25000000       0.00000000 </v>
   <v name="genvec3">     -0.00000000      -0.00000000       0.25000000 </v>
   <v name="shift">      0.00000000       0.00000000       0.00000000 </v>
  </generation>
  <varray name="kpointlist" >
   <v>       0.00000000       0.00000000       0.00000000 </v>
   <v>       0.25000000       0.00000000       0.00000000 </v>
   <v>       0.50000000       0.00000000       0.00000000 </v>
   <v>       0.25000000       0.25000000       0.00000000 </v>
   <v>       0.50000000       0.25000000       0.00000000 </v>
   <v>      -0.25000000       0.25000000       0.00000000 </v>
   <v>       0.50000000       0.50000000       0.00000000 </v>
   <v>      -0.25000000       0.50000000       0.25000000 </v>
  </varray>
  <varray name="weights" >
   <v>       0.01562500 </v>
   <v>       0.12500000 </v>
   <v>       0.06250000 </v>
   <v>       0.09375000 </v>
   <v>       0.37500000 </v>
   <v>       0.18750000 </v>
   <v>       0.04687500 </v>
   <v>       0.09375000 </v>
  </varray>
 </kpoints>
 <parameters>
  <separator name="general" >
   <i type="string" name="SYSTEM">Si</i>
   <i type="logical" name="LCOMPAT"> F  </i>
  </separator>
  <separator name="electronic" >
   <i type="string" name="PREC">normal</i>
   <i name="ENMAX">    550.00000000</i>
   <i name="ENAUG">    322.06900000</i>
   <i name="EDIFF">      0.00000100</i>
   <i type="int" name="IALGO">    38</i>
   <i type="int" name="IWAVPR">    10</i>
   <i type="int" name="NBANDS">   144</i>
   <i name="NELECT">    212.00000000</i>
   <i type="int" name="TURBO">     0</i>
   <i type="int" name="IRESTART">     0</i>
   <i type="int" name="NREBOOT">     0</i>
   <i type="int" name="NMIN">     0</i>
   <i name="EREF">      0.00000000</i>
   <separator name="electronic smearing" >
    <i type="int" name="ISMEAR">     0</i>
    <i name="SIGMA">      0.05000000</i>
    <i name="KSPACING">      0.50000000</i>
    <i type="logical" name="KGAMMA"> T  </i>
   </separator>
   <separator name="electronic projectors" >
    <i type="logical" name="LREAL"> F  </i>
    <v name="ROPT">      0.00000000</v>
    <i type="int" name="LMAXPAW">  -100</i>
    <i type="int" name="LMAXMIX">     2</i>
    <i type="logical" name="NLSPLINE"> F  </i>
   </separator>
   <separator name="electronic startup" >
    <i type="int" name="ISTART">     0</i>
    <i type="int" name="ICHARG">     2</i>
    <i type="int" name="INIWAV">     1</i>
   </separator>
   <separator name="electronic spin" >
    <i type="int" name="ISPIN">     1</i>
    <i type="logical" name="LNONCOLLINEAR"> F  </i>
    <v name="MAGMOM">      1.00000000      1.00000000      1.00000000      1.00000000      1.00000000      1.00000000      1.00000000      1.00000000      1.00000000      1.00000000      1.00000000      1.00000000      1.00000000      1.00000000      1.00000000      1.00000000      1.00000000      1.00000000      1.00000000      1.00000000
      1.00000000      1.00000000      1.00000000      1.00000000      1.00000000      1.00000000      1.00000000      1.00000000      1.00000000      1.00000000      1.00000000      1.00000000      1.00000000      1.00000000      1.00000000      1.00000000      1.00000000      1.00000000      1.00000000      1.00000000
      1.00000000      1.00000000      1.00000000      1.00000000      1.00000000      1.00000000      1.00000000      1.00000000      1.00000000      1.00000000      1.00000000      1.00000000      1.00000000</v>
    <i name="NUPDOWN">     -1.00000000</i>
    <i type="logical" name="LSORBIT"> F  </i>
    <v name="SAXIS">      0.00000000      0.00000000      1.00000000</v>
    <i type="logical" name="LSPIRAL"> F  </i>
    <v name="QSPIRAL">      0.00000000      0.00000000      0.00000000</v>
    <i type="logical" name="LZEROZ"> F  </i>
   </separator>
   <separator name="electronic exchange-correlation" >
    <i type="logical" name="LASPH"> F  </i>
    <i type="logical" name="LMETAGGA"> F  </i>
   </separator>
   <separator name="electronic convergence" >
    <i type="int" name="NELM">   200</i>
    <i type="int" name="NELMDL">    -5</i>
    <i type="int" name="NELMIN">     2</i>
    <i name="ENINI">    550.00000000</i>
    <separator name="electronic convergence detail" >
     <i type="logical" name="LDIAG"> T  </i>
     <i type="logical" name="LSUBROT"> F  </i>
     <i name="WEIMIN">      0.00000000</i>
     <i name="EBREAK">      0.00000000</i>
     <i name="DEPER">      0.30000000</i>
     <i type="int" name="NRMM">     4</i>
     <i name="TIME">      0.40000000</i>
    </separator>
   </separator>
   <separator name="electronic mixer" >
    <i name="AMIX">      0.20000000</i>
    <i name="BMIX">      1.00000000</i>
    <i name="AMIN">      0.10000000</i>
    <i name="AMIX_MAG">      0.80000000</i>
    <i name="BMIX_MAG">      1.00000000</i>
    <separator name="electronic mixer details" >
     <i type="int" name="IMIX">     4</i>
     <i type="logical" name="MIXFIRST"> F  </i>
     <i type="int" name="MAXMIX">   -45</i>
     <i name="WC">    100.00000000</i>
     <i type="int" name="INIMIX">     1</i>
     <i type="int" name="MIXPRE">     1</i>
     <i type="int" name="MREMOVE">     5</i>
    </separator>
   </separator>
   <separator name="electronic dipolcorrection" >
    <i type="logical" name="LDIPOL"> F  </i>
    <i type="logical" name="LMONO"> F  </i>
    <i type="int" name="IDIPOL">     0</i>
    <i name="EPSILON">      1.00000000</i>
    <v name="DIPOL">   -100.00000000   -100.00000000   -100.00000000</v>
    <i name="EFIELD">      0.00000000</i>
   </separator>
  </separator>
  <separator name="grids" >
   <i type="int" name="NGX">    70</i>
   <i type="int" name="NGY">    70</i>
   <i type="int" name="NGZ">    70</i>
   <i type="int" name="NGXF">   140</i>
   <i type="int" name="NGYF">   140</i>
   <i type="int" name="NGZF">   140</i>
   <i type="logical" name="ADDGRID"> F  </i>
  </separator>
  <separator name="ionic" >
   <i type="int" name="NSW">     0</i>
   <i type="int" name="IBRION">    -1</i>
   <i type="int" name="MDALGO">     0</i>
   <i type="int" name="ISIF">     2</i>
   <i name="PSTRESS">      0.00000000</i>
   <i name="EDIFFG">     -0.05000000</i>
   <i type="int" name="NFREE">     1</i>
   <i name="POTIM">      0.50000000</i>
   <i name="SMASS">     -3.00000000</i>
   <i name="SCALEE">      1.00000000</i>
  </separator>
  <separator name="ionic md" >
   <i name="TEBEG">      0.00010000</i>
   <i name="TEEND">      0.00010000</i>
   <i type="int" name="NBLOCK">     1</i>
   <i type="int" name="KBLOCK">     1</i>
   <i type="int" name="NPACO">   256</i>
   <i name="APACO">     16.00000000</i>
  </separator>
  <separator name="symmetry" >
   <i type="int" name="ISYM">     2</i>
   <i name="SYMPREC">      0.00001000</i>
  </separator>
  <separator name="dos" >
   <i type="int" name="LORBIT">    10</i>
   <v name="RWIGS">     -1.00000000</v>
   <i type="int" name="NEDOS">   301</i>
   <i name="EMIN">     10.00000000</i>
   <i name="EMAX">    -10.00000000</i>
   <i name="EFERMI">      0.00000000</i>
  </separator>
  <separator name="writing" >
   <i type="int" name="NWRITE">     2</i>
   <i type="logical" name="LWAVE"> T  </i>
   <i type="logical" name="LDOWNSAMPLE"> F  </i>
   <i type="logical" name="LCHARG"> T  </i>
   <i type="logical" name="LPARD"> F  </i>
   <i type="logical" name="LVTOT"> F  </i>
   <i type="logical" name="LVHAR"> F  </i>
   <i type="logical" name="LELF"> F  </i>
   <i type="logical" name="LOPTICS"> F  </i>
   <v name="STM">      0.00000000      0.00000000      0.00000000      0.00000000      0.00000000      0.00000000      0.00000000</v>
  </separator>
  <separator name="performance" >
   <i type="int" name="NPAR">    24</i>
   <i type="int" name="NSIM">     4</i>
   <i type="int" name="NBLK">    -1</i>
   <i type="logical" name="LPLANE"> T  </i>
   <i type="logical" name="LSCALAPACK"> T  </i>
   <i type="logical" name="LSCAAWARE"> F  </i>
   <i type="logical" name="LSCALU"> F  </i>
   <i type="logical" name="LASYNC"> F  </i>
   <i type="logical" name="LORBITALREAL"> F  </i>
  </separator>
  <separator name="miscellaneous" >
   <i type="int" name="IDIOT">     3</i>
   <i type="int" name="ISPECIAL">     0</i>
   <i type="logical" name="LMUSIC"> F  </i>
   <v name="POMASS">     28.08500000</v>
   <v name="DARWINR">      0.00000000</v>
   <v name="DARWINV">      1.00000000</v>
   <i type="logical" name="LCORR"> T  </i>
  </separator>
  <i type="logical" name="GGA_COMPAT"> T  </i>
  <i type="logical" name="LBERRY"> F  </i>
  <i type="int" name="ICORELEVEL">     0</i>
  <i type="logical" name="LDAU"> F  </i>
  <i type="int" name="I_CONSTRAINED_M">     0</i>
  <separator name="electronic exchange-correlation" >
   <i type="string" name="GGA">--</i>
   <i type="int" name="VOSKOWN">     0</i>
   <i type="logical" name="LHFCALC"> F  </i>
   <i type="string" name="PRECFOCK"></i>
   <i type="logical" name="LSYMGRAD"> F  </i>
   <i type="logical" name="LHFONE"> F  </i>
   <i type="logical" name="LRHFCALC"> F  </i>
   <i type="logical" name="LTHOMAS"> F  </i>
   <i type="logical" name="LMODELHF"> F  </i>
   <i name="ENCUT4O">     -1.00000000</i>
   <i type="int" name="EXXOEP">     0</i>
   <i type="int" name="FOURORBIT">     0</i>
   <i name="AEXX">      0.00000000</i>
   <i name="HFALPHA">      0.00000000</i>
   <i name="MCALPHA">      0.00000000</i>
   <i name="ALDAX">      1.00000000</i>
   <i name="AGGAX">      1.00000000</i>
   <i name="ALDAC">      1.00000000</i>
   <i name="AGGAC">      1.00000000</i>
   <i type="int" name="NKREDX">     1</i>
   <i type="int" name="NKREDY">     1</i>
   <i type="int" name="NKREDZ">     1</i>
   <i type="logical" name="SHIFTRED"> F  </i>
   <i type="logical" name="ODDONLY"> F  </i>
   <i type="logical" name="EVENONLY"> F  </i>
   <i type="int" name="LMAXFOCK">     0</i>
   <i type="int" name="NMAXFOCKAE">     0</i>
   <i type="logical" name="LFOCKAEDFT"> F  </i>
   <i name="HFSCREEN">      0.00000000</i>
   <i name="HFSCREENC">      0.00000000</i>
   <i type="int" name="NBANDSGWLOW">     0</i>
  </separator>
  <separator name="vdW DFT" >
   <i type="logical" name="LUSE_VDW"> F  </i>
   <i name="Zab_VDW">     -0.84910000</i>
   <i name="PARAM1">      0.12340000</i>
   <i name="PARAM2">      1.00000000</i>
   <i name="PARAM3">      0.00000000</i>
  </separator>
  <separator name="model GW" >
   <i type="int" name="MODEL_GW">     0</i>
   <i name="MODEL_EPS0">     12.23766635</i>
   <i name="MODEL_ALPHA">      1.00000000</i>
  </separator>
  <separator name="linear response parameters" >
   <i type="logical" name="LEPSILON"> F  </i>
   <i type="logical" name="LRPA"> F  </i>
   <i type="logical" name="LNABLA"> F  </i>
   <i type="logical" name="LVEL"> F  </i>
   <i type="int" name="KINTER">     0</i>
   <i name="CSHIFT">      0.10000000</i>
   <i name="OMEGAMAX">     -1.00000000</i>
   <i name="DEG_THRESHOLD">      0.00200000</i>
   <i name="RTIME">     -0.10000000</i>
   <i name="WPLASMAI">      0.00000000</i>
   <v name="DFIELD">      0.00000000      0.00000000      0.00000000</v>
   <v name="WPLASMA">      0.00000000      0.00000000      0.00000000      0.00000000      0.00000000      0.00000000      0.00000000      0.00000000      0.00000000</v>
  </separator>
  <separator name="orbital magnetization" >
   <i type="logical" name="NUCIND"> F  </i>
   <v name="MAGPOS">      0.00000000      0.00000000      0.00000000</v>
   <i type="logical" name="LNICSALL"> T  </i>
   <i type="logical" name="ORBITALMAG"> F  </i>
   <i type="logical" name="LMAGBLOCH"> F  </i>
   <i type="logical" name="LCHIMAG"> F  </i>
   <i type="logical" name="LGAUGE"> T  </i>
   <i type="int" name="MAGATOM">     0</i>
   <v name="MAGDIPOL">      0.00000000      0.00000000      0.00000000</v>
   <v name="AVECCONST">      0.00000000      0.00000000      0.00000000</v>
  </separator>
  <separator name="response functions" >
   <i type="logical" name="LADDER"> F  </i>
   <i type="logical" name="LRPAFORCE"> F  </i>
   <i type="logical" name="LFXC"> F  </i>
   <i type="logical" name="LHARTREE"> T  </i>
   <i type="int" name="IBSE">     0</i>
   <v type="int" name="KPOINT">    -1     0     0     0</v>
   <i type="logical" name="LTCTE"> F  </i>
   <i type="logical" name="LTETE"> F  </i>
   <i type="logical" name="LTRIPLET"> F  </i>
   <i type="logical" name="LFXCEPS"> F  </i>
   <i type="logical" name="LFXHEG"> F  </i>
   <i type="int" name="NATURALO">     2</i>
   <i type="logical" name="L2ORDER"> F  </i>
   <i type="logical" name="LMP2LT"> F  </i>
   <i type="logical" name="LUSEW"> F  </i>
   <i name="ENCUTGW">     -2.00000000</i>
   <i name="ENCUTGWSOFT">     -2.00000000</i>
   <i name="ENCUTLF">     -1.00000000</i>
   <i type="int" name="LMAXMP2">    -1</i>
   <i name="SCISSOR">      0.00000000</i>
   <i type="int" name="NOMEGA">     0</i>
   <i type="int" name="NOMEGAR">     0</i>
   <i type="int" name="NBANDSGW">    -1</i>
   <i type="int" name="NBANDSO">    -1</i>
   <i type="int" name="NBANDSV">    -1</i>
   <i type="int" name="NELM">   200</i>
   <i type="int" name="NELMHF">     1</i>
   <i type="int" name="DIM">     3</i>
   <i type="int" name="ANTIRES">     0</i>
   <i name="OMEGAMAX">    -30.00000000</i>
   <i name="OMEGAMIN">    -30.00000000</i>
   <i name="OMEGATL">   -200.00000000</i>
   <i type="int" name="OMEGAGRID">   140</i>
   <i name="CSHIFT">     -0.10000000</i>
   <i type="logical" name="SELFENERGY"> F  </i>
   <i type="logical" name="LSPECTRAL"> F  </i>
   <i type="logical" name="LSPECTRALGW"> F  </i>
   <i type="logical" name="LSINGLES"> F  </i>
   <i type="logical" name="LFERMIGW"> F  </i>
   <i type="logical" name="ODDONLYGW"> F  </i>
   <i type="logical" name="EVENONLYGW"> F  </i>
   <i type="int" name="NKREDLFX">     1</i>
   <i type="int" name="NKREDLFY">     1</i>
   <i type="int" name="NKREDLFZ">     1</i>
   <i type="int" name="MAXMEM">  2800</i>
   <i type="int" name="TELESCOPE">     0</i>
   <i type="int" name="TAUPAR">     1</i>
   <i type="int" name="OMEGAPAR">    -1</i>
   <i name="LAMBDA">      1.00000000</i>
  </separator>
  <separator name="External order field" >
   <i name="OFIELD_KAPPA">      0.00000000</i>
   <v name="OFIELD_K">      0.00000000      0.00000000      0.00000000</v>
   <i name="OFIELD_Q6_NEAR">      0.00000000</i>
   <i name="OFIELD_Q6_FAR">      0.00000000</i>
   <i name="OFIELD_A">      0.00000000</i>
  </separator>
 </parameters>
 <atominfo>
  <atoms>      53 </atoms>
  <types>       1 </types>
  <array name="atoms" >
   <dimension dim="1">ion</dimension>
   <field type="string">element</field>
   <field type="int">atomtype</field>
   <set>
    <rc><c>Si</c><c>   1</c></rc>
    <rc><c>Si</c><c>   1</c></rc>
    <rc><c>Si</c><c>   1</c></rc>
    <rc><c>Si</c><c>   1</c></rc>
    <rc><c>Si</c><c>   1</c></rc>
    <rc><c>Si</c><c>   1</c></rc>
    <rc><c>Si</c><c>   1</c></rc>
    <rc><c>Si</c><c>   1</c></rc>
    <rc><c>Si</c><c>   1</c></rc>
    <rc><c>Si</c><c>   1</c></rc>
    <rc><c>Si</c><c>   1</c></rc>
    <rc><c>Si</c><c>   1</c></rc>
    <rc><c>Si</c><c>   1</c></rc>
    <rc><c>Si</c><c>   1</c></rc>
    <rc><c>Si</c><c>   1</c></rc>
    <rc><c>Si</c><c>   1</c></rc>
    <rc><c>Si</c><c>   1</c></rc>
    <rc><c>Si</c><c>   1</c></rc>
    <rc><c>Si</c><c>   1</c></rc>
    <rc><c>Si</c><c>   1</c></rc>
    <rc><c>Si</c><c>   1</c></rc>
    <rc><c>Si</c><c>   1</c></rc>
    <rc><c>Si</c><c>   1</c></rc>
    <rc><c>Si</c><c>   1</c></rc>
    <rc><c>Si</c><c>   1</c></rc>
    <rc><c>Si</c><c>   1</c></rc>
    <rc><c>Si</c><c>   1</c></rc>
    <rc><c>Si</c><c>   1</c></rc>
    <rc><c>Si</c><c>   1</c></rc>
    <rc><c>Si</c><c>   1</c></rc>
    <rc><c>Si</c><c>   1</c></rc>
    <rc><c>Si</c><c>   1</c></rc>
    <rc><c>Si</c><c>   1</c></rc>
    <rc><c>Si</c><c>   1</c></rc>
    <rc><c>Si</c><c>   1</c></rc>
    <rc><c>Si</c><c>   1</c></rc>
    <rc><c>Si</c><c>   1</c></rc>
    <rc><c>Si</c><c>   1</c></rc>
    <rc><c>Si</c><c>   1</c></rc>
    <rc><c>Si</c><c>   1</c></rc>
    <rc><c>Si</c><c>   1</c></rc>
    <rc><c>Si</c><c>   1</c></rc>
    <rc><c>Si</c><c>   1</c></rc>
    <rc><c>Si</c><c>   1</c></rc>
    <rc><c>Si</c><c>   1</c></rc>
    <rc><c>Si</c><c>   1</c></rc>
    <rc><c>Si</c><c>   1</c></rc>
    <rc><c>Si</c><c>   1</c></rc>
    <rc><c>Si</c><c>   1</c></rc>
    <rc><c>Si</c><c>   1</c></rc>
    <rc><c>Si</c><c>   1</c></rc>
    <rc><c>Si</c><c>   1</c></rc>
    <rc><c>Si</c><c>   1</c></rc>
   </set>
  </array>
  <array name="atomtypes" >
   <dimension dim="1">type</dimension>
   <field type="int">atomspertype</field>
   <field type="string">element</field>
   <field>mass</field>
   <field>valence</field>
   <field type="string">pseudopotential</field>
   <set>
    <rc><c>  53</c><c>Si</c><c>     28.08500000</c><c>      4.00000000</c><c>  PAW_PBE Si 05Jan2001                  </c></rc>
   </set>
  </array>
 </atominfo>
 <structure name="initialpos" >
  <crystal>
   <varray name="basis" >
    <v>       9.97646553       0.00000000       5.75991507 </v>
    <v>       3.32548851       9.40590192       5.75991507 </v>
    <v>       0.00000000       0.00000000      11.51983014 </v>
   </varray>
   <i name="volume">   1080.99386112 </i>
   <varray name="rec_basis" >
    <v>       0.10023590      -0.03543874       0.00000000 </v>
    <v>       0.00000000       0.10631623       0.00000000 </v>
    <v>      -0.05011795      -0.03543874       0.08680684 </v>
   </varray>
  </crystal>
  <varray name="positions" >
   <v>       0.29166667       0.29166667       0.62500000 </v>
   <v>       0.29166667       0.29166667       0.95833333 </v>
   <v>       0.29166667       0.62500000       0.29166667 </v>
   <v>       0.29166667       0.62500000       0.62500000 </v>
   <v>       0.29166667       0.62500000       0.95833333 </v>
   <v>       0.29166667       0.95833333       0.29166667 </v>
   <v>       0.29166667       0.95833333       0.62500000 </v>
   <v>       0.29166667       0.95833333       0.95833333 </v>
   <v>       0.62500000       0.29166667       0.29166667 </v>
   <v>       0.62500000       0.29166667       0.62500000 </v>
   <v>       0.62500000       0.29166667       0.95833333 </v>
   <v>       0.62500000       0.62500000       0.29166667 </v>
   <v>       0.62500000       0.62500000       0.62500000 </v>
   <v>       0.62500000       0.62500000       0.95833333 </v>
   <v>       0.62500000       0.95833333       0.29166667 </v>
   <v>       0.62500000       0.95833333       0.62500000 </v>
   <v>       0.62500000       0.95833333       0.95833333 </v>
   <v>       0.95833333       0.29166667       0.29166667 </v>
   <v>       0.95833333       0.29166667       0.62500000 </v>
   <v>       0.95833333       0.29166667       0.95833333 </v>
   <v>       0.95833333       0.62500000       0.29166667 </v>
   <v>       0.95833333       0.62500000       0.62500000 </v>
   <v>       0.95833333       0.62500000       0.95833333 </v>
   <v>       0.95833333       0.95833333       0.29166667 </v>
   <v>       0.95833333       0.95833333       0.62500000 </v>
   <v>       0.95833333       0.95833333       0.95833333 </v>
   <v>       0.04166667       0.04166667       0.04166667 </v>
   <v>       0.04166667       0.04166667       0.37500000 </v>
   <v>       0.04166667       0.04166667       0.70833333 </v>
   <v>       0.04166667       0.37500000       0.04166667 </v>
   <v>       0.04166667       0.37500000       0.37500000 </v>
   <v>       0.04166667       0.37500000       0.70833333 </v>
   <v>       0.04166667       0.70833333       0.04166667 </v>
   <v>       0.04166667       0.70833333       0.37500000 </v>
   <v>       0.04166667       0.70833333       0.70833333 </v>
   <v>       0.37500000       0.04166667       0.04166667 </v>
   <v>       0.37500000       0.04166667       0.37500000 </v>
   <v>       0.37500000       0.04166667       0.70833333 </v>
   <v>       0.37500000       0.37500000       0.04166667 </v>
   <v>       0.37500000       0.37500000       0.37500000 </v>
   <v>       0.37500000       0.37500000       0.70833333 </v>
   <v>       0.37500000       0.70833333       0.04166667 </v>
   <v>       0.37500000       0.70833333       0.37500000 </v>
   <v>       0.37500000       0.70833333       0.70833333 </v>
   <v>       0.70833333       0.04166667       0.04166667 </v>
   <v>       0.70833333       0.04166667       0.37500000 </v>
   <v>       0.70833333       0.04166667       0.70833333 </v>
   <v>       0.70833333       0.37500000       0.04166667 </v>
   <v>       0.70833333       0.37500000       0.37500000 </v>
   <v>       0.70833333       0.37500000       0.70833333 </v>
   <v>       0.70833333       0.70833333       0.04166667 </v>
   <v>       0.70833333       0.70833333       0.37500000 </v>
   <v>       0.70833333       0.70833333       0.70833333 </v>
  </varray>
 </structure>
 <calculation>
  <scstep>
   <time name="dav">    3.54    3.57</time>
   <time name="total">    3.73    3.78</time>
   <energy>
    <i name="alphaZ">     87.47481167 </i>
    <i name="ewald">  -5974.52528800 </i>
    <i name="hartreedc">   -334.43528197 </i>
    <i name="XCdc">   -494.43365227 </i>
    <i name="pawpsdc">   4670.56137959 </i>
    <i name="pawaedc">  -3738.11744287 </i>
    <i name="eentropy">     -0.00998885 </i>
    <i name="bandstr">    870.22083115 </i>
    <i name="atom">   5462.52286525 </i>
    <i name="e_fr_energy">    549.25823369 </i>
    <i name="e_wo_entrp">    549.26822255 </i>
    <i name="e_0_energy">    549.26322812 </i>
   </energy>
  </scstep>
  <scstep>
   <time name="dav">    3.78    3.81</time>
   <time name="total">    3.78    3.82</time>
   <energy>
    <i name="e_fr_energy">   -240.49524062 </i>
    <i name="e_wo_entrp">   -240.49416056 </i>
    <i name="e_0_energy">   -240.49470059 </i>
   </energy>
  </scstep>
  <scstep>
   <time name="dav">    3.85    3.89</time>
   <time name="total">    3.86    3.90</time>
   <energy>
    <i name="e_fr_energy">   -287.77101549 </i>
    <i name="e_wo_entrp">   -287.76847258 </i>
    <i name="e_0_energy">   -287.76974403 </i>
   </energy>
  </scstep>
  <scstep>
   <time name="dav">    4.00    4.04</time>
   <time name="total">    4.00    4.04</time>
   <energy>
    <i name="e_fr_energy">   -288.72301725 </i>
    <i name="e_wo_entrp">   -288.72044968 </i>
    <i name="e_0_energy">   -288.72173346 </i>
   </energy>
  </scstep>
  <scstep>
   <time name="dav">    3.84    3.88</time>
   <time name="total">    4.02    4.06</time>
   <energy>
    <i name="e_fr_energy">   -288.74519364 </i>
    <i name="e_wo_entrp">   -288.74262547 </i>
    <i name="e_0_energy">   -288.74390956 </i>
   </energy>
  </scstep>
  <scstep>
   <time name="dav">    3.72    3.76</time>
   <time name="total">    3.99    4.02</time>
   <energy>
    <i name="e_fr_energy">   -286.81269177 </i>
    <i name="e_wo_entrp">   -286.81015520 </i>
    <i name="e_0_energy">   -286.81142349 </i>
   </energy>
  </scstep>
  <scstep>
   <time name="dav">    3.62    3.66</time>
   <time name="total">    3.89    3.93</time>
   <energy>
    <i name="e_fr_energy">   -284.03444476 </i>
    <i name="e_wo_entrp">   -284.03200629 </i>
    <i name="e_0_energy">   -284.03322553 </i>
   </energy>
  </scstep>
  <scstep>
   <time name="dav">    3.68    3.72</time>
   <time name="total">    3.94    3.98</time>
   <energy>
    <i name="e_fr_energy">   -283.96339205 </i>
    <i name="e_wo_entrp">   -283.96093593 </i>
    <i name="e_0_energy">   -283.96216399 </i>
   </energy>
  </scstep>
  <scstep>
   <time name="dav">    3.86    3.90</time>
   <time name="total">    4.13    4.17</time>
   <energy>
    <i name="e_fr_energy">   -283.97936347 </i>
    <i name="e_wo_entrp">   -283.97691031 </i>
    <i name="e_0_energy">   -283.97813689 </i>
   </energy>
  </scstep>
  <scstep>
   <time name="dav">    3.78    3.81</time>
   <time name="total">    4.04    4.08</time>
   <energy>
    <i name="e_fr_energy">   -283.97645811 </i>
    <i name="e_wo_entrp">   -283.97400068 </i>
    <i name="e_0_energy">   -283.97522940 </i>
   </energy>
  </scstep>
  <scstep>
   <time name="dav">    3.89    3.93</time>
   <time name="total">    4.15    4.19</time>
   <energy>
    <i name="e_fr_energy">   -283.98162171 </i>
    <i name="e_wo_entrp">   -283.97916253 </i>
    <i name="e_0_energy">   -283.98039212 </i>
   </energy>
  </scstep>
  <scstep>
   <time name="dav">    3.80    3.84</time>
   <time name="total">    4.06    4.10</time>
   <energy>
    <i name="e_fr_energy">   -283.98323106 </i>
    <i name="e_wo_entrp">   -283.98077297 </i>
    <i name="e_0_energy">   -283.98200202 </i>
   </energy>
  </scstep>
  <scstep>
   <time name="dav">    3.67    3.71</time>
   <time name="total">    3.94    3.98</time>
   <energy>
    <i name="e_fr_energy">   -283.98390150 </i>
    <i name="e_wo_entrp">   -283.98144204 </i>
    <i name="e_0_energy">   -283.98267177 </i>
   </energy>
  </scstep>
  <scstep>
   <time name="dav">    3.76    3.80</time>
   <time name="total">    4.02    4.06</time>
   <energy>
    <i name="e_fr_energy">   -283.98385754 </i>
    <i name="e_wo_entrp">   -283.98139827 </i>
    <i name="e_0_energy">   -283.98262790 </i>
   </energy>
  </scstep>
  <scstep>
   <time name="dav">    3.71    3.75</time>
   <time name="total">    3.97    4.01</time>
   <energy>
    <i name="e_fr_energy">   -283.98389950 </i>
    <i name="e_wo_entrp">   -283.98144012 </i>
    <i name="e_0_energy">   -283.98266981 </i>
   </energy>
  </scstep>
  <scstep>
   <time name="dav">    3.89    3.95</time>
   <time name="total">    4.16    4.22</time>
   <energy>
    <i name="e_fr_energy">   -283.98389438 </i>
    <i name="e_wo_entrp">   -283.98143510 </i>
    <i name="e_0_energy">   -283.98266474 </i>
   </energy>
  </scstep>
  <scstep>
   <time name="dav">    3.94    3.98</time>
   <time name="total">    4.20    4.24</time>
   <energy>
    <i name="e_fr_energy">   -283.98389854 </i>
    <i name="e_wo_entrp">   -283.98143929 </i>
    <i name="e_0_energy">   -283.98266892 </i>
   </energy>
  </scstep>
  <scstep>
   <time name="dav">    2.73    2.76</time>
   <time name="total">    2.83    2.86</time>
   <energy>
    <i name="alphaZ">     87.47481167 </i>
    <i name="ewald">  -5974.52528800 </i>
    <i name="hartreedc">   -435.52088894 </i>
    <i name="XCdc">   -478.16296239 </i>
    <i name="pawpsdc">  22427.59801529 </i>
    <i name="pawaedc"> -21500.85090049 </i>
    <i name="eentropy">     -0.00245926 </i>
    <i name="bandstr">    127.48290796 </i>
    <i name="atom">   5462.52286525 </i>
    <i name="e_fr_energy">   -283.98389892 </i>
    <i name="e_wo_entrp">   -283.98143966 </i>
    <i name="e_0_energy">   -283.98266929 </i>
   </energy>
  </scstep>
  <structure>
   <crystal>
    <varray name="basis" >
     <v>       9.97646553       0.00000000       5.75991507 </v>
     <v>       3.32548851       9.40590192       5.75991507 </v>
     <v>       0.00000000       0.00000000      11.51983014 </v>
    </varray>
    <i name="volume">   1080.99386112 </i>
    <varray name="rec_basis" >
     <v>       0.10023590      -0.03543874       0.00000000 </v>
     <v>       0.00000000       0.10631623       0.00000000 </v>
     <v>      -0.05011795      -0.03543874       0.08680684 </v>
    </varray>
   </crystal>
   <varray name="positions" >
    <v>       0.29166667       0.29166667       0.62500000 </v>
    <v>       0.29166667       0.29166667       0.95833333 </v>
    <v>       0.29166667       0.62500000       0.29166667 </v>
    <v>       0.29166667       0.62500000       0.62500000 </v>
    <v>       0.29166667       0.62500000       0.95833333 </v>
    <v>       0.29166667       0.95833333       0.29166667 </v>
    <v>       0.29166667       0.95833333       0.62500000 </v>
    <v>       0.29166667       0.95833333       0.95833333 </v>
    <v>       0.62500000       0.29166667       0.29166667 </v>
    <v>       0.62500000       0.29166667       0.62500000 </v>
    <v>       0.62500000       0.29166667       0.95833333 </v>
    <v>       0.62500000       0.62500000       0.29166667 </v>
    <v>       0.62500000       0.62500000       0.62500000 </v>
    <v>       0.62500000       0.62500000       0.95833333 </v>
    <v>       0.62500000       0.95833333       0.29166667 </v>
    <v>       0.62500000       0.95833333       0.62500000 </v>
    <v>       0.62500000       0.95833333       0.95833333 </v>
    <v>       0.95833333       0.29166667       0.29166667 </v>
    <v>       0.95833333       0.29166667       0.62500000 </v>
    <v>       0.95833333       0.29166667       0.95833333 </v>
    <v>       0.95833333       0.62500000       0.29166667 </v>
    <v>       0.95833333       0.62500000       0.62500000 </v>
    <v>       0.95833333       0.62500000       0.95833333 </v>
    <v>       0.95833333       0.95833333       0.29166667 </v>
    <v>       0.95833333       0.95833333       0.62500000 </v>
    <v>       0.95833333       0.95833333       0.95833333 </v>
    <v>       0.04166667       0.04166667       0.04166667 </v>
    <v>       0.04166667       0.04166667       0.37500000 </v>
    <v>       0.04166667       0.04166667       0.70833333 </v>
    <v>       0.04166667       0.37500000       0.04166667 </v>
    <v>       0.04166667       0.37500000       0.37500000 </v>
    <v>       0.04166667       0.37500000       0.70833333 </v>
    <v>       0.04166667       0.70833333       0.04166667 </v>
    <v>       0.04166667       0.70833333       0.37500000 </v>
    <v>       0.04166667       0.70833333       0.70833333 </v>
    <v>       0.37500000       0.04166667       0.04166667 </v>
    <v>       0.37500000       0.04166667       0.37500000 </v>
    <v>       0.37500000       0.04166667       0.70833333 </v>
    <v>       0.37500000       0.37500000       0.04166667 </v>
    <v>       0.37500000       0.37500000       0.37500000 </v>
    <v>       0.37500000       0.37500000       0.70833333 </v>
    <v>       0.37500000       0.70833333       0.04166667 </v>
    <v>       0.37500000       0.70833333       0.37500000 </v>
    <v>       0.37500000       0.70833333       0.70833333 </v>
    <v>       0.70833333       0.04166667       0.04166667 </v>
    <v>       0.70833333       0.04166667       0.37500000 </v>
    <v>       0.70833333       0.04166667       0.70833333 </v>
    <v>       0.70833333       0.37500000       0.04166667 </v>
    <v>       0.70833333       0.37500000       0.37500000 </v>
    <v>       0.70833333       0.37500000       0.70833333 </v>
    <v>       0.70833333       0.70833333       0.04166667 </v>
    <v>       0.70833333       0.70833333       0.37500000 </v>
    <v>       0.70833333       0.70833333       0.70833333 </v>
   </varray>
  </structure>
  <varray name="forces" >
   <v>      -0.04808874      -0.03400387      -0.29289319 </v>
   <v>      -0.04808874      -0.03400387       0.29289319 </v>
   <v>      -0.10859535      -0.20514241      -0.18809266 </v>
   <v>      -0.02185061       0.00772536      -0.00000000 </v>
   <v>      -0.10859535      -0.20514241       0.18809266 </v>
   <v>       0.06050661       0.27315016       0.10480052 </v>
   <v>       0.06050661       0.27315016      -0.10480052 </v>
   <v>       0.01113620      -0.00393724      -0.00000000 </v>
   <v>      -0.22960857      -0.03400387      -0.18809266 </v>
   <v>       0.00000000      -0.02317607      -0.00000000 </v>
   <v>      -0.22960857      -0.03400387       0.18809266 </v>
   <v>       0.01092530       0.00772536      -0.01892318 </v>
   <v>       0.01092530       0.00772536       0.01892318 </v>
   <v>      -0.01994716      -0.01410477      -0.00000000 </v>
   <v>      -0.12101322       0.27315016      -0.00000000 </v>
   <v>      -0.00997358       0.01410477      -0.01727475 </v>
   <v>      -0.00997358       0.01410477       0.01727475 </v>
   <v>       0.27769731      -0.03400387       0.10480052 </v>
   <v>       0.27769731      -0.03400387      -0.10480052 </v>
   <v>       0.00000000       0.01181172      -0.00000000 </v>
   <v>       0.21719070      -0.20514241      -0.00000000 </v>
   <v>       0.00997358      -0.01410477      -0.01727475 </v>
   <v>       0.00997358      -0.01410477       0.01727475 </v>
   <v>      -0.00556810      -0.00393724       0.00964423 </v>
   <v>       0.01994716       0.01410477      -0.00000000 </v>
   <v>      -0.00556810      -0.00393724      -0.00964423 </v>
   <v>       0.00000000      -0.00000000      -0.00000000 </v>
   <v>      -0.02085982      -0.01475012      -0.01688625 </v>
   <v>      -0.02085982      -0.01475012       0.01688625 </v>
   <v>      -0.01530455       0.00096256      -0.02650826 </v>
   <v>       0.21477919      -0.07593591      -0.00000000 </v>
   <v>      -0.01530455       0.00096256       0.02650826 </v>
   <v>      -0.00555527       0.02853768      -0.00962201 </v>
   <v>      -0.00555527       0.02853768       0.00962201 </v>
   <v>      -0.02993879       0.01058496      -0.00000000 </v>
   <v>      -0.00419401      -0.01475012      -0.02650826 </v>
   <v>       0.00000000       0.22780773      -0.00000000 </v>
   <v>      -0.00419401      -0.01475012       0.02650826 </v>
   <v>      -0.10738959      -0.07593591       0.18600423 </v>
   <v>      -0.10738959      -0.07593591      -0.18600423 </v>
   <v>       0.13662668       0.09660965      -0.00000000 </v>
   <v>       0.01111054       0.02853768      -0.00000000 </v>
   <v>       0.06831334      -0.09660965       0.11832218 </v>
   <v>       0.06831334      -0.09660965      -0.11832218 </v>
   <v>       0.02505383      -0.01475012      -0.00962201 </v>
   <v>       0.02505383      -0.01475012       0.00962201 </v>
   <v>       0.00000000      -0.03175488      -0.00000000 </v>
   <v>       0.03060910       0.00096256      -0.00000000 </v>
   <v>      -0.06831334       0.09660965       0.11832218 </v>
   <v>      -0.06831334       0.09660965      -0.11832218 </v>
   <v>       0.01496940       0.01058496      -0.02592775 </v>
   <v>      -0.13662668      -0.09660965      -0.00000000 </v>
   <v>       0.01496940       0.01058496       0.02592775 </v>
  </varray>
  <varray name="stress" >
   <v>      14.00088267       0.00000000       0.00000000 </v>
   <v>       0.00000000      14.00088272       0.00000000 </v>
   <v>      -0.00000000      -0.00000000      14.00088273 </v>
  </varray>
  <energy>
   <i name="e_fr_energy">   -283.98389892 </i>
   <i name="e_wo_entrp">   -283.98266929 </i>
   <i name="e_0_energy">     -0.00245926 </i>
  </energy>
  <time name="totalsc">   84.06   84.97</time>
  <eigenvalues>
   <array>
    <dimension dim="1">band</dimension>
    <dimension dim="2">kpoint</dimension>
    <dimension dim="3">spin</dimension>
    <field>eigene</field>
    <field>occ</field>
    <set>
     <set comment="spin 1">
      <set comment="kpoint 1">
       <r>   -6.2839    1.0000 </r>
       <r>   -4.9727    1.0000 </r>
       <r>   -4.9700    1.0000 </r>
       <r>   -4.9700    1.0000 </r>
       <r>   -4.9700    1.0000 </r>
       <r>   -4.9171    1.0000 </r>
       <r>   -4.9171    1.0000 </r>
       <r>   -4.9171    1.0000 </r>
       <r>   -4.7278    1.0000 </r>
       <r>   -4.4349    1.0000 </r>
       <r>   -4.4349    1.0000 </r>
       <r>   -4.3893    1.0000 </r>
       <r>   -4.3893    1.0000 </r>
       <r>   -4.3893    1.0000 </r>
       <r>   -3.9807    1.0000 </r>
       <r>   -3.0924    1.0000 </r>
       <r>   -3.0924    1.0000 </r>
       <r>   -3.0733    1.0000 </r>
       <r>   -3.0733    1.0000 </r>
       <r>   -3.0733    1.0000 </r>
       <r>   -3.0588    1.0000 </r>
       <r>   -3.0588    1.0000 </r>
       <r>   -3.0588    1.0000 </r>
       <r>   -2.9747    1.0000 </r>
       <r>   -2.9747    1.0000 </r>
       <r>   -2.9747    1.0000 </r>
       <r>   -2.0882    1.0000 </r>
       <r>   -1.1451    1.0000 </r>
       <r>   -1.1451    1.0000 </r>
       <r>   -1.1401    1.0000 </r>
       <r>   -1.1401    1.0000 </r>
       <r>   -1.1401    1.0000 </r>
       <r>   -1.1345    1.0000 </r>
       <r>   -1.1345    1.0000 </r>
       <r>   -1.1345    1.0000 </r>
       <r>   -1.0074    1.0000 </r>
       <r>   -1.0074    1.0000 </r>
       <r>   -1.0074    1.0000 </r>
       <r>   -0.2598    1.0000 </r>
       <r>    0.2936    1.0000 </r>
       <r>    0.3100    1.0000 </r>
       <r>    0.3100    1.0000 </r>
       <r>    0.3100    1.0000 </r>
       <r>    0.3915    1.0000 </r>
       <r>    0.3915    1.0000 </r>
       <r>    0.3915    1.0000 </r>
       <r>    0.4557    1.0000 </r>
       <r>    0.6242    1.0000 </r>
       <r>    0.6242    1.0000 </r>
       <r>    0.7101    1.0000 </r>
       <r>    0.7101    1.0000 </r>
       <r>    0.7101    1.0000 </r>
       <r>    1.1881    1.0000 </r>
       <r>    1.2033    1.0000 </r>
       <r>    1.2033    1.0000 </r>
       <r>    1.2033    1.0000 </r>
       <r>    1.2298    1.0000 </r>
       <r>    1.2298    1.0000 </r>
       <r>    1.2298    1.0000 </r>
       <r>    1.2755    1.0000 </r>
       <r>    1.2755    1.0000 </r>
       <r>    1.5701    1.0000 </r>
       <r>    1.5701    1.0000 </r>
       <r>    1.5701    1.0000 </r>
       <r>    3.2011    1.0000 </r>
       <r>    3.2011    1.0000 </r>
       <r>    3.2011    1.0000 </r>
       <r>    3.2193    1.0000 </r>
       <r>    3.2193    1.0000 </r>
       <r>    3.2193    1.0000 </r>
       <r>    3.2312    1.0000 </r>
       <r>    3.2312    1.0000 </r>
       <r>    3.2312    1.0000 </r>
       <r>    3.3351    1.0000 </r>
       <r>    3.3351    1.0000 </r>
       <r>    3.3351    1.0000 </r>
       <r>    3.5160    1.0000 </r>
       <r>    3.5160    1.0000 </r>
       <r>    3.5160    1.0000 </r>
       <r>    3.5173    1.0000 </r>
       <r>    3.5327    1.0000 </r>
       <r>    3.5327    1.0000 </r>
       <r>    3.5327    1.0000 </r>
       <r>    3.5342    1.0000 </r>
       <r>    3.5342    1.0000 </r>
       <r>    3.5620    1.0000 </r>
       <r>    3.9849    1.0000 </r>
       <r>    3.9849    1.0000 </r>
       <r>    3.9849    1.0000 </r>
       <r>    4.6095    1.0000 </r>
       <r>    4.6095    1.0000 </r>
       <r>    4.6127    1.0000 </r>
       <r>    4.6127    1.0000 </r>
       <r>    4.6127    1.0000 </r>
       <r>    4.6319    1.0000 </r>
       <r>    4.6319    1.0000 </r>
       <r>    4.6319    1.0000 </r>
       <r>    4.6503    1.0000 </r>
       <r>    4.6503    1.0000 </r>
       <r>    4.6503    1.0000 </r>
       <r>    4.6533    1.0000 </r>
       <r>    4.6533    1.0000 </r>
       <r>    5.4124    1.0000 </r>
       <r>    5.4124    1.0000 </r>
       <r>    5.4124    1.0000 </r>
       <r>    6.3281    0.0000 </r>
       <r>    6.3281    0.0000 </r>
       <r>    6.3281    0.0000 </r>
       <r>    6.3915    0.0000 </r>
       <r>    6.3915    0.0000 </r>
       <r>    6.4666    0.0000 </r>
       <r>    6.6498    0.0000 </r>
       <r>    6.6498    0.0000 </r>
       <r>    6.6498    0.0000 </r>
       <r>    7.1947    0.0000 </r>
       <r>    7.1947    0.0000 </r>
       <r>    7.1947    0.0000 </r>
       <r>    7.2106    0.0000 </r>
       <r>    7.2106    0.0000 </r>
       <r>    7.2106    0.0000 </r>
       <r>    7.2497    0.0000 </r>
       <r>    7.3023    0.0000 </r>
       <r>    7.3023    0.0000 </r>
       <r>    7.3023    0.0000 </r>
       <r>    7.3103    0.0000 </r>
       <r>    7.3103    0.0000 </r>
       <r>    7.4043    0.0000 </r>
       <r>    7.4129    0.0000 </r>
       <r>    7.4129    0.0000 </r>
       <r>    7.4129    0.0000 </r>
       <r>    7.5286    0.0000 </r>
       <r>    7.5286    0.0000 </r>
       <r>    7.5286    0.0000 </r>
       <r>    7.6017    0.0000 </r>
       <r>    7.7620    0.0000 </r>
       <r>    7.7620    0.0000 </r>
       <r>    7.8061    0.0000 </r>
       <r>    7.8061    0.0000 </r>
       <r>    7.8061    0.0000 </r>
       <r>    8.3491    0.0000 </r>
       <r>    8.3491    0.0000 </r>
       <r>    8.3491    0.0000 </r>
       <r>    8.6463    0.0000 </r>
       <r>    9.1314    0.0000 </r>
      </set>
      <set comment="kpoint 2">
       <r>   -6.1953    1.0000 </r>
       <r>   -5.4964    1.0000 </r>
       <r>   -5.0693    1.0000 </r>
       <r>   -5.0693    1.0000 </r>
       <r>   -5.0132    1.0000 </r>
       <r>   -4.8012    1.0000 </r>
       <r>   -4.8012    1.0000 </r>
       <r>   -4.7344    1.0000 </r>
       <r>   -4.6494    1.0000 </r>
       <r>   -4.6494    1.0000 </r>
       <r>   -4.4668    1.0000 </r>
       <r>   -4.2467    1.0000 </r>
       <r>   -3.8794    1.0000 </r>
       <r>   -3.8794    1.0000 </r>
       <r>   -3.7405    1.0000 </r>
       <r>   -3.6535    1.0000 </r>
       <r>   -3.6535    1.0000 </r>
       <r>   -3.4572    1.0000 </r>
       <r>   -3.0725    1.0000 </r>
       <r>   -3.0725    1.0000 </r>
       <r>   -3.0537    1.0000 </r>
       <r>   -3.0149    1.0000 </r>
       <r>   -3.0149    1.0000 </r>
       <r>   -2.8251    1.0000 </r>
       <r>   -2.7712    1.0000 </r>
       <r>   -2.7712    1.0000 </r>
       <r>   -2.1001    1.0000 </r>
       <r>   -1.4110    1.0000 </r>
       <r>   -1.4110    1.0000 </r>
       <r>   -1.2658    1.0000 </r>
       <r>   -1.1764    1.0000 </r>
       <r>   -1.1764    1.0000 </r>
       <r>   -1.1723    1.0000 </r>
       <r>   -1.1018    1.0000 </r>
       <r>   -1.1018    1.0000 </r>
       <r>   -0.8615    1.0000 </r>
       <r>   -0.7343    1.0000 </r>
       <r>   -0.6241    1.0000 </r>
       <r>   -0.6241    1.0000 </r>
       <r>   -0.3367    1.0000 </r>
       <r>   -0.1444    1.0000 </r>
       <r>   -0.1444    1.0000 </r>
       <r>   -0.1080    1.0000 </r>
       <r>    0.0053    1.0000 </r>
       <r>    0.0053    1.0000 </r>
       <r>    0.6131    1.0000 </r>
       <r>    0.8234    1.0000 </r>
       <r>    0.8234    1.0000 </r>
       <r>    1.0261    1.0000 </r>
       <r>    1.2389    1.0000 </r>
       <r>    1.2389    1.0000 </r>
       <r>    1.3758    1.0000 </r>
       <r>    1.3777    1.0000 </r>
       <r>    1.4061    1.0000 </r>
       <r>    1.4061    1.0000 </r>
       <r>    1.4313    1.0000 </r>
       <r>    1.4313    1.0000 </r>
       <r>    1.4689    1.0000 </r>
       <r>    1.5957    1.0000 </r>
       <r>    1.5957    1.0000 </r>
       <r>    1.6552    1.0000 </r>
       <r>    1.7742    1.0000 </r>
       <r>    1.7742    1.0000 </r>
       <r>    1.8217    1.0000 </r>
       <r>    2.7588    1.0000 </r>
       <r>    2.7588    1.0000 </r>
       <r>    2.7878    1.0000 </r>
       <r>    3.0724    1.0000 </r>
       <r>    3.1120    1.0000 </r>
       <r>    3.1120    1.0000 </r>
       <r>    3.1854    1.0000 </r>
       <r>    3.2089    1.0000 </r>
       <r>    3.2133    1.0000 </r>
       <r>    3.2133    1.0000 </r>
       <r>    3.2208    1.0000 </r>
       <r>    3.2208    1.0000 </r>
       <r>    3.2360    1.0000 </r>
       <r>    3.2740    1.0000 </r>
       <r>    3.2740    1.0000 </r>
       <r>    3.3975    1.0000 </r>
       <r>    3.3975    1.0000 </r>
       <r>    3.4380    1.0000 </r>
       <r>    3.4993    1.0000 </r>
       <r>    3.6662    1.0000 </r>
       <r>    3.6662    1.0000 </r>
       <r>    3.7993    1.0000 </r>
       <r>    3.7993    1.0000 </r>
       <r>    3.9135    1.0000 </r>
       <r>    3.9544    1.0000 </r>
       <r>    4.0684    1.0000 </r>
       <r>    4.0684    1.0000 </r>
       <r>    4.1191    1.0000 </r>
       <r>    4.3156    1.0000 </r>
       <r>    4.3502    1.0000 </r>
       <r>    4.3502    1.0000 </r>
       <r>    4.4104    1.0000 </r>
       <r>    4.4104    1.0000 </r>
       <r>    4.5563    1.0000 </r>
       <r>    4.5563    1.0000 </r>
       <r>    4.6394    1.0000 </r>
       <r>    4.6784    1.0000 </r>
       <r>    4.8083    1.0000 </r>
       <r>    4.8083    1.0000 </r>
       <r>    5.3110    1.0000 </r>
       <r>    5.3110    1.0000 </r>
       <r>    5.9281    0.9990 </r>
       <r>    6.3594    0.0000 </r>
       <r>    6.3594    0.0000 </r>
       <r>    6.6185    0.0000 </r>
       <r>    6.6495    0.0000 </r>
       <r>    6.6495    0.0000 </r>
       <r>    6.8668    0.0000 </r>
       <r>    6.8668    0.0000 </r>
       <r>    6.9071    0.0000 </r>
       <r>    7.0161    0.0000 </r>
       <r>    7.0248    0.0000 </r>
       <r>    7.0248    0.0000 </r>
       <r>    7.3438    0.0000 </r>
       <r>    7.5359    0.0000 </r>
       <r>    7.5430    0.0000 </r>
       <r>    7.5430    0.0000 </r>
       <r>    7.6685    0.0000 </r>
       <r>    7.7152    0.0000 </r>
       <r>    7.7152    0.0000 </r>
       <r>    7.7644    0.0000 </r>
       <r>    7.7746    0.0000 </r>
       <r>    7.7907    0.0000 </r>
       <r>    7.7907    0.0000 </r>
       <r>    7.8528    0.0000 </r>
       <r>    7.8528    0.0000 </r>
       <r>    7.8994    0.0000 </r>
       <r>    7.9225    0.0000 </r>
       <r>    7.9292    0.0000 </r>
       <r>    7.9292    0.0000 </r>
       <r>    8.0731    0.0000 </r>
       <r>    8.0731    0.0000 </r>
       <r>    8.2940    0.0000 </r>
       <r>    8.4593    0.0000 </r>
       <r>    8.4593    0.0000 </r>
       <r>    8.4824    0.0000 </r>
       <r>    8.6072    0.0000 </r>
       <r>    8.6072    0.0000 </r>
       <r>    8.9499    0.0000 </r>
       <r>    8.9502    0.0000 </r>
      </set>
      <set comment="kpoint 3">
       <r>   -5.9717    1.0000 </r>
       <r>   -5.8824    1.0000 </r>
       <r>   -5.0415    1.0000 </r>
       <r>   -5.0403    1.0000 </r>
       <r>   -5.0403    1.0000 </r>
       <r>   -4.9991    1.0000 </r>
       <r>   -4.9991    1.0000 </r>
       <r>   -4.7891    1.0000 </r>
       <r>   -4.2307    1.0000 </r>
       <r>   -4.2307    1.0000 </r>
       <r>   -4.1990    1.0000 </r>
       <r>   -4.1962    1.0000 </r>
       <r>   -4.1962    1.0000 </r>
       <r>   -4.0464    1.0000 </r>
       <r>   -3.8290    1.0000 </r>
       <r>   -3.2730    1.0000 </r>
       <r>   -3.2730    1.0000 </r>
       <r>   -3.2366    1.0000 </r>
       <r>   -3.2366    1.0000 </r>
       <r>   -3.2352    1.0000 </r>
       <r>   -3.0870    1.0000 </r>
       <r>   -3.0667    1.0000 </r>
       <r>   -3.0667    1.0000 </r>
       <r>   -3.0486    1.0000 </r>
       <r>   -2.9910    1.0000 </r>
       <r>   -2.9910    1.0000 </r>
       <r>   -2.1275    1.0000 </r>
       <r>   -1.2844    1.0000 </r>
       <r>   -1.2110    1.0000 </r>
       <r>   -1.2110    1.0000 </r>
       <r>   -1.2083    1.0000 </r>
       <r>   -1.1536    1.0000 </r>
       <r>   -1.1536    1.0000 </r>
       <r>   -1.0500    1.0000 </r>
       <r>   -0.9393    1.0000 </r>
       <r>   -0.9393    1.0000 </r>
       <r>   -0.8725    1.0000 </r>
       <r>   -0.8725    1.0000 </r>
       <r>   -0.8106    1.0000 </r>
       <r>   -0.5394    1.0000 </r>
       <r>   -0.3724    1.0000 </r>
       <r>   -0.3724    1.0000 </r>
       <r>   -0.3336    1.0000 </r>
       <r>   -0.2281    1.0000 </r>
       <r>   -0.2281    1.0000 </r>
       <r>    0.7259    1.0000 </r>
       <r>    1.1906    1.0000 </r>
       <r>    1.2064    1.0000 </r>
       <r>    1.2064    1.0000 </r>
       <r>    1.2850    1.0000 </r>
       <r>    1.2850    1.0000 </r>
       <r>    1.5721    1.0000 </r>
       <r>    1.6029    1.0000 </r>
       <r>    1.6423    1.0000 </r>
       <r>    1.6423    1.0000 </r>
       <r>    1.8031    1.0000 </r>
       <r>    1.8031    1.0000 </r>
       <r>    1.9897    1.0000 </r>
       <r>    2.0144    1.0000 </r>
       <r>    2.0144    1.0000 </r>
       <r>    2.0706    1.0000 </r>
       <r>    2.1538    1.0000 </r>
       <r>    2.1538    1.0000 </r>
       <r>    2.4414    1.0000 </r>
       <r>    2.5883    1.0000 </r>
       <r>    2.5883    1.0000 </r>
       <r>    2.6120    1.0000 </r>
       <r>    2.6120    1.0000 </r>
       <r>    2.6945    1.0000 </r>
       <r>    2.8729    1.0000 </r>
       <r>    2.8739    1.0000 </r>
       <r>    2.8739    1.0000 </r>
       <r>    2.9229    1.0000 </r>
       <r>    2.9229    1.0000 </r>
       <r>    3.0163    1.0000 </r>
       <r>    3.0624    1.0000 </r>
       <r>    3.0760    1.0000 </r>
       <r>    3.0760    1.0000 </r>
       <r>    3.0995    1.0000 </r>
       <r>    3.1629    1.0000 </r>
       <r>    3.3152    1.0000 </r>
       <r>    3.3152    1.0000 </r>
       <r>    3.4031    1.0000 </r>
       <r>    3.5041    1.0000 </r>
       <r>    3.6380    1.0000 </r>
       <r>    3.6380    1.0000 </r>
       <r>    3.6945    1.0000 </r>
       <r>    3.6945    1.0000 </r>
       <r>    3.8794    1.0000 </r>
       <r>    3.8963    1.0000 </r>
       <r>    3.9064    1.0000 </r>
       <r>    3.9064    1.0000 </r>
       <r>    4.0712    1.0000 </r>
       <r>    4.0712    1.0000 </r>
       <r>    4.3217    1.0000 </r>
       <r>    4.3346    1.0000 </r>
       <r>    4.3346    1.0000 </r>
       <r>    4.3496    1.0000 </r>
       <r>    4.4104    1.0000 </r>
       <r>    4.4104    1.0000 </r>
       <r>    4.4343    1.0000 </r>
       <r>    4.9098    1.0000 </r>
       <r>    4.9098    1.0000 </r>
       <r>    5.1886    1.0000 </r>
       <r>    5.1886    1.0000 </r>
       <r>    5.3339    1.0000 </r>
       <r>    6.3245    0.0000 </r>
       <r>    6.3245    0.0000 </r>
       <r>    6.6908    0.0000 </r>
       <r>    6.6908    0.0000 </r>
       <r>    6.6999    0.0000 </r>
       <r>    6.8605    0.0000 </r>
       <r>    6.9067    0.0000 </r>
       <r>    6.9067    0.0000 </r>
       <r>    7.2872    0.0000 </r>
       <r>    7.6055    0.0000 </r>
       <r>    7.6055    0.0000 </r>
       <r>    7.6377    0.0000 </r>
       <r>    7.6919    0.0000 </r>
       <r>    7.6919    0.0000 </r>
       <r>    7.7600    0.0000 </r>
       <r>    8.0067    0.0000 </r>
       <r>    8.0368    0.0000 </r>
       <r>    8.0929    0.0000 </r>
       <r>    8.0929    0.0000 </r>
       <r>    8.0977    0.0000 </r>
       <r>    8.2568    0.0000 </r>
       <r>    8.2568    0.0000 </r>
       <r>    8.3809    0.0000 </r>
       <r>    8.3928    0.0000 </r>
       <r>    8.3928    0.0000 </r>
       <r>    8.4315    0.0000 </r>
       <r>    8.4315    0.0000 </r>
       <r>    8.4572    0.0000 </r>
       <r>    8.8611    0.0000 </r>
       <r>    8.8611    0.0000 </r>
       <r>    8.9145    0.0000 </r>
       <r>    8.9145    0.0000 </r>
       <r>    8.9471    0.0000 </r>
       <r>    8.9765    0.0000 </r>
       <r>    9.0199    0.0000 </r>
       <r>    9.0200    0.0000 </r>
       <r>    9.0678    0.0000 </r>
       <r>    9.0696    0.0000 </r>
      </set>
      <set comment="kpoint 4">
       <r>   -6.1656    1.0000 </r>
       <r>   -5.2909    1.0000 </r>
       <r>   -5.2613    1.0000 </r>
       <r>   -5.2613    1.0000 </r>
       <r>   -5.2565    1.0000 </r>
       <r>   -5.0425    1.0000 </r>
       <r>   -4.4681    1.0000 </r>
       <r>   -4.4468    1.0000 </r>
       <r>   -4.4468    1.0000 </r>
       <r>   -4.3929    1.0000 </r>
       <r>   -4.3365    1.0000 </r>
       <r>   -4.2895    1.0000 </r>
       <r>   -4.2895    1.0000 </r>
       <r>   -4.0112    1.0000 </r>
       <r>   -3.6084    1.0000 </r>
       <r>   -3.5649    1.0000 </r>
       <r>   -3.5649    1.0000 </r>
       <r>   -3.4947    1.0000 </r>
       <r>   -3.3511    1.0000 </r>
       <r>   -3.2711    1.0000 </r>
       <r>   -3.2711    1.0000 </r>
       <r>   -3.2511    1.0000 </r>
       <r>   -2.8509    1.0000 </r>
       <r>   -2.5429    1.0000 </r>
       <r>   -2.4975    1.0000 </r>
       <r>   -2.4975    1.0000 </r>
       <r>   -2.0666    1.0000 </r>
       <r>   -1.6258    1.0000 </r>
       <r>   -1.5755    1.0000 </r>
       <r>   -1.5755    1.0000 </r>
       <r>   -1.3834    1.0000 </r>
       <r>   -1.1269    1.0000 </r>
       <r>   -1.1269    1.0000 </r>
       <r>   -1.1090    1.0000 </r>
       <r>   -0.9473    1.0000 </r>
       <r>   -0.7361    1.0000 </r>
       <r>   -0.5864    1.0000 </r>
       <r>   -0.5483    1.0000 </r>
       <r>   -0.5483    1.0000 </r>
       <r>   -0.4682    1.0000 </r>
       <r>   -0.4041    1.0000 </r>
       <r>   -0.3647    1.0000 </r>
       <r>   -0.3647    1.0000 </r>
       <r>    0.1474    1.0000 </r>
       <r>    0.4473    1.0000 </r>
       <r>    0.5249    1.0000 </r>
       <r>    0.5249    1.0000 </r>
       <r>    1.0677    1.0000 </r>
       <r>    1.2370    1.0000 </r>
       <r>    1.2671    1.0000 </r>
       <r>    1.2671    1.0000 </r>
       <r>    1.3875    1.0000 </r>
       <r>    1.4219    1.0000 </r>
       <r>    1.4219    1.0000 </r>
       <r>    1.4224    1.0000 </r>
       <r>    1.5109    1.0000 </r>
       <r>    1.5822    1.0000 </r>
       <r>    1.5893    1.0000 </r>
       <r>    1.5893    1.0000 </r>
       <r>    1.7528    1.0000 </r>
       <r>    1.8142    1.0000 </r>
       <r>    1.8883    1.0000 </r>
       <r>    1.8883    1.0000 </r>
       <r>    2.0264    1.0000 </r>
       <r>    2.7929    1.0000 </r>
       <r>    2.8128    1.0000 </r>
       <r>    2.8168    1.0000 </r>
       <r>    2.8168    1.0000 </r>
       <r>    2.8694    1.0000 </r>
       <r>    2.8748    1.0000 </r>
       <r>    2.8748    1.0000 </r>
       <r>    2.9994    1.0000 </r>
       <r>    3.0200    1.0000 </r>
       <r>    3.0200    1.0000 </r>
       <r>    3.2305    1.0000 </r>
       <r>    3.2497    1.0000 </r>
       <r>    3.2872    1.0000 </r>
       <r>    3.2872    1.0000 </r>
       <r>    3.5680    1.0000 </r>
       <r>    3.5795    1.0000 </r>
       <r>    3.5795    1.0000 </r>
       <r>    3.6054    1.0000 </r>
       <r>    3.6087    1.0000 </r>
       <r>    3.6217    1.0000 </r>
       <r>    3.6867    1.0000 </r>
       <r>    3.6867    1.0000 </r>
       <r>    3.8909    1.0000 </r>
       <r>    3.8909    1.0000 </r>
       <r>    3.9220    1.0000 </r>
       <r>    3.9637    1.0000 </r>
       <r>    3.9887    1.0000 </r>
       <r>    3.9887    1.0000 </r>
       <r>    4.0696    1.0000 </r>
       <r>    4.1167    1.0000 </r>
       <r>    4.1177    1.0000 </r>
       <r>    4.1177    1.0000 </r>
       <r>    4.2244    1.0000 </r>
       <r>    4.2287    1.0000 </r>
       <r>    4.6270    1.0000 </r>
       <r>    4.6270    1.0000 </r>
       <r>    4.7612    1.0000 </r>
       <r>    4.9426    1.0000 </r>
       <r>    4.9580    1.0000 </r>
       <r>    5.1317    1.0000 </r>
       <r>    5.1317    1.0000 </r>
       <r>    5.9206    0.9995 </r>
       <r>    6.2998    0.0000 </r>
       <r>    6.2998    0.0000 </r>
       <r>    6.3552    0.0000 </r>
       <r>    6.7863    0.0000 </r>
       <r>    6.9025    0.0000 </r>
       <r>    7.0482    0.0000 </r>
       <r>    7.0960    0.0000 </r>
       <r>    7.1255    0.0000 </r>
       <r>    7.1255    0.0000 </r>
       <r>    7.3393    0.0000 </r>
       <r>    7.3393    0.0000 </r>
       <r>    7.4506    0.0000 </r>
       <r>    7.4610    0.0000 </r>
       <r>    7.4681    0.0000 </r>
       <r>    7.4889    0.0000 </r>
       <r>    7.4964    0.0000 </r>
       <r>    7.4964    0.0000 </r>
       <r>    7.8230    0.0000 </r>
       <r>    7.8247    0.0000 </r>
       <r>    7.8247    0.0000 </r>
       <r>    7.8905    0.0000 </r>
       <r>    8.0189    0.0000 </r>
       <r>    8.0836    0.0000 </r>
       <r>    8.0836    0.0000 </r>
       <r>    8.1250    0.0000 </r>
       <r>    8.1250    0.0000 </r>
       <r>    8.1334    0.0000 </r>
       <r>    8.1382    0.0000 </r>
       <r>    8.1848    0.0000 </r>
       <r>    8.2887    0.0000 </r>
       <r>    8.3057    0.0000 </r>
       <r>    8.3367    0.0000 </r>
       <r>    8.3367    0.0000 </r>
       <r>    8.7907    0.0000 </r>
       <r>    8.8293    0.0000 </r>
       <r>    8.8293    0.0000 </r>
       <r>    8.9709    0.0000 </r>
       <r>    8.9759    0.0000 </r>
      </set>
      <set comment="kpoint 5">
       <r>   -5.9645    1.0000 </r>
       <r>   -5.7227    1.0000 </r>
       <r>   -5.4823    1.0000 </r>
       <r>   -5.2814    1.0000 </r>
       <r>   -5.1940    1.0000 </r>
       <r>   -4.7963    1.0000 </r>
       <r>   -4.5953    1.0000 </r>
       <r>   -4.5472    1.0000 </r>
       <r>   -4.3701    1.0000 </r>
       <r>   -4.1990    1.0000 </r>
       <r>   -4.1513    1.0000 </r>
       <r>   -4.0840    1.0000 </r>
       <r>   -4.0120    1.0000 </r>
       <r>   -3.8901    1.0000 </r>
       <r>   -3.7112    1.0000 </r>
       <r>   -3.6978    1.0000 </r>
       <r>   -3.6403    1.0000 </r>
       <r>   -3.5411    1.0000 </r>
       <r>   -3.4731    1.0000 </r>
       <r>   -3.4365    1.0000 </r>
       <r>   -3.3956    1.0000 </r>
       <r>   -2.9834    1.0000 </r>
       <r>   -2.7461    1.0000 </r>
       <r>   -2.6797    1.0000 </r>
       <r>   -2.6069    1.0000 </r>
       <r>   -2.5555    1.0000 </r>
       <r>   -2.0794    1.0000 </r>
       <r>   -1.5298    1.0000 </r>
       <r>   -1.5222    1.0000 </r>
       <r>   -1.4670    1.0000 </r>
       <r>   -1.4651    1.0000 </r>
       <r>   -1.2798    1.0000 </r>
       <r>   -1.1377    1.0000 </r>
       <r>   -1.0575    1.0000 </r>
       <r>   -1.0470    1.0000 </r>
       <r>   -0.9454    1.0000 </r>
       <r>   -0.7739    1.0000 </r>
       <r>   -0.7023    1.0000 </r>
       <r>   -0.6630    1.0000 </r>
       <r>   -0.6488    1.0000 </r>
       <r>   -0.4651    1.0000 </r>
       <r>   -0.3606    1.0000 </r>
       <r>   -0.1151    1.0000 </r>
       <r>    0.0295    1.0000 </r>
       <r>    0.0386    1.0000 </r>
       <r>    0.4935    1.0000 </r>
       <r>    0.7193    1.0000 </r>
       <r>    0.8181    1.0000 </r>
       <r>    1.4228    1.0000 </r>
       <r>    1.5791    1.0000 </r>
       <r>    1.6205    1.0000 </r>
       <r>    1.6867    1.0000 </r>
       <r>    1.7556    1.0000 </r>
       <r>    1.8015    1.0000 </r>
       <r>    1.9320    1.0000 </r>
       <r>    1.9336    1.0000 </r>
       <r>    2.0366    1.0000 </r>
       <r>    2.1214    1.0000 </r>
       <r>    2.1295    1.0000 </r>
       <r>    2.1988    1.0000 </r>
       <r>    2.2018    1.0000 </r>
       <r>    2.2593    1.0000 </r>
       <r>    2.2897    1.0000 </r>
       <r>    2.3710    1.0000 </r>
       <r>    2.3948    1.0000 </r>
       <r>    2.4298    1.0000 </r>
       <r>    2.5034    1.0000 </r>
       <r>    2.6452    1.0000 </r>
       <r>    2.6850    1.0000 </r>
       <r>    2.6932    1.0000 </r>
       <r>    2.7306    1.0000 </r>
       <r>    2.7803    1.0000 </r>
       <r>    2.7837    1.0000 </r>
       <r>    2.8741    1.0000 </r>
       <r>    2.9172    1.0000 </r>
       <r>    3.0129    1.0000 </r>
       <r>    3.0143    1.0000 </r>
       <r>    3.0459    1.0000 </r>
       <r>    3.1315    1.0000 </r>
       <r>    3.1511    1.0000 </r>
       <r>    3.1641    1.0000 </r>
       <r>    3.3690    1.0000 </r>
       <r>    3.4611    1.0000 </r>
       <r>    3.4882    1.0000 </r>
       <r>    3.5362    1.0000 </r>
       <r>    3.5687    1.0000 </r>
       <r>    3.6079    1.0000 </r>
       <r>    3.6773    1.0000 </r>
       <r>    3.7552    1.0000 </r>
       <r>    3.8747    1.0000 </r>
       <r>    3.8780    1.0000 </r>
       <r>    3.9904    1.0000 </r>
       <r>    3.9983    1.0000 </r>
       <r>    4.0270    1.0000 </r>
       <r>    4.0577    1.0000 </r>
       <r>    4.0960    1.0000 </r>
       <r>    4.2044    1.0000 </r>
       <r>    4.2061    1.0000 </r>
       <r>    4.3295    1.0000 </r>
       <r>    4.5295    1.0000 </r>
       <r>    4.6282    1.0000 </r>
       <r>    4.6568    1.0000 </r>
       <r>    4.7835    1.0000 </r>
       <r>    4.8858    1.0000 </r>
       <r>    5.1422    1.0000 </r>
       <r>    5.4500    1.0000 </r>
       <r>    6.1251    0.0066 </r>
       <r>    6.2792    0.0000 </r>
       <r>    6.5069    0.0000 </r>
       <r>    7.0501    0.0000 </r>
       <r>    7.2016    0.0000 </r>
       <r>    7.2035    0.0000 </r>
       <r>    7.2202    0.0000 </r>
       <r>    7.4177    0.0000 </r>
       <r>    7.4546    0.0000 </r>
       <r>    7.4811    0.0000 </r>
       <r>    7.6927    0.0000 </r>
       <r>    7.7514    0.0000 </r>
       <r>    7.8312    0.0000 </r>
       <r>    7.8580    0.0000 </r>
       <r>    7.9151    0.0000 </r>
       <r>    8.0167    0.0000 </r>
       <r>    8.0806    0.0000 </r>
       <r>    8.1213    0.0000 </r>
       <r>    8.2478    0.0000 </r>
       <r>    8.2779    0.0000 </r>
       <r>    8.2990    0.0000 </r>
       <r>    8.3516    0.0000 </r>
       <r>    8.3737    0.0000 </r>
       <r>    8.4036    0.0000 </r>
       <r>    8.5086    0.0000 </r>
       <r>    8.6122    0.0000 </r>
       <r>    8.6394    0.0000 </r>
       <r>    8.6453    0.0000 </r>
       <r>    8.6680    0.0000 </r>
       <r>    8.7193    0.0000 </r>
       <r>    8.7689    0.0000 </r>
       <r>    8.8302    0.0000 </r>
       <r>    8.8506    0.0000 </r>
       <r>    8.8965    0.0000 </r>
       <r>    8.9079    0.0000 </r>
       <r>    8.9365    0.0000 </r>
       <r>    8.9818    0.0000 </r>
       <r>    8.9900    0.0000 </r>
      </set>
      <set comment="kpoint 6">
       <r>   -6.0497    1.0000 </r>
       <r>   -5.6158    1.0000 </r>
       <r>   -5.5312    1.0000 </r>
       <r>   -5.1274    1.0000 </r>
       <r>   -5.0601    1.0000 </r>
       <r>   -4.7334    1.0000 </r>
       <r>   -4.7126    1.0000 </r>
       <r>   -4.6772    1.0000 </r>
       <r>   -4.5603    1.0000 </r>
       <r>   -4.2606    1.0000 </r>
       <r>   -4.2021    1.0000 </r>
       <r>   -4.1800    1.0000 </r>
       <r>   -4.0740    1.0000 </r>
       <r>   -3.9221    1.0000 </r>
       <r>   -3.6307    1.0000 </r>
       <r>   -3.5935    1.0000 </r>
       <r>   -3.5885    1.0000 </r>
       <r>   -3.4459    1.0000 </r>
       <r>   -3.3098    1.0000 </r>
       <r>   -3.2290    1.0000 </r>
       <r>   -3.1463    1.0000 </r>
       <r>   -3.0945    1.0000 </r>
       <r>   -3.0835    1.0000 </r>
       <r>   -2.8722    1.0000 </r>
       <r>   -2.7866    1.0000 </r>
       <r>   -2.4380    1.0000 </r>
       <r>   -2.0921    1.0000 </r>
       <r>   -1.7792    1.0000 </r>
       <r>   -1.2749    1.0000 </r>
       <r>   -1.1985    1.0000 </r>
       <r>   -1.1136    1.0000 </r>
       <r>   -1.1051    1.0000 </r>
       <r>   -1.0754    1.0000 </r>
       <r>   -1.0575    1.0000 </r>
       <r>   -0.9810    1.0000 </r>
       <r>   -0.9197    1.0000 </r>
       <r>   -0.9154    1.0000 </r>
       <r>   -0.8926    1.0000 </r>
       <r>   -0.8852    1.0000 </r>
       <r>   -0.7487    1.0000 </r>
       <r>   -0.7336    1.0000 </r>
       <r>   -0.1337    1.0000 </r>
       <r>    0.1668    1.0000 </r>
       <r>    0.2490    1.0000 </r>
       <r>    0.2989    1.0000 </r>
       <r>    0.3720    1.0000 </r>
       <r>    0.4568    1.0000 </r>
       <r>    0.4866    1.0000 </r>
       <r>    1.3787    1.0000 </r>
       <r>    1.4695    1.0000 </r>
       <r>    1.5022    1.0000 </r>
       <r>    1.6902    1.0000 </r>
       <r>    1.6954    1.0000 </r>
       <r>    1.7071    1.0000 </r>
       <r>    1.7332    1.0000 </r>
       <r>    1.8252    1.0000 </r>
       <r>    1.8818    1.0000 </r>
       <r>    1.9144    1.0000 </r>
       <r>    2.0397    1.0000 </r>
       <r>    2.0705    1.0000 </r>
       <r>    2.1151    1.0000 </r>
       <r>    2.1394    1.0000 </r>
       <r>    2.1399    1.0000 </r>
       <r>    2.2784    1.0000 </r>
       <r>    2.5243    1.0000 </r>
       <r>    2.5609    1.0000 </r>
       <r>    2.5739    1.0000 </r>
       <r>    2.6107    1.0000 </r>
       <r>    2.6367    1.0000 </r>
       <r>    2.7285    1.0000 </r>
       <r>    2.7521    1.0000 </r>
       <r>    2.7992    1.0000 </r>
       <r>    2.9956    1.0000 </r>
       <r>    3.0191    1.0000 </r>
       <r>    3.0372    1.0000 </r>
       <r>    3.0970    1.0000 </r>
       <r>    3.1216    1.0000 </r>
       <r>    3.1948    1.0000 </r>
       <r>    3.2199    1.0000 </r>
       <r>    3.2221    1.0000 </r>
       <r>    3.3423    1.0000 </r>
       <r>    3.3592    1.0000 </r>
       <r>    3.3859    1.0000 </r>
       <r>    3.5573    1.0000 </r>
       <r>    3.5710    1.0000 </r>
       <r>    3.6436    1.0000 </r>
       <r>    3.6701    1.0000 </r>
       <r>    3.7059    1.0000 </r>
       <r>    3.7956    1.0000 </r>
       <r>    3.7987    1.0000 </r>
       <r>    3.9230    1.0000 </r>
       <r>    4.0153    1.0000 </r>
       <r>    4.0194    1.0000 </r>
       <r>    4.2670    1.0000 </r>
       <r>    4.3155    1.0000 </r>
       <r>    4.3245    1.0000 </r>
       <r>    4.3612    1.0000 </r>
       <r>    4.3973    1.0000 </r>
       <r>    4.4587    1.0000 </r>
       <r>    4.4713    1.0000 </r>
       <r>    4.5444    1.0000 </r>
       <r>    4.5692    1.0000 </r>
       <r>    4.6220    1.0000 </r>
       <r>    4.7552    1.0000 </r>
       <r>    5.2868    1.0000 </r>
       <r>    5.6154    1.0000 </r>
       <r>    6.0915    0.0629 </r>
       <r>    6.3665    0.0000 </r>
       <r>    6.6421    0.0000 </r>
       <r>    6.9475    0.0000 </r>
       <r>    6.9720    0.0000 </r>
       <r>    7.0903    0.0000 </r>
       <r>    7.2247    0.0000 </r>
       <r>    7.3888    0.0000 </r>
       <r>    7.3901    0.0000 </r>
       <r>    7.4462    0.0000 </r>
       <r>    7.4724    0.0000 </r>
       <r>    7.5957    0.0000 </r>
       <r>    7.6084    0.0000 </r>
       <r>    7.6340    0.0000 </r>
       <r>    7.6519    0.0000 </r>
       <r>    7.8018    0.0000 </r>
       <r>    7.8457    0.0000 </r>
       <r>    8.0861    0.0000 </r>
       <r>    8.1005    0.0000 </r>
       <r>    8.2448    0.0000 </r>
       <r>    8.2644    0.0000 </r>
       <r>    8.2781    0.0000 </r>
       <r>    8.2851    0.0000 </r>
       <r>    8.2899    0.0000 </r>
       <r>    8.3099    0.0000 </r>
       <r>    8.3639    0.0000 </r>
       <r>    8.3660    0.0000 </r>
       <r>    8.4013    0.0000 </r>
       <r>    8.5520    0.0000 </r>
       <r>    8.6575    0.0000 </r>
       <r>    8.6753    0.0000 </r>
       <r>    8.8594    0.0000 </r>
       <r>    8.8847    0.0000 </r>
       <r>    8.9038    0.0000 </r>
       <r>    8.9098    0.0000 </r>
       <r>    8.9670    0.0000 </r>
       <r>    8.9803    0.0000 </r>
       <r>    9.0381    0.0000 </r>
      </set>
      <set comment="kpoint 7">
       <r>   -5.8480    1.0000 </r>
       <r>   -5.7760    1.0000 </r>
       <r>   -5.3959    1.0000 </r>
       <r>   -5.3692    1.0000 </r>
       <r>   -5.3692    1.0000 </r>
       <r>   -5.1616    1.0000 </r>
       <r>   -4.0682    1.0000 </r>
       <r>   -4.0511    1.0000 </r>
       <r>   -4.0511    1.0000 </r>
       <r>   -4.0332    1.0000 </r>
       <r>   -4.0320    1.0000 </r>
       <r>   -3.9774    1.0000 </r>
       <r>   -3.9774    1.0000 </r>
       <r>   -3.9697    1.0000 </r>
       <r>   -3.8542    1.0000 </r>
       <r>   -3.8524    1.0000 </r>
       <r>   -3.8486    1.0000 </r>
       <r>   -3.8486    1.0000 </r>
       <r>   -3.7932    1.0000 </r>
       <r>   -3.7932    1.0000 </r>
       <r>   -3.7451    1.0000 </r>
       <r>   -2.9773    1.0000 </r>
       <r>   -2.1662    1.0000 </r>
       <r>   -2.1660    1.0000 </r>
       <r>   -2.0809    1.0000 </r>
       <r>   -2.0725    1.0000 </r>
       <r>   -2.0725    1.0000 </r>
       <r>   -2.0602    1.0000 </r>
       <r>   -1.9903    1.0000 </r>
       <r>   -1.9728    1.0000 </r>
       <r>   -1.9728    1.0000 </r>
       <r>   -1.3889    1.0000 </r>
       <r>   -0.9832    1.0000 </r>
       <r>   -0.9812    1.0000 </r>
       <r>   -0.9812    1.0000 </r>
       <r>   -0.9525    1.0000 </r>
       <r>   -0.8459    1.0000 </r>
       <r>   -0.8459    1.0000 </r>
       <r>   -0.8361    1.0000 </r>
       <r>   -0.4794    1.0000 </r>
       <r>   -0.0236    1.0000 </r>
       <r>   -0.0236    1.0000 </r>
       <r>   -0.0129    1.0000 </r>
       <r>   -0.0123    1.0000 </r>
       <r>    0.0223    1.0000 </r>
       <r>    0.1582    1.0000 </r>
       <r>    0.1582    1.0000 </r>
       <r>    1.4003    1.0000 </r>
       <r>    1.9116    1.0000 </r>
       <r>    1.9326    1.0000 </r>
       <r>    1.9326    1.0000 </r>
       <r>    1.9789    1.0000 </r>
       <r>    1.9919    1.0000 </r>
       <r>    1.9989    1.0000 </r>
       <r>    1.9989    1.0000 </r>
       <r>    2.0126    1.0000 </r>
       <r>    2.0151    1.0000 </r>
       <r>    2.0169    1.0000 </r>
       <r>    2.0169    1.0000 </r>
       <r>    2.0529    1.0000 </r>
       <r>    2.0751    1.0000 </r>
       <r>    2.0775    1.0000 </r>
       <r>    2.0775    1.0000 </r>
       <r>    2.1036    1.0000 </r>
       <r>    2.3316    1.0000 </r>
       <r>    2.3316    1.0000 </r>
       <r>    2.3537    1.0000 </r>
       <r>    2.5712    1.0000 </r>
       <r>    2.8046    1.0000 </r>
       <r>    2.8046    1.0000 </r>
       <r>    2.8583    1.0000 </r>
       <r>    2.8677    1.0000 </r>
       <r>    2.8677    1.0000 </r>
       <r>    2.8803    1.0000 </r>
       <r>    2.9851    1.0000 </r>
       <r>    2.9851    1.0000 </r>
       <r>    3.0069    1.0000 </r>
       <r>    3.1424    1.0000 </r>
       <r>    3.2548    1.0000 </r>
       <r>    3.2587    1.0000 </r>
       <r>    3.2587    1.0000 </r>
       <r>    3.3250    1.0000 </r>
       <r>    3.3327    1.0000 </r>
       <r>    3.3327    1.0000 </r>
       <r>    3.3343    1.0000 </r>
       <r>    3.3810    1.0000 </r>
       <r>    3.4370    1.0000 </r>
       <r>    3.5326    1.0000 </r>
       <r>    3.5326    1.0000 </r>
       <r>    3.5419    1.0000 </r>
       <r>    3.8351    1.0000 </r>
       <r>    3.8360    1.0000 </r>
       <r>    3.8549    1.0000 </r>
       <r>    3.8549    1.0000 </r>
       <r>    3.8726    1.0000 </r>
       <r>    3.8919    1.0000 </r>
       <r>    4.2137    1.0000 </r>
       <r>    4.2137    1.0000 </r>
       <r>    4.4603    1.0000 </r>
       <r>    4.4603    1.0000 </r>
       <r>    4.7414    1.0000 </r>
       <r>    4.7965    1.0000 </r>
       <r>    4.7965    1.0000 </r>
       <r>    5.0589    1.0000 </r>
       <r>    5.0798    1.0000 </r>
       <r>    5.1460    1.0000 </r>
       <r>    6.2157    0.0000 </r>
       <r>    6.2157    0.0000 </r>
       <r>    6.4176    0.0000 </r>
       <r>    6.4473    0.0000 </r>
       <r>    7.3539    0.0000 </r>
       <r>    7.4126    0.0000 </r>
       <r>    7.6764    0.0000 </r>
       <r>    7.6792    0.0000 </r>
       <r>    7.6792    0.0000 </r>
       <r>    7.6845    0.0000 </r>
       <r>    7.6992    0.0000 </r>
       <r>    7.6992    0.0000 </r>
       <r>    8.0452    0.0000 </r>
       <r>    8.0730    0.0000 </r>
       <r>    8.3904    0.0000 </r>
       <r>    8.4052    0.0000 </r>
       <r>    8.4137    0.0000 </r>
       <r>    8.4137    0.0000 </r>
       <r>    8.4138    0.0000 </r>
       <r>    8.4209    0.0000 </r>
       <r>    8.4227    0.0000 </r>
       <r>    8.4227    0.0000 </r>
       <r>    8.4935    0.0000 </r>
       <r>    8.5827    0.0000 </r>
       <r>    8.5849    0.0000 </r>
       <r>    8.6016    0.0000 </r>
       <r>    8.6016    0.0000 </r>
       <r>    8.6219    0.0000 </r>
       <r>    8.6583    0.0000 </r>
       <r>    8.6583    0.0000 </r>
       <r>    8.6820    0.0000 </r>
       <r>    8.6820    0.0000 </r>
       <r>    9.0194    0.0000 </r>
       <r>    9.1141    0.0000 </r>
       <r>    9.2004    0.0000 </r>
       <r>    9.2035    0.0000 </r>
       <r>    9.2809    0.0000 </r>
       <r>    9.2827    0.0000 </r>
      </set>
      <set comment="kpoint 8">
       <r>   -5.7425    1.0000 </r>
       <r>   -5.7320    1.0000 </r>
       <r>   -5.7189    1.0000 </r>
       <r>   -5.5436    1.0000 </r>
       <r>   -4.8187    1.0000 </r>
       <r>   -4.8098    1.0000 </r>
       <r>   -4.7732    1.0000 </r>
       <r>   -4.6460    1.0000 </r>
       <r>   -3.9976    1.0000 </r>
       <r>   -3.9953    1.0000 </r>
       <r>   -3.9945    1.0000 </r>
       <r>   -3.9931    1.0000 </r>
       <r>   -3.9542    1.0000 </r>
       <r>   -3.9334    1.0000 </r>
       <r>   -3.8949    1.0000 </r>
       <r>   -3.8543    1.0000 </r>
       <r>   -3.7636    1.0000 </r>
       <r>   -3.7419    1.0000 </r>
       <r>   -3.6994    1.0000 </r>
       <r>   -3.3659    1.0000 </r>
       <r>   -3.1079    1.0000 </r>
       <r>   -3.1014    1.0000 </r>
       <r>   -3.0154    1.0000 </r>
       <r>   -2.6511    1.0000 </r>
       <r>   -2.1501    1.0000 </r>
       <r>   -2.1443    1.0000 </r>
       <r>   -2.0719    1.0000 </r>
       <r>   -2.0591    1.0000 </r>
       <r>   -1.9535    1.0000 </r>
       <r>   -1.6149    1.0000 </r>
       <r>   -1.1819    1.0000 </r>
       <r>   -1.1759    1.0000 </r>
       <r>   -1.1575    1.0000 </r>
       <r>   -1.1568    1.0000 </r>
       <r>   -1.0081    1.0000 </r>
       <r>   -0.9665    1.0000 </r>
[...]
        <r>  0.0004  0.0014  0.0000 </r>
        <r>  0.0020  0.0027  0.0000 </r>
        <r>  0.0003  0.0037  0.0000 </r>
        <r>  0.0004  0.0014  0.0000 </r>
        <r>  0.0009  0.0102  0.0000 </r>
        <r>  0.0000  0.0035  0.0000 </r>
        <r>  0.0003  0.0037  0.0000 </r>
        <r>  0.0009  0.0102  0.0000 </r>
        <r>  0.0003  0.0037  0.0000 </r>
       </set>
       <set comment="band 138">
        <r>  0.0002  0.0028  0.0000 </r>
        <r>  0.0002  0.0028  0.0000 </r>
        <r>  0.0002  0.0066  0.0000 </r>
        <r>  0.0007  0.0063  0.0000 </r>
        <r>  0.0002  0.0028  0.0000 </r>
        <r>  0.0002  0.0066  0.0000 </r>
        <r>  0.0002  0.0028  0.0000 </r>
        <r>  0.0001  0.0071  0.0000 </r>
        <r>  0.0002  0.0028  0.0000 </r>
        <r>  0.0007  0.0063  0.0000 </r>
        <r>  0.0002  0.0066  0.0000 </r>
        <r>  0.0007  0.0063  0.0000 </r>
        <r>  0.0007  0.0063  0.0000 </r>
        <r>  0.0001  0.0038  0.0000 </r>
        <r>  0.0002  0.0028  0.0000 </r>
        <r>  0.0000  0.0000  0.0000 </r>
        <r>  0.0001  0.0038  0.0000 </r>
        <r>  0.0002  0.0028  0.0000 </r>
        <r>  0.0002  0.0066  0.0000 </r>
        <r>  0.0001  0.0071  0.0000 </r>
        <r>  0.0002  0.0028  0.0000 </r>
        <r>  0.0001  0.0038  0.0000 </r>
        <r>  0.0000  0.0000  0.0000 </r>
        <r>  0.0001  0.0071  0.0000 </r>
        <r>  0.0001  0.0038  0.0000 </r>
        <r>  0.0001  0.0071  0.0000 </r>
        <r>  0.0000  0.0012  0.0000 </r>
        <r>  0.0011  0.0038  0.0000 </r>
        <r>  0.0012  0.0038  0.0000 </r>
        <r>  0.0005  0.0023  0.0000 </r>
        <r>  0.0007  0.0020  0.0000 </r>
        <r>  0.0012  0.0038  0.0000 </r>
        <r>  0.0005  0.0023  0.0000 </r>
        <r>  0.0012  0.0038  0.0000 </r>
        <r>  0.0011  0.0008  0.0000 </r>
        <r>  0.0012  0.0038  0.0000 </r>
        <r>  0.0007  0.0020  0.0000 </r>
        <r>  0.0005  0.0023  0.0000 </r>
        <r>  0.0007  0.0020  0.0000 </r>
        <r>  0.0007  0.0020  0.0000 </r>
        <r>  0.0027  0.0021  0.0000 </r>
        <r>  0.0012  0.0038  0.0000 </r>
        <r>  0.0002  0.0003  0.0000 </r>
        <r>  0.0027  0.0021  0.0000 </r>
        <r>  0.0012  0.0038  0.0000 </r>
        <r>  0.0005  0.0023  0.0000 </r>
        <r>  0.0011  0.0008  0.0000 </r>
        <r>  0.0012  0.0038  0.0000 </r>
        <r>  0.0027  0.0021  0.0000 </r>
        <r>  0.0002  0.0003  0.0000 </r>
        <r>  0.0011  0.0008  0.0000 </r>
        <r>  0.0027  0.0021  0.0000 </r>
        <r>  0.0011  0.0008  0.0000 </r>
       </set>
       <set comment="band 139">
        <r>  0.0003  0.0050  0.0000 </r>
        <r>  0.0003  0.0050  0.0000 </r>
        <r>  0.0017  0.0017  0.0000 </r>
        <r>  0.0028  0.0019  0.0000 </r>
        <r>  0.0003  0.0050  0.0000 </r>
        <r>  0.0017  0.0017  0.0000 </r>
        <r>  0.0003  0.0050  0.0000 </r>
        <r>  0.0024  0.0014  0.0000 </r>
        <r>  0.0003  0.0050  0.0000 </r>
        <r>  0.0028  0.0019  0.0000 </r>
        <r>  0.0017  0.0017  0.0000 </r>
        <r>  0.0028  0.0019  0.0000 </r>
        <r>  0.0028  0.0019  0.0000 </r>
        <r>  0.0000  0.0035  0.0000 </r>
        <r>  0.0003  0.0050  0.0000 </r>
        <r>  0.0000  0.0008  0.0000 </r>
        <r>  0.0000  0.0035  0.0000 </r>
        <r>  0.0003  0.0050  0.0000 </r>
        <r>  0.0017  0.0017  0.0000 </r>
        <r>  0.0024  0.0014  0.0000 </r>
        <r>  0.0003  0.0050  0.0000 </r>
        <r>  0.0000  0.0035  0.0000 </r>
        <r>  0.0000  0.0008  0.0000 </r>
        <r>  0.0024  0.0014  0.0000 </r>
        <r>  0.0000  0.0035  0.0000 </r>
        <r>  0.0024  0.0014  0.0000 </r>
        <r>  0.0007  0.0000  0.0000 </r>
        <r>  0.0001  0.0075  0.0000 </r>
        <r>  0.0001  0.0074  0.0000 </r>
        <r>  0.0000  0.0026  0.0000 </r>
        <r>  0.0000  0.0016  0.0000 </r>
        <r>  0.0001  0.0074  0.0000 </r>
        <r>  0.0000  0.0026  0.0000 </r>
        <r>  0.0001  0.0074  0.0000 </r>
        <r>  0.0001  0.0021  0.0000 </r>
        <r>  0.0001  0.0074  0.0000 </r>
        <r>  0.0000  0.0016  0.0000 </r>
        <r>  0.0000  0.0026  0.0000 </r>
        <r>  0.0000  0.0016  0.0000 </r>
        <r>  0.0000  0.0016  0.0000 </r>
        <r>  0.0000  0.0109  0.0000 </r>
        <r>  0.0001  0.0074  0.0000 </r>
        <r>  0.0013  0.0001  0.0000 </r>
        <r>  0.0000  0.0109  0.0000 </r>
        <r>  0.0001  0.0075  0.0000 </r>
        <r>  0.0000  0.0026  0.0000 </r>
        <r>  0.0001  0.0021  0.0000 </r>
        <r>  0.0001  0.0075  0.0000 </r>
        <r>  0.0000  0.0109  0.0000 </r>
        <r>  0.0013  0.0001  0.0000 </r>
        <r>  0.0001  0.0021  0.0000 </r>
        <r>  0.0000  0.0109  0.0000 </r>
        <r>  0.0001  0.0021  0.0000 </r>
       </set>
       <set comment="band 140">
        <r>  0.0003  0.0055  0.0000 </r>
        <r>  0.0003  0.0055  0.0000 </r>
        <r>  0.0000  0.0043  0.0000 </r>
        <r>  0.0001  0.0070  0.0000 </r>
        <r>  0.0003  0.0055  0.0000 </r>
        <r>  0.0000  0.0042  0.0000 </r>
        <r>  0.0003  0.0055  0.0000 </r>
        <r>  0.0004  0.0033  0.0000 </r>
        <r>  0.0003  0.0055  0.0000 </r>
        <r>  0.0001  0.0070  0.0000 </r>
        <r>  0.0000  0.0042  0.0000 </r>
        <r>  0.0001  0.0070  0.0000 </r>
        <r>  0.0001  0.0070  0.0000 </r>
        <r>  0.0006  0.0099  0.0000 </r>
        <r>  0.0003  0.0055  0.0000 </r>
        <r>  0.0000  0.0004  0.0000 </r>
        <r>  0.0006  0.0099  0.0000 </r>
        <r>  0.0003  0.0055  0.0000 </r>
        <r>  0.0000  0.0042  0.0000 </r>
        <r>  0.0004  0.0033  0.0000 </r>
        <r>  0.0003  0.0055  0.0000 </r>
        <r>  0.0006  0.0099  0.0000 </r>
        <r>  0.0000  0.0004  0.0000 </r>
        <r>  0.0004  0.0033  0.0000 </r>
        <r>  0.0006  0.0099  0.0000 </r>
        <r>  0.0004  0.0033  0.0000 </r>
        <r>  0.0054  0.0000  0.0000 </r>
        <r>  0.0007  0.0025  0.0000 </r>
        <r>  0.0007  0.0025  0.0000 </r>
        <r>  0.0023  0.0027  0.0000 </r>
        <r>  0.0011  0.0021  0.0000 </r>
        <r>  0.0007  0.0025  0.0000 </r>
        <r>  0.0023  0.0027  0.0000 </r>
        <r>  0.0007  0.0025  0.0000 </r>
        <r>  0.0015  0.0038  0.0000 </r>
        <r>  0.0007  0.0025  0.0000 </r>
        <r>  0.0011  0.0021  0.0000 </r>
        <r>  0.0024  0.0027  0.0000 </r>
        <r>  0.0011  0.0021  0.0000 </r>
        <r>  0.0011  0.0021  0.0000 </r>
        <r>  0.0004  0.0022  0.0000 </r>
        <r>  0.0007  0.0025  0.0000 </r>
        <r>  0.0034  0.0000  0.0000 </r>
        <r>  0.0004  0.0022  0.0000 </r>
        <r>  0.0007  0.0025  0.0000 </r>
        <r>  0.0023  0.0028  0.0000 </r>
        <r>  0.0015  0.0038  0.0000 </r>
        <r>  0.0007  0.0025  0.0000 </r>
        <r>  0.0004  0.0022  0.0000 </r>
        <r>  0.0035  0.0000  0.0000 </r>
        <r>  0.0015  0.0038  0.0000 </r>
        <r>  0.0004  0.0022  0.0000 </r>
        <r>  0.0015  0.0038  0.0000 </r>
       </set>
       <set comment="band 141">
        <r>  0.0008  0.0014  0.0000 </r>
        <r>  0.0008  0.0014  0.0000 </r>
        <r>  0.0001  0.0059  0.0000 </r>
        <r>  0.0001  0.0092  0.0000 </r>
        <r>  0.0008  0.0014  0.0000 </r>
        <r>  0.0001  0.0059  0.0000 </r>
        <r>  0.0008  0.0014  0.0000 </r>
        <r>  0.0003  0.0078  0.0000 </r>
        <r>  0.0008  0.0014  0.0000 </r>
        <r>  0.0001  0.0092  0.0000 </r>
        <r>  0.0000  0.0060  0.0000 </r>
        <r>  0.0001  0.0092  0.0000 </r>
        <r>  0.0001  0.0092  0.0000 </r>
        <r>  0.0020  0.0019  0.0000 </r>
        <r>  0.0008  0.0014  0.0000 </r>
        <r>  0.0002  0.0003  0.0000 </r>
        <r>  0.0020  0.0019  0.0000 </r>
        <r>  0.0008  0.0014  0.0000 </r>
        <r>  0.0001  0.0060  0.0000 </r>
        <r>  0.0003  0.0079  0.0000 </r>
        <r>  0.0008  0.0014  0.0000 </r>
        <r>  0.0020  0.0019  0.0000 </r>
        <r>  0.0002  0.0003  0.0000 </r>
        <r>  0.0003  0.0078  0.0000 </r>
        <r>  0.0021  0.0019  0.0000 </r>
        <r>  0.0003  0.0078  0.0000 </r>
        <r>  0.0000  0.0140  0.0000 </r>
        <r>  0.0002  0.0017  0.0000 </r>
        <r>  0.0002  0.0017  0.0000 </r>
        <r>  0.0025  0.0026  0.0000 </r>
        <r>  0.0027  0.0012  0.0000 </r>
        <r>  0.0002  0.0017  0.0000 </r>
        <r>  0.0025  0.0026  0.0000 </r>
        <r>  0.0002  0.0017  0.0000 </r>
        <r>  0.0040  0.0019  0.0000 </r>
        <r>  0.0002  0.0017  0.0000 </r>
        <r>  0.0027  0.0012  0.0000 </r>
        <r>  0.0025  0.0026  0.0000 </r>
        <r>  0.0028  0.0012  0.0000 </r>
        <r>  0.0027  0.0012  0.0000 </r>
        <r>  0.0000  0.0013  0.0000 </r>
        <r>  0.0002  0.0017  0.0000 </r>
        <r>  0.0000  0.0064  0.0000 </r>
        <r>  0.0000  0.0013  0.0000 </r>
        <r>  0.0002  0.0017  0.0000 </r>
        <r>  0.0025  0.0026  0.0000 </r>
        <r>  0.0040  0.0019  0.0000 </r>
        <r>  0.0001  0.0017  0.0000 </r>
        <r>  0.0000  0.0013  0.0000 </r>
        <r>  0.0000  0.0064  0.0000 </r>
        <r>  0.0040  0.0019  0.0000 </r>
        <r>  0.0000  0.0013  0.0000 </r>
        <r>  0.0040  0.0019  0.0000 </r>
       </set>
       <set comment="band 142">
        <r>  0.0012  0.0050  0.0000 </r>
        <r>  0.0012  0.0051  0.0000 </r>
        <r>  0.0002  0.0071  0.0000 </r>
        <r>  0.0003  0.0012  0.0000 </r>
        <r>  0.0012  0.0051  0.0000 </r>
        <r>  0.0003  0.0070  0.0000 </r>
        <r>  0.0013  0.0051  0.0000 </r>
        <r>  0.0003  0.0091  0.0000 </r>
        <r>  0.0012  0.0052  0.0000 </r>
        <r>  0.0004  0.0012  0.0000 </r>
        <r>  0.0003  0.0070  0.0000 </r>
        <r>  0.0003  0.0012  0.0000 </r>
        <r>  0.0003  0.0012  0.0000 </r>
        <r>  0.0002  0.0120  0.0000 </r>
        <r>  0.0012  0.0051  0.0000 </r>
        <r>  0.0007  0.0000  0.0000 </r>
        <r>  0.0003  0.0118  0.0000 </r>
        <r>  0.0012  0.0051  0.0000 </r>
        <r>  0.0003  0.0070  0.0000 </r>
        <r>  0.0002  0.0092  0.0000 </r>
        <r>  0.0013  0.0051  0.0000 </r>
        <r>  0.0002  0.0119  0.0000 </r>
        <r>  0.0006  0.0000  0.0000 </r>
        <r>  0.0003  0.0092  0.0000 </r>
        <r>  0.0003  0.0117  0.0000 </r>
        <r>  0.0003  0.0092  0.0000 </r>
        <r>  0.0000  0.0005  0.0000 </r>
        <r>  0.0018  0.0027  0.0000 </r>
        <r>  0.0018  0.0027  0.0000 </r>
        <r>  0.0016  0.0003  0.0000 </r>
        <r>  0.0041  0.0027  0.0000 </r>
        <r>  0.0018  0.0027  0.0000 </r>
        <r>  0.0016  0.0002  0.0000 </r>
        <r>  0.0018  0.0028  0.0000 </r>
        <r>  0.0050  0.0008  0.0000 </r>
        <r>  0.0018  0.0026  0.0000 </r>
        <r>  0.0040  0.0027  0.0000 </r>
        <r>  0.0016  0.0003  0.0000 </r>
        <r>  0.0040  0.0027  0.0000 </r>
        <r>  0.0040  0.0026  0.0000 </r>
        <r>  0.0009  0.0005  0.0000 </r>
        <r>  0.0018  0.0028  0.0000 </r>
        <r>  0.0000  0.0009  0.0000 </r>
        <r>  0.0008  0.0005  0.0000 </r>
        <r>  0.0018  0.0028  0.0000 </r>
        <r>  0.0016  0.0003  0.0000 </r>
        <r>  0.0050  0.0008  0.0000 </r>
        <r>  0.0018  0.0027  0.0000 </r>
        <r>  0.0008  0.0005  0.0000 </r>
        <r>  0.0000  0.0009  0.0000 </r>
        <r>  0.0050  0.0009  0.0000 </r>
        <r>  0.0008  0.0005  0.0000 </r>
        <r>  0.0050  0.0010  0.0000 </r>
       </set>
       <set comment="band 143">
        <r>  0.0016  0.0015  0.0000 </r>
        <r>  0.0015  0.0016  0.0000 </r>
        <r>  0.0032  0.0013  0.0000 </r>
        <r>  0.0063  0.0003  0.0000 </r>
        <r>  0.0016  0.0016  0.0000 </r>
        <r>  0.0031  0.0014  0.0000 </r>
        <r>  0.0016  0.0015  0.0000 </r>
        <r>  0.0014  0.0013  0.0000 </r>
        <r>  0.0017  0.0016  0.0000 </r>
        <r>  0.0063  0.0003  0.0000 </r>
        <r>  0.0032  0.0013  0.0000 </r>
        <r>  0.0067  0.0003  0.0000 </r>
        <r>  0.0066  0.0003  0.0000 </r>
        <r>  0.0027  0.0021  0.0000 </r>
        <r>  0.0017  0.0015  0.0000 </r>
        <r>  0.0000  0.0001  0.0000 </r>
        <r>  0.0025  0.0023  0.0000 </r>
        <r>  0.0018  0.0015  0.0000 </r>
        <r>  0.0031  0.0014  0.0000 </r>
        <r>  0.0013  0.0012  0.0000 </r>
        <r>  0.0018  0.0015  0.0000 </r>
        <r>  0.0024  0.0022  0.0000 </r>
        <r>  0.0000  0.0001  0.0000 </r>
        <r>  0.0012  0.0013  0.0000 </r>
        <r>  0.0025  0.0023  0.0000 </r>
        <r>  0.0012  0.0013  0.0000 </r>
        <r>  0.0000  0.0066  0.0000 </r>
        <r>  0.0001  0.0057  0.0000 </r>
        <r>  0.0001  0.0054  0.0000 </r>
        <r>  0.0000  0.0047  0.0000 </r>
        <r>  0.0000  0.0118  0.0000 </r>
        <r>  0.0001  0.0053  0.0000 </r>
        <r>  0.0000  0.0047  0.0000 </r>
        <r>  0.0001  0.0058  0.0000 </r>
        <r>  0.0000  0.0108  0.0000 </r>
        <r>  0.0001  0.0055  0.0000 </r>
        <r>  0.0000  0.0118  0.0000 </r>
        <r>  0.0000  0.0047  0.0000 </r>
        <r>  0.0000  0.0118  0.0000 </r>
        <r>  0.0000  0.0118  0.0000 </r>
        <r>  0.0020  0.0018  0.0000 </r>
        <r>  0.0000  0.0055  0.0000 </r>
        <r>  0.0000  0.0062  0.0000 </r>
        <r>  0.0021  0.0017  0.0000 </r>
        <r>  0.0000  0.0059  0.0000 </r>
        <r>  0.0000  0.0046  0.0000 </r>
        <r>  0.0000  0.0107  0.0000 </r>
        <r>  0.0000  0.0058  0.0000 </r>
        <r>  0.0022  0.0017  0.0000 </r>
        <r>  0.0000  0.0061  0.0000 </r>
        <r>  0.0000  0.0103  0.0000 </r>
        <r>  0.0023  0.0017  0.0000 </r>
        <r>  0.0000  0.0103  0.0000 </r>
       </set>
       <set comment="band 144">
        <r>  0.0041  0.0028  0.0000 </r>
        <r>  0.0015  0.0021  0.0000 </r>
        <r>  0.0005  0.0023  0.0000 </r>
        <r>  0.0001  0.0047  0.0000 </r>
        <r>  0.0028  0.0012  0.0000 </r>
        <r>  0.0003  0.0030  0.0000 </r>
        <r>  0.0043  0.0013  0.0000 </r>
        <r>  0.0003  0.0009  0.0000 </r>
        <r>  0.0058  0.0020  0.0000 </r>
        <r>  0.0003  0.0033  0.0000 </r>
        <r>  0.0002  0.0043  0.0000 </r>
        <r>  0.0001  0.0037  0.0000 </r>
        <r>  0.0006  0.0022  0.0000 </r>
        <r>  0.0044  0.0028  0.0000 </r>
        <r>  0.0043  0.0020  0.0000 </r>
        <r>  0.0010  0.0029  0.0000 </r>
        <r>  0.0058  0.0017  0.0000 </r>
        <r>  0.0024  0.0010  0.0000 </r>
        <r>  0.0011  0.0050  0.0000 </r>
        <r>  0.0003  0.0007  0.0000 </r>
        <r>  0.0023  0.0014  0.0000 </r>
        <r>  0.0051  0.0017  0.0000 </r>
        <r>  0.0007  0.0017  0.0000 </r>
        <r>  0.0000  0.0008  0.0000 </r>
        <r>  0.0070  0.0037  0.0000 </r>
        <r>  0.0003  0.0006  0.0000 </r>
        <r>  0.0000  0.0072  0.0000 </r>
        <r>  0.0007  0.0037  0.0000 </r>
        <r>  0.0015  0.0025  0.0000 </r>
        <r>  0.0003  0.0077  0.0000 </r>
        <r>  0.0003  0.0028  0.0000 </r>
        <r>  0.0013  0.0041  0.0000 </r>
        <r>  0.0003  0.0053  0.0000 </r>
        <r>  0.0012  0.0059  0.0000 </r>
        <r>  0.0001  0.0095  0.0000 </r>
        <r>  0.0013  0.0060  0.0000 </r>
        <r>  0.0001  0.0025  0.0000 </r>
        <r>  0.0017  0.0056  0.0000 </r>
        <r>  0.0008  0.0021  0.0000 </r>
        <r>  0.0001  0.0019  0.0000 </r>
        <r>  0.0004  0.0044  0.0000 </r>
        <r>  0.0010  0.0047  0.0000 </r>
        <r>  0.0001  0.0101  0.0000 </r>
        <r>  0.0013  0.0050  0.0000 </r>
        <r>  0.0007  0.0037  0.0000 </r>
        <r>  0.0017  0.0039  0.0000 </r>
        <r>  0.0002  0.0090  0.0000 </r>
        <r>  0.0001  0.0026  0.0000 </r>
        <r>  0.0013  0.0046  0.0000 </r>
        <r>  0.0002  0.0148  0.0000 </r>
        <r>  0.0001  0.0078  0.0000 </r>
        <r>  0.0006  0.0042  0.0000 </r>
        <r>  0.0004  0.0106  0.0000 </r>
       </set>
      </set>
     </set>
    </set>
   </array>
  </projected>
 </calculation>
 <structure name="finalpos" >
  <crystal>
   <varray name="basis" >
    <v>       9.97646553       0.00000000       5.75991507 </v>
    <v>       3.32548851       9.40590192       5.75991507 </v>
    <v>       0.00000000       0.00000000      11.51983014 </v>
   </varray>
   <i name="volume">   1080.99386112 </i>
   <varray name="rec_basis" >
    <v>       0.10023590      -0.03543874       0.00000000 </v>
    <v>       0.00000000       0.10631623       0.00000000 </v>
    <v>      -0.05011795      -0.03543874       0.08680684 </v>
   </varray>
  </crystal>
  <varray name="positions" >
   <v>       0.29166667       0.29166667       0.62500000 </v>
   <v>       0.29166667       0.29166667       0.95833333 </v>
   <v>       0.29166667       0.62500000       0.29166667 </v>
   <v>       0.29166667       0.62500000       0.62500000 </v>
   <v>       0.29166667       0.62500000       0.95833333 </v>
   <v>       0.29166667       0.95833333       0.29166667 </v>
   <v>       0.29166667       0.95833333       0.62500000 </v>
   <v>       0.29166667       0.95833333       0.95833333 </v>
   <v>       0.62500000       0.29166667       0.29166667 </v>
   <v>       0.62500000       0.29166667       0.62500000 </v>
   <v>       0.62500000       0.29166667       0.95833333 </v>
   <v>       0.62500000       0.62500000       0.29166667 </v>
   <v>       0.62500000       0.62500000       0.62500000 </v>
   <v>       0.62500000       0.62500000       0.95833333 </v>
   <v>       0.62500000       0.95833333       0.29166667 </v>
   <v>       0.62500000       0.95833333       0.62500000 </v>
   <v>       0.62500000       0.95833333       0.95833333 </v>
   <v>       0.95833333       0.29166667       0.29166667 </v>
   <v>       0.95833333       0.29166667       0.62500000 </v>
   <v>       0.95833333       0.29166667       0.95833333 </v>
   <v>       0.95833333       0.62500000       0.29166667 </v>
   <v>       0.95833333       0.62500000       0.62500000 </v>
   <v>       0.95833333       0.62500000       0.95833333 </v>
   <v>       0.95833333       0.95833333       0.29166667 </v>
   <v>       0.95833333       0.95833333       0.62500000 </v>
   <v>       0.95833333       0.95833333       0.95833333 </v>
   <v>       0.04166667       0.04166667       0.04166667 </v>
   <v>       0.04166667       0.04166667       0.37500000 </v>
   <v>       0.04166667       0.04166667       0.70833333 </v>
   <v>       0.04166667       0.37500000       0.04166667 </v>
   <v>       0.04166667       0.37500000       0.37500000 </v>
   <v>       0.04166667       0.37500000       0.70833333 </v>
   <v>       0.04166667       0.70833333       0.04166667 </v>
   <v>       0.04166667       0.70833333       0.37500000 </v>
   <v>       0.04166667       0.70833333       0.70833333 </v>
   <v>       0.37500000       0.04166667       0.04166667 </v>
   <v>       0.37500000       0.04166667       0.37500000 </v>
   <v>       0.37500000       0.04166667       0.70833333 </v>
   <v>       0.37500000       0.37500000       0.04166667 </v>
   <v>       0.37500000       0.37500000       0.37500000 </v>
   <v>       0.37500000       0.37500000       0.70833333 </v>
   <v>       0.37500000       0.70833333       0.04166667 </v>
   <v>       0.37500000       0.70833333       0.37500000 </v>
   <v>       0.37500000       0.70833333       0.70833333 </v>
   <v>       0.70833333       0.04166667       0.04166667 </v>
   <v>       0.70833333       0.04166667       0.37500000 </v>
   <v>       0.70833333       0.04166667       0.70833333 </v>
   <v>       0.70833333       0.37500000       0.04166667 </v>
   <v>       0.70833333       0.37500000       0.37500000 </v>
   <v>       0.70833333       0.37500000       0.70833333 </v>
   <v>       0.70833333       0.70833333       0.04166667 </v>
   <v>       0.70833333       0.70833333       0.37500000 </v>
   <v>       0.70833333       0.70833333       0.70833333 </v>
  </varray>
 </structure>
</modeling>
