<?xml version="1.0" encoding="ISO-8859-1"?>
<modeling>
 <generator>
  <i name="program" type="string">vasp </i>
  <i name="version" type="string">5.3.3  </i>
  <i name="subversion" type="string">18Dez12 (build Oct 02 2015 10:56:41) complex                          parallel </i>
  <i name="platform" type="string">LinuxIFC </i>
  <i name="date" type="string">2020 05 27 </i>
  <i name="time" type="string">12:57:53 </i>
 </generator>
 <incar>
  <i type="int" name="ISTART">     1</i>
  <i type="string" name="PREC">normal</i>
  <i type="string" name="ALGO"> Normal</i>
  <i type="int" name="ISPIN">     1</i>
  <i name="AMIX">      0.20000000</i>
  <i type="int" name="ICHARG">    11</i>
  <i type="int" name="IBRION">     2</i>
  <i name="EDIFF">      0.00000100</i>
  <i name="EDIFFG">     -0.05000000</i>
  <i type="int" name="NSW">     0</i>
  <i type="int" name="ISIF">     2</i>
  <i type="int" name="ISYM">     2</i>
  <i name="ENCUT">    500.00000000</i>
  <i type="int" name="NEDOS">  2000</i>
  <i type="logical" name="LREAL"> F  </i>
  <i type="int" name="ISMEAR">     0</i>
  <i name="SIGMA">      0.05000000</i>
  <i type="logical" name="LWAVE"> T  </i>
  <i type="logical" name="LCHARG"> T  </i>
  <i type="logical" name="LORBIT"> F  </i>
 </incar>
 <kpoints>
  <generation param="listgenerated">
   <i name="divisions" type="int">      10 </i>
   <v>       0.00000000       0.00000000       0.00000000 </v>
   <v>       0.50000000       0.00000000       0.50000000 </v>
   <v>       0.50000000       0.25000000       0.75000000 </v>
   <v>       0.37500000       0.37500000       0.75000000 </v>
   <v>       0.00000000       0.00000000       0.00000000 </v>
   <v>       0.50000000       0.50000000       0.50000000 </v>
   <v>       0.62500000       0.25000000       0.62500000 </v>
   <v>       0.50000000       0.25000000       0.75000000 </v>
   <v>       0.50000000       0.50000000       0.50000000 </v>
   <v>       0.62500000       0.25000000       0.62500000 </v>
   <v>       0.50000000       0.00000000       0.50000000 </v>
  </generation>
  <varray name="kpointlist" >
   <v>       0.00000000       0.00000000       0.00000000 </v>
   <v>       0.05555556       0.00000000       0.05555556 </v>
   <v>       0.11111111       0.00000000       0.11111111 </v>
   <v>       0.16666667       0.00000000       0.16666667 </v>
   <v>       0.22222222       0.00000000       0.22222222 </v>
   <v>       0.27777778       0.00000000       0.27777778 </v>
   <v>       0.33333333       0.00000000       0.33333333 </v>
   <v>       0.38888889       0.00000000       0.38888889 </v>
   <v>       0.44444444       0.00000000       0.44444444 </v>
   <v>       0.50000000       0.00000000       0.50000000 </v>
   <v>       0.50000000       0.00000000       0.50000000 </v>
   <v>       0.50000000       0.02777778       0.52777778 </v>
   <v>       0.50000000       0.05555556       0.55555556 </v>
   <v>       0.50000000       0.08333333       0.58333333 </v>
   <v>       0.50000000       0.11111111       0.61111111 </v>
   <v>       0.50000000       0.13888889       0.63888889 </v>
   <v>       0.50000000       0.16666667       0.66666667 </v>
   <v>       0.50000000       0.19444444       0.69444444 </v>
   <v>       0.50000000       0.22222222       0.72222222 </v>
   <v>       0.50000000       0.25000000       0.75000000 </v>
   <v>       0.50000000       0.25000000       0.75000000 </v>
   <v>       0.48611111       0.26388889       0.75000000 </v>
   <v>       0.47222222       0.27777778       0.75000000 </v>
   <v>       0.45833333       0.29166667       0.75000000 </v>
   <v>       0.44444444       0.30555556       0.75000000 </v>
   <v>       0.43055556       0.31944444       0.75000000 </v>
   <v>       0.41666667       0.33333333       0.75000000 </v>
   <v>       0.40277778       0.34722222       0.75000000 </v>
   <v>       0.38888889       0.36111111       0.75000000 </v>
   <v>       0.37500000       0.37500000       0.75000000 </v>
   <v>       0.37500000       0.37500000       0.75000000 </v>
   <v>       0.33333333       0.33333333       0.66666667 </v>
   <v>       0.29166667       0.29166667       0.58333333 </v>
   <v>       0.25000000       0.25000000       0.50000000 </v>
   <v>       0.20833333       0.20833333       0.41666667 </v>
   <v>       0.16666667       0.16666667       0.33333333 </v>
   <v>       0.12500000       0.12500000       0.25000000 </v>
   <v>       0.08333333       0.08333333       0.16666667 </v>
   <v>       0.04166667       0.04166667       0.08333333 </v>
   <v>       0.00000000       0.00000000       0.00000000 </v>
   <v>       0.00000000       0.00000000       0.00000000 </v>
   <v>       0.05555556       0.05555556       0.05555556 </v>
   <v>       0.11111111       0.11111111       0.11111111 </v>
   <v>       0.16666667       0.16666667       0.16666667 </v>
   <v>       0.22222222       0.22222222       0.22222222 </v>
   <v>       0.27777778       0.27777778       0.27777778 </v>
   <v>       0.33333333       0.33333333       0.33333333 </v>
   <v>       0.38888889       0.38888889       0.38888889 </v>
   <v>       0.44444444       0.44444444       0.44444444 </v>
   <v>       0.50000000       0.50000000       0.50000000 </v>
   <v>       0.50000000       0.50000000       0.50000000 </v>
   <v>       0.51388889       0.47222222       0.51388889 </v>
   <v>       0.52777778       0.44444444       0.52777778 </v>
   <v>       0.54166667       0.41666667       0.54166667 </v>
   <v>       0.55555556       0.38888889       0.55555556 </v>
   <v>       0.56944444       0.36111111       0.56944444 </v>
   <v>       0.58333333       0.33333333       0.58333333 </v>
   <v>       0.59722222       0.30555556       0.59722222 </v>
   <v>       0.61111111       0.27777778       0.61111111 </v>
   <v>       0.62500000       0.25000000       0.62500000 </v>
   <v>       0.62500000       0.25000000       0.62500000 </v>
   <v>       0.61111111       0.25000000       0.63888889 </v>
   <v>       0.59722222       0.25000000       0.65277778 </v>
   <v>       0.58333333       0.25000000       0.66666667 </v>
   <v>       0.56944444       0.25000000       0.68055556 </v>
   <v>       0.55555556       0.25000000       0.69444444 </v>
   <v>       0.54166667       0.25000000       0.70833333 </v>
   <v>       0.52777778       0.25000000       0.72222222 </v>
   <v>       0.51388889       0.25000000       0.73611111 </v>
   <v>       0.50000000       0.25000000       0.75000000 </v>
   <v>       0.50000000       0.25000000       0.75000000 </v>
   <v>       0.50000000       0.27777778       0.72222222 </v>
   <v>       0.50000000       0.30555556       0.69444444 </v>
   <v>       0.50000000       0.33333333       0.66666667 </v>
   <v>       0.50000000       0.36111111       0.63888889 </v>
   <v>       0.50000000       0.38888889       0.61111111 </v>
   <v>       0.50000000       0.41666667       0.58333333 </v>
   <v>       0.50000000       0.44444444       0.55555556 </v>
   <v>       0.50000000       0.47222222       0.52777778 </v>
   <v>       0.50000000       0.50000000       0.50000000 </v>
   <v>       0.50000000       0.50000000       0.50000000 </v>
   <v>       0.48611111       0.48611111       0.52777778 </v>
   <v>       0.47222222       0.47222222       0.55555556 </v>
   <v>       0.45833333       0.45833333       0.58333333 </v>
   <v>       0.44444444       0.44444444       0.61111111 </v>
   <v>       0.43055556       0.43055556       0.63888889 </v>
   <v>       0.41666667       0.41666667       0.66666667 </v>
   <v>       0.40277778       0.40277778       0.69444444 </v>
   <v>       0.38888889       0.38888889       0.72222222 </v>
   <v>       0.37500000       0.37500000       0.75000000 </v>
   <v>       0.62500000       0.25000000       0.62500000 </v>
   <v>       0.61111111       0.22222222       0.61111111 </v>
   <v>       0.59722222       0.19444444       0.59722222 </v>
   <v>       0.58333333       0.16666667       0.58333333 </v>
   <v>       0.56944444       0.13888889       0.56944444 </v>
   <v>       0.55555556       0.11111111       0.55555556 </v>
   <v>       0.54166667       0.08333333       0.54166667 </v>
   <v>       0.52777778       0.05555556       0.52777778 </v>
   <v>       0.51388889       0.02777778       0.51388889 </v>
   <v>       0.50000000       0.00000000       0.50000000 </v>
  </varray>
  <varray name="weights" >
   <v>       0.01000000 </v>
   <v>       0.01000000 </v>
   <v>       0.01000000 </v>
   <v>       0.01000000 </v>
   <v>       0.01000000 </v>
   <v>       0.01000000 </v>
   <v>       0.01000000 </v>
   <v>       0.01000000 </v>
   <v>       0.01000000 </v>
   <v>       0.01000000 </v>
   <v>       0.01000000 </v>
   <v>       0.01000000 </v>
   <v>       0.01000000 </v>
   <v>       0.01000000 </v>
   <v>       0.01000000 </v>
   <v>       0.01000000 </v>
   <v>       0.01000000 </v>
   <v>       0.01000000 </v>
   <v>       0.01000000 </v>
   <v>       0.01000000 </v>
   <v>       0.01000000 </v>
   <v>       0.01000000 </v>
   <v>       0.01000000 </v>
   <v>       0.01000000 </v>
   <v>       0.01000000 </v>
   <v>       0.01000000 </v>
   <v>       0.01000000 </v>
   <v>       0.01000000 </v>
   <v>       0.01000000 </v>
   <v>       0.01000000 </v>
   <v>       0.01000000 </v>
   <v>       0.01000000 </v>
   <v>       0.01000000 </v>
   <v>       0.01000000 </v>
   <v>       0.01000000 </v>
   <v>       0.01000000 </v>
   <v>       0.01000000 </v>
   <v>       0.01000000 </v>
   <v>       0.01000000 </v>
   <v>       0.01000000 </v>
   <v>       0.01000000 </v>
   <v>       0.01000000 </v>
   <v>       0.01000000 </v>
   <v>       0.01000000 </v>
   <v>       0.01000000 </v>
   <v>       0.01000000 </v>
   <v>       0.01000000 </v>
   <v>       0.01000000 </v>
   <v>       0.01000000 </v>
   <v>       0.01000000 </v>
   <v>       0.01000000 </v>
   <v>       0.01000000 </v>
   <v>       0.01000000 </v>
   <v>       0.01000000 </v>
   <v>       0.01000000 </v>
   <v>       0.01000000 </v>
   <v>       0.01000000 </v>
   <v>       0.01000000 </v>
   <v>       0.01000000 </v>
   <v>       0.01000000 </v>
   <v>       0.01000000 </v>
   <v>       0.01000000 </v>
   <v>       0.01000000 </v>
   <v>       0.01000000 </v>
   <v>       0.01000000 </v>
   <v>       0.01000000 </v>
   <v>       0.01000000 </v>
   <v>       0.01000000 </v>
   <v>       0.01000000 </v>
   <v>       0.01000000 </v>
   <v>       0.01000000 </v>
   <v>       0.01000000 </v>
   <v>       0.01000000 </v>
   <v>       0.01000000 </v>
   <v>       0.01000000 </v>
   <v>       0.01000000 </v>
   <v>       0.01000000 </v>
   <v>       0.01000000 </v>
   <v>       0.01000000 </v>
   <v>       0.01000000 </v>
   <v>       0.01000000 </v>
   <v>       0.01000000 </v>
   <v>       0.01000000 </v>
   <v>       0.01000000 </v>
   <v>       0.01000000 </v>
   <v>       0.01000000 </v>
   <v>       0.01000000 </v>
   <v>       0.01000000 </v>
   <v>       0.01000000 </v>
   <v>       0.01000000 </v>
   <v>       0.01000000 </v>
   <v>       0.01000000 </v>
   <v>       0.01000000 </v>
   <v>       0.01000000 </v>
   <v>       0.01000000 </v>
   <v>       0.01000000 </v>
   <v>       0.01000000 </v>
   <v>       0.01000000 </v>
   <v>       0.01000000 </v>
   <v>       0.01000000 </v>
  </varray>
 </kpoints>
 <parameters>
  <separator name="general" >
   <i type="string" name="SYSTEM">unknown system</i>
   <i type="logical" name="LCOMPAT"> F  </i>
  </separator>
  <separator name="electronic" >
   <i type="string" name="PREC">normal</i>
   <i name="ENMAX">    500.00000000</i>
   <i name="ENAUG">    322.06900000</i>
   <i name="EDIFF">      0.00000100</i>
   <i type="int" name="IALGO">    38</i>
   <i type="int" name="IWAVPR">    10</i>
   <i type="int" name="NBANDS">    24</i>
   <i name="NELECT">      8.00000000</i>
   <i type="int" name="TURBO">     0</i>
   <i type="int" name="IRESTART">     0</i>
   <i type="int" name="NREBOOT">     0</i>
   <i type="int" name="NMIN">     0</i>
   <i name="EREF">      0.00000000</i>
   <separator name="electronic smearing" >
    <i type="int" name="ISMEAR">     0</i>
    <i name="SIGMA">      0.05000000</i>
    <i name="KSPACING">      0.50000000</i>
    <i type="logical" name="KGAMMA"> T  </i>
   </separator>
   <separator name="electronic projectors" >
    <i type="logical" name="LREAL"> F  </i>
    <v name="ROPT">      0.00000000</v>
    <i type="int" name="LMAXPAW">  -100</i>
    <i type="int" name="LMAXMIX">     2</i>
    <i type="logical" name="NLSPLINE"> F  </i>
   </separator>
   <separator name="electronic startup" >
    <i type="int" name="ISTART">     0</i>
    <i type="int" name="ICHARG">    11</i>
    <i type="int" name="INIWAV">     1</i>
   </separator>
   <separator name="electronic spin" >
    <i type="int" name="ISPIN">     1</i>
    <i type="logical" name="LNONCOLLINEAR"> F  </i>
    <v name="MAGMOM">      1.00000000      1.00000000</v>
    <i name="NUPDOWN">     -1.00000000</i>
    <i type="logical" name="LSORBIT"> F  </i>
    <v name="SAXIS">      0.00000000      0.00000000      1.00000000</v>
    <i type="logical" name="LSPIRAL"> F  </i>
    <v name="QSPIRAL">      0.00000000      0.00000000      0.00000000</v>
    <i type="logical" name="LZEROZ"> F  </i>
   </separator>
   <separator name="electronic exchange-correlation" >
    <i type="logical" name="LASPH"> F  </i>
    <i type="logical" name="LMETAGGA"> F  </i>
   </separator>
   <separator name="electronic convergence" >
    <i type="int" name="NELM">    60</i>
    <i type="int" name="NELMDL">     0</i>
    <i type="int" name="NELMIN">     2</i>
    <i name="ENINI">    500.00000000</i>
    <separator name="electronic convergence detail" >
     <i type="logical" name="LDIAG"> T  </i>
     <i type="logical" name="LSUBROT"> T  </i>
     <i name="WEIMIN">      0.00000000</i>
     <i name="EBREAK">      0.00000001</i>
     <i name="DEPER">      0.30000000</i>
     <i type="int" name="NRMM">     4</i>
     <i name="TIME">      0.40000000</i>
    </separator>
   </separator>
   <separator name="electronic mixer" >
    <i name="AMIX">      0.20000000</i>
    <i name="BMIX">      1.00000000</i>
    <i name="AMIN">      0.10000000</i>
    <i name="AMIX_MAG">      0.80000000</i>
    <i name="BMIX_MAG">      1.00000000</i>
    <separator name="electronic mixer details" >
     <i type="int" name="IMIX">     4</i>
     <i type="int" name="MAXMIX">   -45</i>
     <i name="WC">    100.00000000</i>
     <i type="int" name="INIMIX">     1</i>
     <i type="int" name="MIXPRE">     1</i>
     <i type="int" name="MREMOVE">     5</i>
    </separator>
   </separator>
   <separator name="electronic dipolcorrection" >
    <i type="logical" name="LDIPOL"> F  </i>
    <i type="logical" name="LMONO"> F  </i>
    <i type="int" name="IDIPOL">     0</i>
    <i name="EPSILON">      1.00000000</i>
    <v name="DIPOL">   -100.00000000   -100.00000000   -100.00000000</v>
    <i name="EFIELD">      0.00000000</i>
   </separator>
  </separator>
  <separator name="grids" >
   <i type="int" name="NGX">    24</i>
   <i type="int" name="NGY">    24</i>
   <i type="int" name="NGZ">    24</i>
   <i type="int" name="NGXF">    48</i>
   <i type="int" name="NGYF">    48</i>
   <i type="int" name="NGZF">    48</i>
   <i type="logical" name="ADDGRID"> F  </i>
  </separator>
  <separator name="ionic" >
   <i type="int" name="NSW">     0</i>
   <i type="int" name="IBRION">    -1</i>
   <i type="int" name="ISIF">     2</i>
   <i name="PSTRESS">      0.00000000</i>
   <i name="EDIFFG">     -0.05000000</i>
   <i type="int" name="NFREE">     1</i>
   <i name="POTIM">      0.50000000</i>
   <i name="SMASS">     -3.00000000</i>
   <i name="SCALEE">      1.00000000</i>
  </separator>
  <separator name="ionic md" >
   <i name="TEBEG">      0.00010000</i>
   <i name="TEEND">      0.00010000</i>
   <i type="int" name="NBLOCK">     1</i>
   <i type="int" name="KBLOCK">     1</i>
   <i type="int" name="NPACO">   256</i>
   <i name="APACO">     16.00000000</i>
  </separator>
  <separator name="symmetry" >
   <i type="int" name="ISYM">     2</i>
   <i name="SYMPREC">      0.00001000</i>
  </separator>
  <separator name="dos" >
   <i type="logical" name="LORBIT"> F  </i>
   <v name="RWIGS">     -1.00000000</v>
   <i type="int" name="NEDOS">  2000</i>
   <i name="EMIN">     10.00000000</i>
   <i name="EMAX">    -10.00000000</i>
   <i name="EFERMI">      0.00000000</i>
  </separator>
  <separator name="writing" >
   <i type="int" name="NWRITE">     2</i>
   <i type="logical" name="LWAVE"> T  </i>
   <i type="logical" name="LCHARG"> T  </i>
   <i type="logical" name="LPARD"> F  </i>
   <i type="logical" name="LVTOT"> F  </i>
   <i type="logical" name="LVHAR"> F  </i>
   <i type="logical" name="LELF"> F  </i>
   <i type="logical" name="LOPTICS"> F  </i>
   <v name="STM">      0.00000000      0.00000000      0.00000000      0.00000000      0.00000000      0.00000000      0.00000000</v>
  </separator>
  <separator name="performance" >
   <i type="int" name="NPAR">    24</i>
   <i type="int" name="NSIM">     4</i>
   <i type="int" name="NBLK">    -1</i>
   <i type="logical" name="LPLANE"> T  </i>
   <i type="logical" name="LSCALAPACK"> F  </i>
   <i type="logical" name="LSCAAWARE"> F  </i>
   <i type="logical" name="LSCALU"> F  </i>
   <i type="logical" name="LASYNC"> F  </i>
   <i type="logical" name="LORBITALREAL"> F  </i>
  </separator>
  <separator name="miscellaneous" >
   <i type="int" name="IDIOT">     3</i>
   <i type="logical" name="LMUSIC"> F  </i>
   <v name="POMASS">     28.08500000</v>
   <v name="DARWINR">      0.00000000</v>
   <v name="DARWINV">      1.00000000</v>
   <i type="logical" name="LCORR"> T  </i>
  </separator>
  <i type="logical" name="GGA_COMPAT"> T  </i>
  <i type="logical" name="LBERRY"> F  </i>
  <i type="int" name="ICORELEVEL">     0</i>
  <i type="logical" name="LDAU"> F  </i>
  <i type="int" name="I_CONSTRAINED_M">     0</i>
  <separator name="electronic exchange-correlation" >
   <i type="string" name="GGA">--</i>
   <i type="int" name="VOSKOWN">     0</i>
   <i type="logical" name="LHFCALC"> F  </i>
   <i type="string" name="PRECFOCK"></i>
   <i type="logical" name="LSYMGRAD"> F  </i>
   <i type="logical" name="LHFONE"> F  </i>
   <i type="logical" name="LRHFCALC"> F  </i>
   <i type="logical" name="LTHOMAS"> F  </i>
   <i type="logical" name="LMODELHF"> F  </i>
   <i name="ENCUT4O">     -1.00000000</i>
   <i type="int" name="EXXOEP">     0</i>
   <i type="int" name="FOURORBIT">     0</i>
   <i name="AEXX">      0.00000000</i>
   <i name="HFALPHA">      0.00000000</i>
   <i name="MCALPHA">      0.00000000</i>
   <i name="ALDAX">      1.00000000</i>
   <i name="AGGAX">      1.00000000</i>
   <i name="ALDAC">      1.00000000</i>
   <i name="AGGAC">      1.00000000</i>
   <i type="int" name="NKREDX">     1</i>
   <i type="int" name="NKREDY">     1</i>
   <i type="int" name="NKREDZ">     1</i>
   <i type="logical" name="SHIFTRED"> F  </i>
   <i type="logical" name="ODDONLY"> F  </i>
   <i type="logical" name="EVENONLY"> F  </i>
   <i type="int" name="LMAXFOCK">     0</i>
   <i type="int" name="NMAXFOCKAE">     0</i>
   <i type="logical" name="LFOCKAEDFT"> F  </i>
   <i name="HFSCREEN">      0.00000000</i>
   <i name="HFSCREENC">      0.00000000</i>
   <i type="int" name="NBANDSGWLOW">     0</i>
  </separator>
  <separator name="vdW DFT" >
   <i type="logical" name="LUSE_VDW"> F  </i>
   <i name="Zab_VDW">     -0.84910000</i>
   <i name="PARAM1">      0.12340000</i>
   <i name="PARAM2">      1.00000000</i>
   <i name="PARAM3">      0.00000000</i>
  </separator>
  <separator name="model GW" >
   <i type="int" name="MODEL_GW">     0</i>
   <i name="MODEL_EPS0">     12.01104486</i>
   <i name="MODEL_ALPHA">      1.00000000</i>
  </separator>
  <separator name="linear response parameters" >
   <i type="logical" name="LEPSILON"> F  </i>
   <i type="logical" name="LRPA"> F  </i>
   <i type="logical" name="LNABLA"> F  </i>
   <i type="logical" name="LVEL"> F  </i>
   <i type="int" name="KINTER">     0</i>
   <i name="CSHIFT">      0.10000000</i>
   <i name="OMEGAMAX">     -1.00000000</i>
   <i name="DEG_THRESHOLD">      0.00200000</i>
  </separator>
  <separator name="orbital magnetization" >
   <i type="logical" name="NUCIND"> F  </i>
   <v name="MAGPOS">      0.00000000      0.00000000      0.00000000</v>
   <i type="logical" name="LNICSALL"> T  </i>
   <i type="logical" name="ORBITALMAG"> F  </i>
   <i type="logical" name="LMAGBLOCH"> F  </i>
   <i type="logical" name="LCHIMAG"> F  </i>
   <i type="logical" name="LGAUGE"> T  </i>
   <i type="int" name="MAGATOM">     0</i>
   <v name="MAGDIPOL">      0.00000000      0.00000000      0.00000000</v>
   <v name="AVECCONST">      0.00000000      0.00000000      0.00000000</v>
  </separator>
  <separator name="response functions" >
   <i type="logical" name="LADDER"> F  </i>
   <i type="logical" name="LFXC"> F  </i>
   <i type="logical" name="LHARTREE"> T  </i>
   <i type="int" name="IBSE">     0</i>
   <i type="logical" name="LTCTE"> F  </i>
   <i type="logical" name="LTETE"> F  </i>
   <i type="logical" name="LTRIPLET"> F  </i>
   <i type="logical" name="LFXCEPS"> F  </i>
   <i type="logical" name="L2ORDER"> F  </i>
   <i type="logical" name="LUSEW"> F  </i>
   <i name="ENCUTGW">     -2.00000000</i>
   <i name="ENCUTGWSOFT">     -2.00000000</i>
   <i name="ENCUTLF">     -1.00000000</i>
   <i type="int" name="LMAXMP2">    -1</i>
   <i name="SCISSOR">      0.00000000</i>
   <i type="int" name="NOMEGA">     0</i>
   <i type="int" name="NOMEGAR">     0</i>
   <i type="int" name="NBANDSGW">    -1</i>
   <i type="int" name="NBANDSO">    -1</i>
   <i type="int" name="NBANDSV">    -1</i>
   <i type="int" name="NELM">     1</i>
   <i type="int" name="DIM">     3</i>
   <i type="int" name="ANTIRES">     0</i>
   <i name="OMEGAMAX">    -30.00000000</i>
   <i name="OMEGATL">   -200.00000000</i>
   <i type="int" name="OMEGAGRID">     0</i>
   <i name="CSHIFT">     -0.10000000</i>
   <i type="logical" name="SELFENERGY"> F  </i>
   <i type="logical" name="LSPECTRAL"> F  </i>
   <i type="logical" name="ODDONLYGW"> F  </i>
   <i type="logical" name="EVENONLYGW"> F  </i>
   <i type="int" name="NKREDLFX">     1</i>
   <i type="int" name="NKREDLFY">     1</i>
   <i type="int" name="NKREDLFZ">     1</i>
   <i type="int" name="MAXMEM">  1800</i>
   <i type="int" name="TELESCOPE">     0</i>
  </separator>
 </parameters>
 <atominfo>
  <atoms>       2 </atoms>
  <types>       1 </types>
  <array name="atoms" >
   <dimension dim="1">ion</dimension>
   <field type="string">element</field>
   <field type="int">atomtype</field>
   <set>
    <rc><c>Si</c><c>   1</c></rc>
    <rc><c>Si</c><c>   1</c></rc>
   </set>
  </array>
  <array name="atomtypes" >
   <dimension dim="1">type</dimension>
   <field type="int">atomspertype</field>
   <field type="string">element</field>
   <field>mass</field>
   <field>valence</field>
   <field type="string">pseudopotential</field>
   <set>
    <rc><c>   2</c><c>Si</c><c>     28.08500000</c><c>      4.00000000</c><c>  PAW_PBE Si 05Jan2001                  </c></rc>
   </set>
  </array>
 </atominfo>
 <structure name="initialpos" >
  <crystal>
   <varray name="basis" >
    <v>       3.32548900       0.00000000       1.91997200 </v>
    <v>       1.10849600       3.13530100       1.91997200 </v>
    <v>       0.00000000       0.00000000       3.83994300 </v>
   </varray>
   <i name="volume">     40.03681621 </i>
   <varray name="rec_basis" >
    <v>       0.30070766      -0.10631618       0.00000000 </v>
    <v>       0.00000000       0.31894864       0.00000000 </v>
    <v>      -0.15035387      -0.10631626       0.26042053 </v>
   </varray>
  </crystal>
  <varray name="positions" >
   <v>       0.87500000       0.87500000       0.87500000 </v>
   <v>       0.12500000       0.12500000       0.12500000 </v>
  </varray>
 </structure>
 <calculation>
  <scstep>
   <time name="dav">    0.62    0.83</time>
   <time name="total">    0.63    0.84</time>
   <energy>
    <i name="alphaZ">      3.36321756 </i>
    <i name="ewald">   -228.54246794 </i>
    <i name="hartreedc">    -14.91937768 </i>
    <i name="XCdc">    -17.96422021 </i>
    <i name="pawpsdc">    870.71669431 </i>
    <i name="pawaedc">   -835.75391069 </i>
    <i name="eentropy">     -0.00110637 </i>
    <i name="bandstr">     12.36656098 </i>
    <i name="atom">    206.13251344 </i>
    <i name="e_fr_energy">     -4.60209661 </i>
    <i name="e_wo_entrp">     -4.60099024 </i>
    <i name="e_0_energy">     -4.60154342 </i>
   </energy>
  </scstep>
  <scstep>
   <time name="dav">    0.90    0.91</time>
   <time name="total">    0.91    0.91</time>
   <energy>
    <i name="e_fr_energy">    -10.98478192 </i>
    <i name="e_wo_entrp">    -10.98478192 </i>
    <i name="e_0_energy">    -10.98478192 </i>
   </energy>
  </scstep>
  <scstep>
   <time name="dav">    0.53    0.53</time>
   <time name="total">    0.53    0.54</time>
   <energy>
    <i name="e_fr_energy">    -11.00285910 </i>
    <i name="e_wo_entrp">    -11.00285910 </i>
    <i name="e_0_energy">    -11.00285910 </i>
   </energy>
  </scstep>
  <scstep>
   <time name="dav">    1.26    1.27</time>
   <time name="total">    1.27    1.27</time>
   <energy>
    <i name="e_fr_energy">    -11.00288193 </i>
    <i name="e_wo_entrp">    -11.00288193 </i>
    <i name="e_0_energy">    -11.00288193 </i>
   </energy>
  </scstep>
  <scstep>
   <time name="dav">    0.55    0.55</time>
   <time name="total">    0.55    0.55</time>
   <energy>
    <i name="e_fr_energy">    -11.00288193 </i>
    <i name="e_wo_entrp">    -11.00288193 </i>
    <i name="e_0_energy">    -11.00288193 </i>
   </energy>
  </scstep>
  <scstep>
   <time name="dav">    1.22    1.22</time>
   <time name="total">    1.22    1.22</time>
   <energy>
    <i name="alphaZ">      3.36321756 </i>
    <i name="ewald">   -228.54246794 </i>
    <i name="hartreedc">    -14.91937768 </i>
    <i name="XCdc">    -17.96422021 </i>
    <i name="pawpsdc">    870.71669431 </i>
    <i name="pawaedc">   -835.75391069 </i>
    <i name="eentropy">     -0.00000000 </i>
    <i name="bandstr">      5.96466929 </i>
    <i name="atom">    206.13251344 </i>
    <i name="e_fr_energy">    -11.00288193 </i>
    <i name="e_wo_entrp">    -11.00288193 </i>
    <i name="e_0_energy">    -11.00288193 </i>
   </energy>
  </scstep>
  <structure>
   <crystal>
    <varray name="basis" >
     <v>       3.32548900       0.00000000       1.91997200 </v>
     <v>       1.10849600       3.13530100       1.91997200 </v>
     <v>       0.00000000       0.00000000       3.83994300 </v>
    </varray>
    <i name="volume">     40.03681621 </i>
    <varray name="rec_basis" >
     <v>       0.30070766      -0.10631618       0.00000000 </v>
     <v>       0.00000000       0.31894864       0.00000000 </v>
     <v>      -0.15035387      -0.10631626       0.26042053 </v>
    </varray>
   </crystal>
   <varray name="positions" >
    <v>       0.87500000       0.87500000       0.87500000 </v>
    <v>       0.12500000       0.12500000       0.12500000 </v>
   </varray>
  </structure>
  <varray name="forces" >
   <v>       0.00000000       0.00000000       0.00000000 </v>
   <v>      -0.00000000      -0.00000000      -0.00000000 </v>
  </varray>
  <varray name="stress" >
   <v>      12.04337246      -0.00000128       0.00000181 </v>
   <v>      -0.00000128      12.04337172       0.00000128 </v>
   <v>       0.00000181       0.00000128      12.04336657 </v>
  </varray>
  <energy>
   <i name="e_fr_energy">    -11.00288193 </i>
   <i name="e_wo_entrp">    -11.00288193 </i>
   <i name="e_0_energy">     -0.00000000 </i>
  </energy>
  <time name="totalsc">    5.67    5.97</time>
  <eigenvalues>
   <array>
    <dimension dim="1">band</dimension>
    <dimension dim="2">kpoint</dimension>
    <dimension dim="3">spin</dimension>
    <field>eigene</field>
    <field>occ</field>
    <set>
     <set comment="spin 1">
      <set comment="kpoint 1">
       <r>   -6.1314    1.0000 </r>
       <r>    5.8267    1.0000 </r>
       <r>    5.8267    1.0000 </r>
       <r>    5.8267    1.0000 </r>
       <r>    8.3926    0.0000 </r>
       <r>    8.3926    0.0000 </r>
       <r>    8.3926    0.0000 </r>
       <r>    9.2018    0.0000 </r>
       <r>   13.5469    0.0000 </r>
       <r>   13.5469    0.0000 </r>
       <r>   13.7874    0.0000 </r>
       <r>   17.0802    0.0000 </r>
       <r>   17.0802    0.0000 </r>
       <r>   17.0802    0.0000 </r>
       <r>   21.2342    0.0000 </r>
       <r>   28.9327    0.0000 </r>
       <r>   28.9327    0.0000 </r>
       <r>   28.9327    0.0000 </r>
       <r>   30.0351    0.0000 </r>
       <r>   30.0351    0.0000 </r>
       <r>   31.6473    0.0000 </r>
       <r>   31.6473    0.0000 </r>
       <r>   31.6474    0.0000 </r>
       <r>   35.0385    0.0000 </r>
      </set>
      <set comment="kpoint 2">
       <r>   -6.0774    1.0000 </r>
       <r>    5.4877    1.0000 </r>
       <r>    5.6141    1.0000 </r>
       <r>    5.6141    1.0000 </r>
       <r>    8.2635    0.0000 </r>
       <r>    8.6716    0.0000 </r>
       <r>    8.6716    0.0000 </r>
       <r>    9.5274    0.0000 </r>
       <r>   13.1520    0.0000 </r>
       <r>   13.6067    0.0000 </r>
       <r>   14.0231    0.0000 </r>
       <r>   17.1741    0.0000 </r>
       <r>   17.1741    0.0000 </r>
       <r>   17.3539    0.0000 </r>
       <r>   21.6222    0.0000 </r>
       <r>   28.2052    0.0000 </r>
       <r>   28.2052    0.0000 </r>
       <r>   29.0014    0.0000 </r>
       <r>   29.3946    0.0000 </r>
       <r>   29.6209    0.0000 </r>
       <r>   31.9051    0.0000 </r>
       <r>   32.0776    0.0000 </r>
       <r>   32.0776    0.0000 </r>
       <r>   35.4561    0.0000 </r>
      </set>
      <set comment="kpoint 3">
       <r>   -5.9156    1.0000 </r>
       <r>    4.7179    1.0000 </r>
       <r>    5.1497    1.0000 </r>
       <r>    5.1497    1.0000 </r>
       <r>    7.9386    0.0000 </r>
       <r>    9.3338    0.0000 </r>
       <r>    9.3338    0.0000 </r>
       <r>   10.1342    0.0000 </r>
       <r>   12.4453    0.0000 </r>
       <r>   13.7861    0.0000 </r>
       <r>   14.6654    0.0000 </r>
       <r>   17.4543    0.0000 </r>
       <r>   17.4543    0.0000 </r>
       <r>   17.8944    0.0000 </r>
       <r>   22.7008    0.0000 </r>
       <r>   26.8112    0.0000 </r>
       <r>   26.8112    0.0000 </r>
       <r>   28.0306    0.0000 </r>
       <r>   28.7613    0.0000 </r>
       <r>   29.2162    0.0000 </r>
       <r>   32.2954    0.0000 </r>
       <r>   32.6344    0.0000 </r>
       <r>   32.6344    0.0000 </r>
       <r>   36.6451    0.0000 </r>
      </set>
      <set comment="kpoint 4">
       <r>   -5.6472    1.0000 </r>
       <r>    3.7911    1.0000 </r>
       <r>    4.6353    1.0000 </r>
       <r>    4.6353    1.0000 </r>
       <r>    7.5336    0.0000 </r>
       <r>   10.1317    0.0000 </r>
       <r>   10.1734    0.0000 </r>
       <r>   10.1734    0.0000 </r>
       <r>   12.4437    0.0000 </r>
       <r>   14.0847    0.0000 </r>
       <r>   15.5895    0.0000 </r>
       <r>   17.9123    0.0000 </r>
       <r>   17.9123    0.0000 </r>
       <r>   18.4928    0.0000 </r>
       <r>   24.2390    0.0000 </r>
       <r>   25.3155    0.0000 </r>
       <r>   25.3155    0.0000 </r>
       <r>   26.4815    0.0000 </r>
       <r>   27.7559    0.0000 </r>
       <r>   29.6102    0.0000 </r>
       <r>   32.5086    0.0000 </r>
       <r>   33.0064    0.0000 </r>
       <r>   33.0064    0.0000 </r>
       <r>   37.7569    0.0000 </r>
      </set>
      <set comment="kpoint 5">
       <r>   -5.2742    1.0000 </r>
       <r>    2.8106    1.0000 </r>
       <r>    4.1551    1.0000 </r>
       <r>    4.1551    1.0000 </r>
       <r>    7.1367    0.0000 </r>
       <r>    9.3857    0.0000 </r>
       <r>   11.1008    0.0000 </r>
       <r>   11.1008    0.0000 </r>
       <r>   13.3367    0.0000 </r>
       <r>   14.5024    0.0000 </r>
       <r>   16.6856    0.0000 </r>
       <r>   18.5161    0.0000 </r>
       <r>   18.5161    0.0000 </r>
       <r>   19.1697    0.0000 </r>
       <r>   23.8902    0.0000 </r>
       <r>   23.8902    0.0000 </r>
       <r>   24.9257    0.0000 </r>
       <r>   25.9563    0.0000 </r>
       <r>   26.7169    0.0000 </r>
       <r>   30.2700    0.0000 </r>
       <r>   32.3876    0.0000 </r>
       <r>   33.2150    0.0000 </r>
       <r>   33.2150    0.0000 </r>
       <r>   36.1065    0.0000 </r>
      </set>
      <set comment="kpoint 6">
       <r>   -4.7994    1.0000 </r>
       <r>    1.8135    1.0000 </r>
       <r>    3.7422    1.0000 </r>
       <r>    3.7422    1.0000 </r>
       <r>    6.8004    0.0000 </r>
       <r>    8.5507    0.0000 </r>
       <r>   12.0791    0.0000 </r>
       <r>   12.0791    0.0000 </r>
       <r>   14.4833    0.0000 </r>
       <r>   15.0386    0.0000 </r>
       <r>   17.8503    0.0000 </r>
       <r>   19.1392    0.0000 </r>
       <r>   19.1392    0.0000 </r>
       <r>   19.9763    0.0000 </r>
       <r>   22.7064    0.0000 </r>
       <r>   22.7064    0.0000 </r>
       <r>   23.4251    0.0000 </r>
       <r>   25.7365    0.0000 </r>
       <r>   27.5441    0.0000 </r>
       <r>   31.3682    0.0000 </r>
       <r>   31.7392    0.0000 </r>
       <r>   32.8475    0.0000 </r>
       <r>   32.8475    0.0000 </r>
       <r>   34.7968    0.0000 </r>
      </set>
      <set comment="kpoint 7">
       <r>   -4.2269    1.0000 </r>
       <r>    0.8191    1.0000 </r>
       <r>    3.4118    1.0000 </r>
       <r>    3.4118    1.0000 </r>
       <r>    6.5552    0.0000 </r>
       <r>    7.8194    0.0000 </r>
       <r>   13.0919    0.0000 </r>
       <r>   13.0919    0.0000 </r>
       <r>   15.6781    0.0000 </r>
       <r>   15.6927    0.0000 </r>
       <r>   18.9254    0.0000 </r>
       <r>   19.3092    0.0000 </r>
       <r>   19.3092    0.0000 </r>
       <r>   20.9478    0.0000 </r>
       <r>   22.0064    0.0000 </r>
       <r>   22.2494    0.0000 </r>
       <r>   22.2494    0.0000 </r>
       <r>   24.9605    0.0000 </r>
       <r>   28.7627    0.0000 </r>
       <r>   30.4642    0.0000 </r>
       <r>   31.3242    0.0000 </r>
       <r>   31.3242    0.0000 </r>
       <r>   32.5356    0.0000 </r>
       <r>   33.4926    0.0000 </r>
      </set>
      <set comment="kpoint 8">
       <r>   -3.5622    1.0000 </r>
       <r>   -0.1563    1.0000 </r>
       <r>    3.1718    1.0000 </r>
       <r>    3.1718    1.0000 </r>
       <r>    6.4208    0.0000 </r>
       <r>    7.2361    0.0000 </r>
       <r>   14.1307    0.0000 </r>
       <r>   14.1307    0.0000 </r>
       <r>   16.4636    0.0000 </r>
       <r>   16.8474    0.0000 </r>
       <r>   18.6143    0.0000 </r>
       <r>   18.6143    0.0000 </r>
       <r>   19.5988    0.0000 </r>
       <r>   20.6829    0.0000 </r>
       <r>   22.0975    0.0000 </r>
       <r>   22.9293    0.0000 </r>
       <r>   22.9293    0.0000 </r>
       <r>   24.6663    0.0000 </r>
       <r>   28.8612    0.0000 </r>
       <r>   29.4464    0.0000 </r>
       <r>   29.4464    0.0000 </r>
       <r>   29.6225    0.0000 </r>
       <r>   30.8152    0.0000 </r>
       <r>   32.8265    0.0000 </r>
      </set>
      <set comment="kpoint 9">
       <r>   -2.8124    1.0000 </r>
       <r>   -1.0968    1.0000 </r>
       <r>    3.0263    1.0000 </r>
       <r>    3.0263    1.0000 </r>
       <r>    6.4111    0.0000 </r>
       <r>    6.8099    0.0000 </r>
       <r>   15.1774    0.0000 </r>
       <r>   15.1774    0.0000 </r>
       <r>   17.3502    0.0000 </r>
       <r>   17.5809    0.0000 </r>
       <r>   17.5809    0.0000 </r>
       <r>   17.9405    0.0000 </r>
       <r>   19.4627    0.0000 </r>
       <r>   19.5436    0.0000 </r>
       <r>   23.4001    0.0000 </r>
       <r>   24.2180    0.0000 </r>
       <r>   24.2180    0.0000 </r>
       <r>   24.9930    0.0000 </r>
       <r>   27.4097    0.0000 </r>
       <r>   27.5861    0.0000 </r>
       <r>   27.5861    0.0000 </r>
       <r>   28.7879    0.0000 </r>
       <r>   30.5895    0.0000 </r>
       <r>   32.0628    0.0000 </r>
      </set>
      <set comment="kpoint 10">
       <r>   -1.9867    1.0000 </r>
       <r>   -1.9867    1.0000 </r>
       <r>    2.9776    1.0000 </r>
       <r>    2.9776    1.0000 </r>
       <r>    6.5375    0.0000 </r>
       <r>    6.5375    0.0000 </r>
       <r>   15.9436    0.0000 </r>
       <r>   15.9436    0.0000 </r>
       <r>   16.8002    0.0000 </r>
       <r>   16.8002    0.0000 </r>
       <r>   18.3506    0.0000 </r>
       <r>   18.3506    0.0000 </r>
       <r>   18.8902    0.0000 </r>
       <r>   18.8902    0.0000 </r>
       <r>   24.6821    0.0000 </r>
       <r>   24.6821    0.0000 </r>
       <r>   25.5856    0.0000 </r>
       <r>   25.5856    0.0000 </r>
       <r>   26.0419    0.0000 </r>
       <r>   26.0419    0.0000 </r>
       <r>   27.3652    0.0000 </r>
       <r>   27.3652    0.0000 </r>
       <r>   31.3162    0.0000 </r>
       <r>   31.3162    0.0000 </r>
      </set>
      <set comment="kpoint 11">
       <r>   -1.9867    1.0000 </r>
       <r>   -1.9867    1.0000 </r>
       <r>    2.9776    1.0000 </r>
       <r>    2.9776    1.0000 </r>
       <r>    6.5375    0.0000 </r>
       <r>    6.5375    0.0000 </r>
       <r>   15.9436    0.0000 </r>
       <r>   15.9436    0.0000 </r>
       <r>   16.8002    0.0000 </r>
       <r>   16.8002    0.0000 </r>
       <r>   18.3506    0.0000 </r>
       <r>   18.3506    0.0000 </r>
       <r>   18.8902    0.0000 </r>
       <r>   18.8902    0.0000 </r>
       <r>   24.6821    0.0000 </r>
       <r>   24.6821    0.0000 </r>
       <r>   25.5856    0.0000 </r>
       <r>   25.5856    0.0000 </r>
       <r>   26.0419    0.0000 </r>
       <r>   26.0419    0.0000 </r>
       <r>   27.3652    0.0000 </r>
       <r>   27.3652    0.0000 </r>
       <r>   31.3162    0.0000 </r>
       <r>   31.3162    0.0000 </r>
      </set>
      <set comment="kpoint 12">
       <r>   -1.9822    1.0000 </r>
       <r>   -1.9822    1.0000 </r>
       <r>    2.9370    1.0000 </r>
       <r>    2.9370    1.0000 </r>
       <r>    6.6121    0.0000 </r>
       <r>    6.6121    0.0000 </r>
       <r>   15.8129    0.0000 </r>
       <r>   15.8129    0.0000 </r>
       <r>   16.6536    0.0000 </r>
       <r>   16.6536    0.0000 </r>
       <r>   18.4650    0.0000 </r>
       <r>   18.4650    0.0000 </r>
       <r>   19.0664    0.0000 </r>
       <r>   19.0664    0.0000 </r>
       <r>   24.4899    0.0000 </r>
       <r>   24.4899    0.0000 </r>
       <r>   25.5586    0.0000 </r>
       <r>   25.5586    0.0000 </r>
       <r>   26.2129    0.0000 </r>
       <r>   26.2129    0.0000 </r>
       <r>   27.4820    0.0000 </r>
       <r>   27.4820    0.0000 </r>
       <r>   31.1781    0.0000 </r>
       <r>   31.1781    0.0000 </r>
      </set>
      <set comment="kpoint 13">
       <r>   -1.9691    1.0000 </r>
       <r>   -1.9691    1.0000 </r>
       <r>    2.8263    1.0000 </r>
       <r>    2.8263    1.0000 </r>
       <r>    6.8250    0.0000 </r>
       <r>    6.8250    0.0000 </r>
       <r>   15.3787    0.0000 </r>
       <r>   15.3787    0.0000 </r>
       <r>   16.4902    0.0000 </r>
       <r>   16.4902    0.0000 </r>
       <r>   18.5706    0.0000 </r>
       <r>   18.5706    0.0000 </r>
       <r>   19.5970    0.0000 </r>
       <r>   19.5970    0.0000 </r>
       <r>   24.1131    0.0000 </r>
       <r>   24.1132    0.0000 </r>
       <r>   25.4131    0.0000 </r>
       <r>   25.4131    0.0000 </r>
       <r>   26.6232    0.0000 </r>
       <r>   26.6232    0.0000 </r>
       <r>   27.7929    0.0000 </r>
       <r>   27.7929    0.0000 </r>
       <r>   30.8169    0.0000 </r>
       <r>   30.8170    0.0000 </r>
      </set>
      <set comment="kpoint 14">
       <r>   -1.9486    1.0000 </r>
       <r>   -1.9486    1.0000 </r>
       <r>    2.6712    1.0000 </r>
       <r>    2.6712    1.0000 </r>
       <r>    7.1514    0.0000 </r>
       <r>    7.1514    0.0000 </r>
       <r>   14.7429    0.0000 </r>
       <r>   14.7429    0.0000 </r>
       <r>   16.4281    0.0000 </r>
       <r>   16.4281    0.0000 </r>
       <r>   18.6307    0.0000 </r>
       <r>   18.6307    0.0000 </r>
       <r>   20.2951    0.0000 </r>
       <r>   20.2952    0.0000 </r>
       <r>   23.7198    0.0000 </r>
       <r>   23.7198    0.0000 </r>
       <r>   25.2125    0.0000 </r>
       <r>   25.2125    0.0000 </r>
       <r>   27.0744    0.0000 </r>
       <r>   27.0744    0.0000 </r>
       <r>   28.2360    0.0000 </r>
       <r>   28.2360    0.0000 </r>
       <r>   30.3489    0.0000 </r>
       <r>   30.3489    0.0000 </r>
      </set>
      <set comment="kpoint 15">
       <r>   -1.9228    1.0000 </r>
       <r>   -1.9228    1.0000 </r>
       <r>    2.4987    1.0000 </r>
       <r>    2.4987    1.0000 </r>
       <r>    7.5653    0.0000 </r>
       <r>    7.5653    0.0000 </r>
       <r>   14.0366    0.0000 </r>
       <r>   14.0366    0.0000 </r>
       <r>   16.4079    0.0000 </r>
       <r>   16.4079    0.0000 </r>
       <r>   18.6837    0.0000 </r>
       <r>   18.6837    0.0000 </r>
       <r>   21.0418    0.0000 </r>
       <r>   21.0418    0.0000 </r>
       <r>   23.3645    0.0000 </r>
       <r>   23.3645    0.0000 </r>
       <r>   25.0107    0.0000 </r>
       <r>   25.0107    0.0000 </r>
       <r>   27.4345    0.0000 </r>
       <r>   27.4345    0.0000 </r>
       <r>   28.7288    0.0000 </r>
       <r>   28.7288    0.0000 </r>
       <r>   29.9484    0.0000 </r>
       <r>   29.9484    0.0000 </r>
      </set>
      <set comment="kpoint 16">
       <r>   -1.8944    1.0000 </r>
       <r>   -1.8944    1.0000 </r>
       <r>    2.3312    1.0000 </r>
       <r>    2.3312    1.0000 </r>
       <r>    8.0456    0.0000 </r>
       <r>    8.0456    0.0000 </r>
       <r>   13.3125    0.0000 </r>
       <r>   13.3126    0.0000 </r>
       <r>   16.4027    0.0000 </r>
       <r>   16.4027    0.0000 </r>
       <r>   18.7367    0.0000 </r>
       <r>   18.7367    0.0000 </r>
       <r>   21.7765    0.0000 </r>
       <r>   21.7765    0.0000 </r>
       <r>   23.0887    0.0000 </r>
       <r>   23.0887    0.0000 </r>
       <r>   24.8308    0.0000 </r>
       <r>   24.8308    0.0000 </r>
       <r>   27.5437    0.0000 </r>
       <r>   27.5437    0.0000 </r>
       <r>   29.0121    0.0000 </r>
       <r>   29.0121    0.0000 </r>
       <r>   30.0248    0.0000 </r>
       <r>   30.0248    0.0000 </r>
      </set>
      <set comment="kpoint 17">
       <r>   -1.8669    1.0000 </r>
       <r>   -1.8669    1.0000 </r>
       <r>    2.1851    1.0000 </r>
       <r>    2.1851    1.0000 </r>
       <r>    8.5764    0.0000 </r>
       <r>    8.5764    0.0000 </r>
       <r>   12.5927    0.0000 </r>
       <r>   12.5927    0.0000 </r>
       <r>   16.4031    0.0000 </r>
       <r>   16.4031    0.0000 </r>
       <r>   18.7875    0.0000 </r>
       <r>   18.7875    0.0000 </r>
       <r>   22.3268    0.0000 </r>
       <r>   22.3268    0.0000 </r>
       <r>   23.0583    0.0000 </r>
       <r>   23.0583    0.0000 </r>
       <r>   24.6844    0.0000 </r>
       <r>   24.6845    0.0000 </r>
       <r>   27.2549    0.0000 </r>
       <r>   27.2549    0.0000 </r>
       <r>   29.1316    0.0000 </r>
       <r>   29.1316    0.0000 </r>
       <r>   30.6666    0.0000 </r>
       <r>   30.6666    0.0000 </r>
      </set>
      <set comment="kpoint 18">
       <r>   -1.8437    1.0000 </r>
       <r>   -1.8437    1.0000 </r>
       <r>    2.0725    1.0000 </r>
       <r>    2.0725    1.0000 </r>
       <r>    9.1430    0.0000 </r>
       <r>    9.1430    0.0000 </r>
       <r>   11.8918    0.0000 </r>
       <r>   11.8918    0.0000 </r>
       <r>   16.4054    0.0000 </r>
       <r>   16.4054    0.0000 </r>
       <r>   18.8305    0.0000 </r>
       <r>   18.8305    0.0000 </r>
       <r>   22.3803    0.0000 </r>
       <r>   22.3803    0.0000 </r>
       <r>   23.5777    0.0000 </r>
       <r>   23.5777    0.0000 </r>
       <r>   24.5801    0.0000 </r>
       <r>   24.5801    0.0000 </r>
       <r>   26.6945    0.0000 </r>
       <r>   26.6945    0.0000 </r>
       <r>   29.3131    0.0000 </r>
       <r>   29.3131    0.0000 </r>
       <r>   31.5030    0.0000 </r>
       <r>   31.5030    0.0000 </r>
      </set>
      <set comment="kpoint 19">
       <r>   -1.8283    1.0000 </r>
       <r>   -1.8283    1.0000 </r>
       <r>    2.0015    1.0000 </r>
       <r>    2.0015    1.0000 </r>
       <r>    9.7175    0.0000 </r>
       <r>    9.7175    0.0000 </r>
       <r>   11.2372    0.0000 </r>
       <r>   11.2372    0.0000 </r>
       <r>   16.4074    0.0000 </r>
       <r>   16.4074    0.0000 </r>
       <r>   18.8598    0.0000 </r>
       <r>   18.8598    0.0000 </r>
       <r>   22.3050    0.0000 </r>
       <r>   22.3050    0.0000 </r>
       <r>   24.2258    0.0000 </r>
       <r>   24.2258    0.0000 </r>
       <r>   24.5468    0.0000 </r>
       <r>   24.5468    0.0000 </r>
       <r>   26.0550    0.0000 </r>
       <r>   26.0550    0.0000 </r>
       <r>   29.4686    0.0000 </r>
       <r>   29.4686    0.0000 </r>
       <r>   32.4228    0.0000 </r>
       <r>   32.4228    0.0000 </r>
      </set>
      <set comment="kpoint 20">
       <r>   -1.8229    1.0000 </r>
       <r>   -1.8229    1.0000 </r>
       <r>    1.9772    1.0000 </r>
       <r>    1.9772    1.0000 </r>
       <r>   10.0950    0.0000 </r>
       <r>   10.0950    0.0000 </r>
       <r>   10.8331    0.0000 </r>
       <r>   10.8331    0.0000 </r>
       <r>   16.4081    0.0000 </r>
       <r>   16.4081    0.0000 </r>
       <r>   18.8701    0.0000 </r>
       <r>   18.8701    0.0000 </r>
       <r>   22.2730    0.0000 </r>
       <r>   22.2730    0.0000 </r>
       <r>   24.4251    0.0000 </r>
       <r>   24.4251    0.0000 </r>
       <r>   24.7551    0.0000 </r>
       <r>   24.7551    0.0000 </r>
       <r>   25.6402    0.0000 </r>
       <r>   25.6402    0.0000 </r>
       <r>   29.5279    0.0000 </r>
       <r>   29.5279    0.0000 </r>
       <r>   33.3130    0.0000 </r>
       <r>   33.3136    0.0000 </r>
      </set>
      <set comment="kpoint 21">
       <r>   -1.8229    1.0000 </r>
       <r>   -1.8229    1.0000 </r>
       <r>    1.9772    1.0000 </r>
       <r>    1.9772    1.0000 </r>
       <r>   10.0950    0.0000 </r>
       <r>   10.0950    0.0000 </r>
       <r>   10.8331    0.0000 </r>
       <r>   10.8331    0.0000 </r>
       <r>   16.4081    0.0000 </r>
       <r>   16.4081    0.0000 </r>
       <r>   18.8701    0.0000 </r>
       <r>   18.8701    0.0000 </r>
       <r>   22.2730    0.0000 </r>
       <r>   22.2730    0.0000 </r>
       <r>   24.4251    0.0000 </r>
       <r>   24.4251    0.0000 </r>
       <r>   24.7551    0.0000 </r>
       <r>   24.7551    0.0000 </r>
       <r>   25.6402    0.0000 </r>
       <r>   25.6402    0.0000 </r>
       <r>   29.5279    0.0000 </r>
       <r>   29.5279    0.0000 </r>
       <r>   33.3127    0.0000 </r>
       <r>   33.3134    0.0000 </r>
      </set>
      <set comment="kpoint 22">
       <r>   -1.9436    1.0000 </r>
       <r>   -1.7068    1.0000 </r>
       <r>    1.8857    1.0000 </r>
       <r>    2.0928    1.0000 </r>
       <r>    9.7824    0.0000 </r>
       <r>   10.1469    0.0000 </r>
       <r>   10.9597    0.0000 </r>
       <r>   10.9948    0.0000 </r>
       <r>   16.1588    0.0000 </r>
       <r>   16.5998    0.0000 </r>
       <r>   18.6571    0.0000 </r>
       <r>   19.1292    0.0000 </r>
       <r>   22.0484    0.0000 </r>
       <r>   22.4723    0.0000 </r>
       <r>   24.1766    0.0000 </r>
       <r>   24.4726    0.0000 </r>
       <r>   24.7109    0.0000 </r>
       <r>   24.7838    0.0000 </r>
       <r>   25.5211    0.0000 </r>
       <r>   26.0255    0.0000 </r>
       <r>   29.2887    0.0000 </r>
       <r>   29.7438    0.0000 </r>
       <r>   32.8728    0.0000 </r>
       <r>   32.9354    0.0000 </r>
      </set>
      <set comment="kpoint 23">
       <r>   -2.0504    1.0000 </r>
       <r>   -1.6137    1.0000 </r>
       <r>    1.8037    1.0000 </r>
       <r>    2.2449    1.0000 </r>
       <r>    9.3077    0.0000 </r>
       <r>   10.1379    0.0000 </r>
       <r>   11.2377    0.0000 </r>
       <r>   11.2841    0.0000 </r>
       <r>   15.8843    0.0000 </r>
       <r>   16.6622    0.0000 </r>
       <r>   18.5565    0.0000 </r>
       <r>   19.4100    0.0000 </r>
       <r>   21.8433    0.0000 </r>
       <r>   22.5830    0.0000 </r>
       <r>   23.9993    0.0000 </r>
       <r>   24.0781    0.0000 </r>
       <r>   24.6668    0.0000 </r>
       <r>   25.0280    0.0000 </r>
       <r>   25.4997    0.0000 </r>
       <r>   26.5847    0.0000 </r>
       <r>   29.0433    0.0000 </r>
       <r>   29.9049    0.0000 </r>
       <r>   32.3780    0.0000 </r>
       <r>   32.5306    0.0000 </r>
      </set>
      <set comment="kpoint 24">
       <r>   -2.1431    1.0000 </r>
       <r>   -1.5419    1.0000 </r>
       <r>    1.7317    1.0000 </r>
       <r>    2.4280    1.0000 </r>
       <r>    8.8249    0.0000 </r>
       <r>   10.1046    0.0000 </r>
       <r>   11.5244    0.0000 </r>
       <r>   11.6565    0.0000 </r>
       <r>   15.5913    0.0000 </r>
       <r>   16.5479    0.0000 </r>
       <r>   18.6221    0.0000 </r>
       <r>   19.7047    0.0000 </r>
       <r>   21.6650    0.0000 </r>
       <r>   22.5791    0.0000 </r>
       <r>   23.6367    0.0000 </r>
       <r>   23.8626    0.0000 </r>
       <r>   24.6153    0.0000 </r>
       <r>   25.3142    0.0000 </r>
       <r>   25.5699    0.0000 </r>
       <r>   27.1483    0.0000 </r>
       <r>   28.7900    0.0000 </r>
       <r>   29.9899    0.0000 </r>
       <r>   31.9178    0.0000 </r>
       <r>   32.1909    0.0000 </r>
      </set>
      <set comment="kpoint 25">
       <r>   -2.2216    1.0000 </r>
       <r>   -1.4887    1.0000 </r>
       <r>    1.6702    1.0000 </r>
       <r>    2.6331    1.0000 </r>
       <r>    8.3653    0.0000 </r>
       <r>   10.0654    0.0000 </r>
       <r>   11.8348    0.0000 </r>
       <r>   12.0509    0.0000 </r>
       <r>   15.2840    0.0000 </r>
       <r>   16.2825    0.0000 </r>
       <r>   18.8338    0.0000 </r>
       <r>   20.0077    0.0000 </r>
       <r>   21.5141    0.0000 </r>
       <r>   22.4847    0.0000 </r>
       <r>   23.1798    0.0000 </r>
       <r>   23.6903    0.0000 </r>
       <r>   24.7150    0.0000 </r>
       <r>   25.4194    0.0000 </r>
       <r>   25.8505    0.0000 </r>
       <r>   27.6580    0.0000 </r>
       <r>   28.5304    0.0000 </r>
       <r>   29.9714    0.0000 </r>
       <r>   31.5306    0.0000 </r>
       <r>   31.9339    0.0000 </r>
      </set>
      <set comment="kpoint 26">
       <r>   -2.2860    1.0000 </r>
       <r>   -1.4508    1.0000 </r>
       <r>    1.6194    1.0000 </r>
       <r>    2.8481    1.0000 </r>
       <r>    7.9447    0.0000 </r>
       <r>   10.0285    0.0000 </r>
       <r>   12.1587    0.0000 </r>
       <r>   12.4601    0.0000 </r>
       <r>   14.9659    0.0000 </r>
       <r>   15.9263    0.0000 </r>
       <r>   19.1359    0.0000 </r>
       <r>   20.3140    0.0000 </r>
       <r>   21.3874    0.0000 </r>
       <r>   22.3447    0.0000 </r>
       <r>   22.7236    0.0000 </r>
       <r>   23.4782    0.0000 </r>
       <r>   24.9326    0.0000 </r>
       <r>   25.4452    0.0000 </r>
       <r>   26.2253    0.0000 </r>
       <r>   28.0287    0.0000 </r>
       <r>   28.3163    0.0000 </r>
       <r>   29.8194    0.0000 </r>
       <r>   31.2576    0.0000 </r>
       <r>   31.7727    0.0000 </r>
      </set>
      <set comment="kpoint 27">
       <r>   -2.3361    1.0000 </r>
       <r>   -1.4250    1.0000 </r>
       <r>    1.5797    1.0000 </r>
       <r>    3.0561    1.0000 </r>
       <r>    7.5791    0.0000 </r>
       <r>    9.9976    0.0000 </r>
       <r>   12.4894    0.0000 </r>
       <r>   12.8805    0.0000 </r>
       <r>   14.6411    0.0000 </r>
       <r>   15.5229    0.0000 </r>
       <r>   19.4886    0.0000 </r>
       <r>   20.6175    0.0000 </r>
       <r>   21.2764    0.0000 </r>
       <r>   22.1858    0.0000 </r>
       <r>   22.2830    0.0000 </r>
       <r>   23.2629    0.0000 </r>
       <r>   25.2037    0.0000 </r>
       <r>   25.4572    0.0000 </r>
       <r>   26.6172    0.0000 </r>
       <r>   27.9066    0.0000 </r>
       <r>   28.4844    0.0000 </r>
       <r>   29.5418    0.0000 </r>
       <r>   31.1056    0.0000 </r>
       <r>   31.7073    0.0000 </r>
      </set>
      <set comment="kpoint 28">
       <r>   -2.3719    1.0000 </r>
       <r>   -1.4086    1.0000 </r>
       <r>    1.5511    1.0000 </r>
       <r>    3.2354    1.0000 </r>
       <r>    7.2887    0.0000 </r>
       <r>    9.9746    0.0000 </r>
       <r>   12.8189    0.0000 </r>
       <r>   13.3088    0.0000 </r>
       <r>   14.3163    0.0000 </r>
       <r>   15.0966    0.0000 </r>
       <r>   19.8689    0.0000 </r>
       <r>   20.9094    0.0000 </r>
       <r>   21.1578    0.0000 </r>
       <r>   21.8872    0.0000 </r>
       <r>   22.0148    0.0000 </r>
       <r>   23.0780    0.0000 </r>
       <r>   25.4641    0.0000 </r>
       <r>   25.4778    0.0000 </r>
       <r>   27.0000    0.0000 </r>
       <r>   27.6464    0.0000 </r>
       <r>   28.6916    0.0000 </r>
       <r>   29.2005    0.0000 </r>
       <r>   31.0348    0.0000 </r>
       <r>   31.7139    0.0000 </r>
      </set>
      <set comment="kpoint 29">
       <r>   -2.3934    1.0000 </r>
       <r>   -1.3995    1.0000 </r>
       <r>    1.5340    1.0000 </r>
       <r>    3.3596    1.0000 </r>
       <r>    7.0985    0.0000 </r>
       <r>    9.9604    0.0000 </r>
       <r>   13.1264    0.0000 </r>
       <r>   13.7382    0.0000 </r>
       <r>   14.0117    0.0000 </r>
       <r>   14.6652    0.0000 </r>
       <r>   20.2585    0.0000 </r>
       <r>   20.9688    0.0000 </r>
       <r>   21.1680    0.0000 </r>
       <r>   21.6085    0.0000 </r>
       <r>   21.8386    0.0000 </r>
       <r>   22.9529    0.0000 </r>
       <r>   25.4678    0.0000 </r>
       <r>   25.6993    0.0000 </r>
       <r>   27.3272    0.0000 </r>
       <r>   27.4312    0.0000 </r>
       <r>   28.8089    0.0000 </r>
       <r>   28.8839    0.0000 </r>
       <r>   31.0053    0.0000 </r>
       <r>   31.7475    0.0000 </r>
      </set>
      <set comment="kpoint 30">
       <r>   -2.4005    1.0000 </r>
       <r>   -1.3967    1.0000 </r>
       <r>    1.5282    1.0000 </r>
       <r>    3.4044    1.0000 </r>
       <r>    7.0318    0.0000 </r>
       <r>    9.9557    0.0000 </r>
       <r>   13.2989    0.0000 </r>
       <r>   13.8403    0.0000 </r>
       <r>   14.0683    0.0000 </r>
       <r>   14.3338    0.0000 </r>
       <r>   20.5777    0.0000 </r>
       <r>   20.7148    0.0000 </r>
       <r>   21.3032    0.0000 </r>
       <r>   21.5177    0.0000 </r>
       <r>   21.7328    0.0000 </r>
       <r>   22.9088    0.0000 </r>
       <r>   25.4690    0.0000 </r>
       <r>   25.7898    0.0000 </r>
       <r>   27.3427    0.0000 </r>
       <r>   27.4757    0.0000 </r>
       <r>   28.7369    0.0000 </r>
       <r>   28.8457    0.0000 </r>
       <r>   30.9973    0.0000 </r>
       <r>   31.7645    0.0000 </r>
      </set>
      <set comment="kpoint 31">
       <r>   -2.4005    1.0000 </r>
       <r>   -1.3967    1.0000 </r>
       <r>    1.5282    1.0000 </r>
       <r>    3.4044    1.0000 </r>
       <r>    7.0318    0.0000 </r>
       <r>    9.9557    0.0000 </r>
       <r>   13.2989    0.0000 </r>
       <r>   13.8403    0.0000 </r>
       <r>   14.0683    0.0000 </r>
       <r>   14.3338    0.0000 </r>
       <r>   20.5777    0.0000 </r>
       <r>   20.7148    0.0000 </r>
       <r>   21.3032    0.0000 </r>
       <r>   21.5177    0.0000 </r>
       <r>   21.7328    0.0000 </r>
       <r>   22.9088    0.0000 </r>
       <r>   25.4690    0.0000 </r>
       <r>   25.7898    0.0000 </r>
       <r>   27.3427    0.0000 </r>
       <r>   27.4757    0.0000 </r>
       <r>   28.7369    0.0000 </r>
       <r>   28.8457    0.0000 </r>
       <r>   30.9973    0.0000 </r>
       <r>   31.7645    0.0000 </r>
      </set>
      <set comment="kpoint 32">
       <r>   -2.8670    1.0000 </r>
       <r>   -0.9403    1.0000 </r>
       <r>    1.4173    1.0000 </r>
       <r>    3.7175    1.0000 </r>
       <r>    7.3951    0.0000 </r>
       <r>   11.6261    0.0000 </r>
       <r>   12.3065    0.0000 </r>
       <r>   12.9070    0.0000 </r>
       <r>   13.2666    0.0000 </r>
       <r>   13.4922    0.0000 </r>
       <r>   20.1999    0.0000 </r>
       <r>   20.7808    0.0000 </r>
       <r>   21.5333    0.0000 </r>
       <r>   21.5663    0.0000 </r>
       <r>   22.4560    0.0000 </r>
       <r>   23.4022    0.0000 </r>
       <r>   24.2415    0.0000 </r>
       <r>   25.7947    0.0000 </r>
       <r>   28.0716    0.0000 </r>
       <r>   28.3966    0.0000 </r>
       <r>   28.7911    0.0000 </r>
       <r>   29.8247    0.0000 </r>
       <r>   32.3827    0.0000 </r>
       <r>   32.6686    0.0000 </r>
      </set>
      <set comment="kpoint 33">
       <r>   -3.4621    1.0000 </r>
       <r>   -0.3571    1.0000 </r>
       <r>    1.6289    1.0000 </r>
       <r>    4.0920    1.0000 </r>
       <r>    7.8264    0.0000 </r>
       <r>   11.4087    0.0000 </r>
       <r>   11.7283    0.0000 </r>
       <r>   12.5516    0.0000 </r>
       <r>   12.7922    0.0000 </r>
       <r>   13.7369    0.0000 </r>
       <r>   19.2880    0.0000 </r>
       <r>   19.8985    0.0000 </r>
       <r>   21.0037    0.0000 </r>
       <r>   22.2792    0.0000 </r>
       <r>   22.5779    0.0000 </r>
       <r>   23.5253    0.0000 </r>
       <r>   24.0199    0.0000 </r>
       <r>   26.2644    0.0000 </r>
       <r>   28.3814    0.0000 </r>
       <r>   29.2308    0.0000 </r>
       <r>   29.7123    0.0000 </r>
       <r>   31.1085    0.0000 </r>
       <r>   31.3153    0.0000 </r>
       <r>   32.9338    0.0000 </r>
      </set>
      <set comment="kpoint 34">
       <r>   -4.0874    1.0000 </r>
       <r>    0.3498    1.0000 </r>
       <r>    2.0772    1.0000 </r>
       <r>    4.5008    1.0000 </r>
       <r>    8.2786    0.0000 </r>
       <r>   10.6188    0.0000 </r>
       <r>   10.9590    0.0000 </r>
       <r>   11.9786    0.0000 </r>
       <r>   12.2721    0.0000 </r>
       <r>   15.4670    0.0000 </r>
       <r>   18.4501    0.0000 </r>
       <r>   19.0265    0.0000 </r>
       <r>   19.2908    0.0000 </r>
       <r>   22.5059    0.0000 </r>
       <r>   22.8778    0.0000 </r>
       <r>   23.2886    0.0000 </r>
       <r>   24.5358    0.0000 </r>
       <r>   27.0809    0.0000 </r>
       <r>   27.5255    0.0000 </r>
       <r>   29.7724    0.0000 </r>
       <r>   30.6490    0.0000 </r>
       <r>   31.1135    0.0000 </r>
       <r>   32.6517    0.0000 </r>
       <r>   32.9363    0.0000 </r>
      </set>
      <set comment="kpoint 35">
       <r>   -4.6736    1.0000 </r>
       <r>    1.1757    1.0000 </r>
       <r>    2.6910    1.0000 </r>
       <r>    4.9060    1.0000 </r>
       <r>    8.6644    0.0000 </r>
       <r>    9.9437    0.0000 </r>
       <r>   10.2648    0.0000 </r>
       <r>   11.6147    0.0000 </r>
       <r>   11.9723    0.0000 </r>
       <r>   16.5117    0.0000 </r>
       <r>   16.9905    0.0000 </r>
       <r>   17.8535    0.0000 </r>
       <r>   19.4752    0.0000 </r>
       <r>   20.9842    0.0000 </r>
       <r>   22.9200    0.0000 </r>
       <r>   24.0475    0.0000 </r>
       <r>   25.5280    0.0000 </r>
       <r>   26.2633    0.0000 </r>
       <r>   27.7474    0.0000 </r>
       <r>   28.6304    0.0000 </r>
       <r>   31.5187    0.0000 </r>
       <r>   32.2131    0.0000 </r>
       <r>   33.4749    0.0000 </r>
       <r>   34.1451    0.0000 </r>
      </set>
      <set comment="kpoint 36">
       <r>   -5.1818    1.0000 </r>
       <r>    2.1125    1.0000 </r>
       <r>    3.4167    1.0000 </r>
       <r>    5.2628    1.0000 </r>
       <r>    8.8711    0.0000 </r>
       <r>    9.3877    0.0000 </r>
       <r>    9.6745    0.0000 </r>
       <r>   11.4959    0.0000 </r>
       <r>   11.9316    0.0000 </r>
       <r>   15.2200    0.0000 </r>
       <r>   16.3184    0.0000 </r>
       <r>   17.3317    0.0000 </r>
       <r>   19.2108    0.0000 </r>
       <r>   21.4401    0.0000 </r>
       <r>   21.8578    0.0000 </r>
       <r>   24.5698    0.0000 </r>
       <r>   26.2792    0.0000 </r>
       <r>   26.5327    0.0000 </r>
       <r>   27.0411    0.0000 </r>
       <r>   28.3515    0.0000 </r>
       <r>   32.4411    0.0000 </r>
       <r>   32.6478    0.0000 </r>
       <r>   34.3574    0.0000 </r>
       <r>   35.2712    0.0000 </r>
      </set>
      <set comment="kpoint 37">
       <r>   -5.5910    1.0000 </r>
       <r>    3.1454    1.0000 </r>
       <r>    4.2001    1.0000 </r>
       <r>    5.5345    1.0000 </r>
       <r>    8.8735    0.0000 </r>
       <r>    8.9533    0.0000 </r>
       <r>    9.1870    0.0000 </r>
       <r>   11.3809    0.0000 </r>
       <r>   12.1690    0.0000 </r>
       <r>   13.8608    0.0000 </r>
       <r>   15.5917    0.0000 </r>
       <r>   17.0118    0.0000 </r>
       <r>   18.1958    0.0000 </r>
       <r>   20.3089    0.0000 </r>
       <r>   23.5461    0.0000 </r>
       <r>   23.9768    0.0000 </r>
       <r>   26.8152    0.0000 </r>
       <r>   26.9889    0.0000 </r>
       <r>   27.5602    0.0000 </r>
       <r>   28.8924    0.0000 </r>
       <r>   32.3853    0.0000 </r>
       <r>   32.6150    0.0000 </r>
       <r>   34.6420    0.0000 </r>
       <r>   36.3161    0.0000 </r>
      </set>
      <set comment="kpoint 38">
       <r>   -5.8894    1.0000 </r>
       <r>    4.2393    1.0000 </r>
       <r>    4.9643    1.0000 </r>
       <r>    5.7090    1.0000 </r>
       <r>    8.6421    0.0000 </r>
       <r>    8.7637    0.0000 </r>
       <r>    8.7962    0.0000 </r>
       <r>   10.6588    0.0000 </r>
       <r>   12.6507    0.0000 </r>
       <r>   13.3962    0.0000 </r>
       <r>   14.7360    0.0000 </r>
       <r>   16.9101    0.0000 </r>
       <r>   17.5348    0.0000 </r>
       <r>   18.8048    0.0000 </r>
       <r>   22.7021    0.0000 </r>
       <r>   25.8296    0.0000 </r>
       <r>   27.5710    0.0000 </r>
       <r>   27.8567    0.0000 </r>
       <r>   28.5910    0.0000 </r>
       <r>   29.3373    0.0000 </r>
       <r>   32.2138    0.0000 </r>
       <r>   32.3589    0.0000 </r>
       <r>   33.3772    0.0000 </r>
       <r>   35.9279    0.0000 </r>
      </set>
      <set comment="kpoint 39">
       <r>   -6.0707    1.0000 </r>
       <r>    5.2818    1.0000 </r>
       <r>    5.5766    1.0000 </r>
       <r>    5.7995    1.0000 </r>
       <r>    8.4550    0.0000 </r>
       <r>    8.5099    0.0000 </r>
       <r>    8.5903    0.0000 </r>
       <r>    9.6360    0.0000 </r>
       <r>   13.2349    0.0000 </r>
       <r>   13.4775    0.0000 </r>
       <r>   14.0505    0.0000 </r>
       <r>   16.9956    0.0000 </r>
       <r>   17.1878    0.0000 </r>
       <r>   17.5990    0.0000 </r>
       <r>   21.6534    0.0000 </r>
       <r>   27.9435    0.0000 </r>
       <r>   28.4545    0.0000 </r>
       <r>   28.6114    0.0000 </r>
       <r>   29.5378    0.0000 </r>
       <r>   29.6920    0.0000 </r>
       <r>   31.9501    0.0000 </r>
       <r>   31.9650    0.0000 </r>
       <r>   32.2165    0.0000 </r>
       <r>   35.2909    0.0000 </r>
      </set>
      <set comment="kpoint 40">
       <r>   -6.1314    1.0000 </r>
       <r>    5.8267    1.0000 </r>
       <r>    5.8267    1.0000 </r>
       <r>    5.8267    1.0000 </r>
       <r>    8.3926    0.0000 </r>
       <r>    8.3926    0.0000 </r>
       <r>    8.3926    0.0000 </r>
       <r>    9.2018    0.0000 </r>
       <r>   13.5469    0.0000 </r>
       <r>   13.5469    0.0000 </r>
       <r>   13.7874    0.0000 </r>
       <r>   17.0802    0.0000 </r>
       <r>   17.0802    0.0000 </r>
       <r>   17.0802    0.0000 </r>
       <r>   21.2342    0.0000 </r>
       <r>   28.9327    0.0000 </r>
       <r>   28.9327    0.0000 </r>
       <r>   28.9327    0.0000 </r>
       <r>   30.0351    0.0000 </r>
       <r>   30.0351    0.0000 </r>
       <r>   31.6473    0.0000 </r>
       <r>   31.6473    0.0000 </r>
       <r>   31.6474    0.0000 </r>
       <r>   35.0385    0.0000 </r>
      </set>
      <set comment="kpoint 41">
       <r>   -6.1314    1.0000 </r>
       <r>    5.8267    1.0000 </r>
       <r>    5.8267    1.0000 </r>
       <r>    5.8267    1.0000 </r>
       <r>    8.3926    0.0000 </r>
       <r>    8.3926    0.0000 </r>
       <r>    8.3926    0.0000 </r>
       <r>    9.2018    0.0000 </r>
       <r>   13.5469    0.0000 </r>
       <r>   13.5469    0.0000 </r>
       <r>   13.7874    0.0000 </r>
       <r>   17.0802    0.0000 </r>
       <r>   17.0802    0.0000 </r>
       <r>   17.0802    0.0000 </r>
       <r>   21.2342    0.0000 </r>
       <r>   28.9327    0.0000 </r>
       <r>   28.9327    0.0000 </r>
       <r>   28.9327    0.0000 </r>
       <r>   30.0351    0.0000 </r>
       <r>   30.0351    0.0000 </r>
       <r>   31.6473    0.0000 </r>
       <r>   31.6473    0.0000 </r>
       <r>   31.6474    0.0000 </r>
       <r>   35.0385    0.0000 </r>
      </set>
      <set comment="kpoint 42">
       <r>   -6.0909    1.0000 </r>
       <r>    5.3958    1.0000 </r>
       <r>    5.7591    1.0000 </r>
       <r>    5.7591    1.0000 </r>
       <r>    8.4556    0.0000 </r>
       <r>    8.4916    0.0000 </r>
       <r>    8.4916    0.0000 </r>
       <r>    9.4998    0.0000 </r>
       <r>   13.4132    0.0000 </r>
       <r>   13.4132    0.0000 </r>
       <r>   13.9646    0.0000 </r>
       <r>   16.9207    0.0000 </r>
       <r>   17.3450    0.0000 </r>
       <r>   17.3450    0.0000 </r>
       <r>   21.5163    0.0000 </r>
       <r>   28.4702    0.0000 </r>
       <r>   28.5012    0.0000 </r>
       <r>   28.5012    0.0000 </r>
       <r>   29.7838    0.0000 </r>
       <r>   29.7838    0.0000 </r>
       <r>   31.8680    0.0000 </r>
       <r>   31.8680    0.0000 </r>
       <r>   32.0498    0.0000 </r>
       <r>   35.0755    0.0000 </r>
      </set>
      <set comment="kpoint 43">
       <r>   -5.9699    1.0000 </r>
       <r>    4.4842    1.0000 </r>
       <r>    5.5894    1.0000 </r>
       <r>    5.5894    1.0000 </r>
       <r>    8.3748    0.0000 </r>
       <r>    8.7421    0.0000 </r>
       <r>    8.7421    0.0000 </r>
       <r>   10.3067    0.0000 </r>
       <r>   13.1334    0.0000 </r>
       <r>   13.1334    0.0000 </r>
       <r>   14.4346    0.0000 </r>
       <r>   16.5911    0.0000 </r>
       <r>   18.0288    0.0000 </r>
       <r>   18.0288    0.0000 </r>
       <r>   22.2416    0.0000 </r>
       <r>   27.2719    0.0000 </r>
       <r>   27.2719    0.0000 </r>
       <r>   27.5034    0.0000 </r>
       <r>   29.6852    0.0000 </r>
       <r>   29.6852    0.0000 </r>
       <r>   32.1166    0.0000 </r>
       <r>   32.1166    0.0000 </r>
       <r>   32.8435    0.0000 </r>
       <r>   35.1849    0.0000 </r>
      </set>
      <set comment="kpoint 44">
       <r>   -5.7702    1.0000 </r>
       <r>    3.4482    1.0000 </r>
       <r>    5.3771    1.0000 </r>
       <r>    5.3771    1.0000 </r>
       <r>    8.1815    0.0000 </r>
       <r>    9.0395    0.0000 </r>
       <r>    9.0395    0.0000 </r>
       <r>   11.2863    0.0000 </r>
       <r>   12.9123    0.0000 </r>
       <r>   12.9123    0.0000 </r>
       <r>   14.9175    0.0000 </r>
       <r>   16.4865    0.0000 </r>
       <r>   18.9572    0.0000 </r>
       <r>   18.9572    0.0000 </r>
       <r>   23.1891    0.0000 </r>
       <r>   25.7844    0.0000 </r>
       <r>   25.7844    0.0000 </r>
       <r>   26.4435    0.0000 </r>
       <r>   29.7346    0.0000 </r>
       <r>   29.7346    0.0000 </r>
       <r>   32.2922    0.0000 </r>
       <r>   32.2922    0.0000 </r>
       <r>   33.6475    0.0000 </r>
       <r>   35.3632    0.0000 </r>
      </set>
      <set comment="kpoint 45">
       <r>   -5.4953    1.0000 </r>
       <r>    2.4080    1.0000 </r>
       <r>    5.1656    1.0000 </r>
       <r>    5.1656    1.0000 </r>
       <r>    7.9638    0.0000 </r>
       <r>    9.2700    0.0000 </r>
       <r>    9.2700    0.0000 </r>
       <r>   12.2777    0.0000 </r>
       <r>   12.9099    0.0000 </r>
       <r>   12.9099    0.0000 </r>
       <r>   14.9265    0.0000 </r>
       <r>   17.1341    0.0000 </r>
       <r>   19.9893    0.0000 </r>
       <r>   19.9893    0.0000 </r>
       <r>   23.9240    0.0000 </r>
       <r>   24.3252    0.0000 </r>
       <r>   24.3252    0.0000 </r>
       <r>   25.7474    0.0000 </r>
       <r>   29.8248    0.0000 </r>
       <r>   29.8248    0.0000 </r>
       <r>   32.4424    0.0000 </r>
       <r>   32.4424    0.0000 </r>
       <r>   34.1040    0.0000 </r>
       <r>   35.5616    0.0000 </r>
      </set>
      <set comment="kpoint 46">
       <r>   -5.1521    1.0000 </r>
       <r>    1.4128    1.0000 </r>
       <r>    4.9787    1.0000 </r>
       <r>    4.9787    1.0000 </r>
       <r>    7.7614    0.0000 </r>
       <r>    9.3620    0.0000 </r>
       <r>    9.3620    0.0000 </r>
       <r>   13.1844    0.0000 </r>
       <r>   13.2145    0.0000 </r>
       <r>   13.2145    0.0000 </r>
       <r>   14.7437    0.0000 </r>
       <r>   18.2710    0.0000 </r>
       <r>   20.8107    0.0000 </r>
       <r>   20.8107    0.0000 </r>
       <r>   23.2350    0.0000 </r>
       <r>   23.2350    0.0000 </r>
       <r>   23.4713    0.0000 </r>
       <r>   26.4163    0.0000 </r>
       <r>   29.9010    0.0000 </r>
       <r>   29.9010    0.0000 </r>
       <r>   32.5752    0.0000 </r>
       <r>   32.5752    0.0000 </r>
       <r>   32.9262    0.0000 </r>
       <r>   35.4531    0.0000 </r>
      </set>
      <set comment="kpoint 47">
       <r>   -4.7545    1.0000 </r>
       <r>    0.4957    1.0000 </r>
       <r>    4.8278    1.0000 </r>
       <r>    4.8278    1.0000 </r>
       <r>    7.5933    0.0000 </r>
       <r>    9.3348    0.0000 </r>
       <r>    9.3348    0.0000 </r>
       <r>   13.6987    0.0000 </r>
       <r>   13.8121    0.0000 </r>
       <r>   13.8121    0.0000 </r>
       <r>   14.9513    0.0000 </r>
       <r>   19.4496    0.0000 </r>
       <r>   20.4404    0.0000 </r>
       <r>   20.4404    0.0000 </r>
       <r>   22.6573    0.0000 </r>
       <r>   23.4979    0.0000 </r>
       <r>   23.4979    0.0000 </r>
       <r>   27.7559    0.0000 </r>
       <r>   29.8810    0.0000 </r>
       <r>   29.8810    0.0000 </r>
       <r>   31.0899    0.0000 </r>
       <r>   32.6654    0.0000 </r>
       <r>   32.6654    0.0000 </r>
       <r>   35.2115    0.0000 </r>
      </set>
      <set comment="kpoint 48">
       <r>   -4.3332    1.0000 </r>
       <r>   -0.3020    1.0000 </r>
       <r>    4.7182    1.0000 </r>
       <r>    4.7182    1.0000 </r>
       <r>    7.4690    0.0000 </r>
       <r>    9.2589    0.0000 </r>
       <r>    9.2589    0.0000 </r>
       <r>   13.6899    0.0000 </r>
       <r>   14.6302    0.0000 </r>
       <r>   14.6302    0.0000 </r>
       <r>   15.7451    0.0000 </r>
       <r>   19.2768    0.0000 </r>
       <r>   19.2769    0.0000 </r>
       <r>   19.9223    0.0000 </r>
       <r>   22.6372    0.0000 </r>
       <r>   24.7091    0.0000 </r>
       <r>   24.7091    0.0000 </r>
       <r>   29.0082    0.0000 </r>
       <r>   29.4476    0.0000 </r>
       <r>   29.5945    0.0000 </r>
       <r>   29.5945    0.0000 </r>
       <r>   32.6311    0.0000 </r>
       <r>   32.6311    0.0000 </r>
       <r>   33.9421    0.0000 </r>
      </set>
      <set comment="kpoint 49">
       <r>   -3.9630    1.0000 </r>
       <r>   -0.9001    1.0000 </r>
       <r>    4.6520    1.0000 </r>
       <r>    4.6520    1.0000 </r>
       <r>    7.3931    0.0000 </r>
       <r>    9.1926    0.0000 </r>
       <r>    9.1926    0.0000 </r>
       <r>   13.5955    0.0000 </r>
       <r>   15.5912    0.0000 </r>
       <r>   15.5912    0.0000 </r>
       <r>   16.6537    0.0000 </r>
       <r>   18.0490    0.0000 </r>
       <r>   18.0490    0.0000 </r>
       <r>   19.3465    0.0000 </r>
       <r>   23.8391    0.0000 </r>
       <r>   26.1298    0.0000 </r>
       <r>   26.1298    0.0000 </r>
       <r>   27.3253    0.0000 </r>
       <r>   28.8114    0.0000 </r>
       <r>   28.8114    0.0000 </r>
       <r>   30.7361    0.0000 </r>
       <r>   32.3901    0.0000 </r>
       <r>   32.3901    0.0000 </r>
       <r>   33.4089    0.0000 </r>
      </set>
      <set comment="kpoint 50">
       <r>   -3.7999    1.0000 </r>
       <r>   -1.1393    1.0000 </r>
       <r>    4.6298    1.0000 </r>
       <r>    4.6299    1.0000 </r>
       <r>    7.3677    0.0000 </r>
       <r>    9.1674    0.0000 </r>
       <r>    9.1674    0.0000 </r>
       <r>   13.5568    0.0000 </r>
       <r>   16.3760    0.0000 </r>
       <r>   16.3760    0.0000 </r>
       <r>   17.1717    0.0000 </r>
       <r>   17.1718    0.0000 </r>
       <r>   17.1847    0.0000 </r>
       <r>   18.8585    0.0000 </r>
       <r>   25.2172    0.0000 </r>
       <r>   25.8088    0.0000 </r>
       <r>   27.4829    0.0000 </r>
       <r>   27.4829    0.0000 </r>
       <r>   27.6461    0.0000 </r>
       <r>   27.6461    0.0000 </r>
       <r>   31.5473    0.0000 </r>
       <r>   32.2545    0.0000 </r>
       <r>   32.2545    0.0000 </r>
       <r>   33.3207    0.0000 </r>
      </set>
      <set comment="kpoint 51">
       <r>   -3.7999    1.0000 </r>
       <r>   -1.1393    1.0000 </r>
       <r>    4.6298    1.0000 </r>
       <r>    4.6299    1.0000 </r>
       <r>    7.3677    0.0000 </r>
       <r>    9.1674    0.0000 </r>
       <r>    9.1674    0.0000 </r>
       <r>   13.5568    0.0000 </r>
       <r>   16.3760    0.0000 </r>
       <r>   16.3760    0.0000 </r>
       <r>   17.1717    0.0000 </r>
       <r>   17.1718    0.0000 </r>
       <r>   17.1847    0.0000 </r>
       <r>   18.8585    0.0000 </r>
       <r>   25.2172    0.0000 </r>
       <r>   25.8088    0.0000 </r>
       <r>   27.4829    0.0000 </r>
       <r>   27.4829    0.0000 </r>
       <r>   27.6461    0.0000 </r>
       <r>   27.6461    0.0000 </r>
       <r>   31.5473    0.0000 </r>
       <r>   32.2545    0.0000 </r>
       <r>   32.2545    0.0000 </r>
       <r>   33.3207    0.0000 </r>
      </set>
      <set comment="kpoint 52">
       <r>   -3.7796    1.0000 </r>
       <r>   -1.1287    1.0000 </r>
       <r>    4.4459    1.0000 </r>
       <r>    4.5925    1.0000 </r>
       <r>    7.5348    0.0000 </r>
       <r>    9.1366    0.0000 </r>
       <r>    9.2459    0.0000 </r>
       <r>   13.6464    0.0000 </r>
       <r>   15.8707    0.0000 </r>
       <r>   16.1861    0.0000 </r>
       <r>   17.1046    0.0000 </r>
       <r>   17.3865    0.0000 </r>
       <r>   17.6849    0.0000 </r>
       <r>   19.0174    0.0000 </r>
       <r>   25.1913    0.0000 </r>
       <r>   25.7588    0.0000 </r>
       <r>   27.2359    0.0000 </r>
       <r>   27.2403    0.0000 </r>
       <r>   27.8190    0.0000 </r>
       <r>   27.8214    0.0000 </r>
       <r>   31.6096    0.0000 </r>
       <r>   31.9085    0.0000 </r>
       <r>   32.0122    0.0000 </r>
       <r>   33.4962    0.0000 </r>
      </set>
      <set comment="kpoint 53">
       <r>   -3.7190    1.0000 </r>
       <r>   -1.0981    1.0000 </r>
       <r>    4.0030    1.0000 </r>
       <r>    4.4886    1.0000 </r>
       <r>    7.8755    0.0000 </r>
       <r>    9.1187    0.0000 </r>
       <r>    9.4730    0.0000 </r>
       <r>   13.8471    0.0000 </r>
       <r>   15.1624    0.0000 </r>
       <r>   15.8440    0.0000 </r>
       <r>   16.9719    0.0000 </r>
       <r>   17.8024    0.0000 </r>
       <r>   18.3893    0.0000 </r>
       <r>   19.4580    0.0000 </r>
       <r>   25.0931    0.0000 </r>
       <r>   25.5961    0.0000 </r>
       <r>   26.8914    0.0000 </r>
       <r>   27.0150    0.0000 </r>
       <r>   27.8682    0.0000 </r>
       <r>   27.8754    0.0000 </r>
       <r>   31.4038    0.0000 </r>
       <r>   31.5230    0.0000 </r>
       <r>   31.8884    0.0000 </r>
       <r>   33.6238    0.0000 </r>
      </set>
      <set comment="kpoint 54">
       <r>   -3.6183    1.0000 </r>
       <r>   -1.0526    1.0000 </r>
       <r>    3.4562    1.0000 </r>
       <r>    4.3377    1.0000 </r>
       <r>    8.0516    0.0000 </r>
       <r>    9.3480    0.0000 </r>
       <r>    9.8288    0.0000 </r>
       <r>   13.8297    0.0000 </r>
       <r>   14.7228    0.0000 </r>
       <r>   15.4930    0.0000 </r>
       <r>   16.9236    0.0000 </r>
       <r>   18.2726    0.0000 </r>
       <r>   19.0001    0.0000 </r>
       <r>   20.1309    0.0000 </r>
       <r>   24.8333    0.0000 </r>
       <r>   25.3973    0.0000 </r>
       <r>   26.4891    0.0000 </r>
       <r>   26.9190    0.0000 </r>
       <r>   27.6484    0.0000 </r>
       <r>   27.6963    0.0000 </r>
       <r>   31.1822    0.0000 </r>
       <r>   31.2003    0.0000 </r>
       <r>   32.2191    0.0000 </r>
       <r>   33.4585    0.0000 </r>
      </set>
      <set comment="kpoint 55">
       <r>   -3.4786    1.0000 </r>
       <r>   -1.0020    1.0000 </r>
       <r>    2.8939    1.0000 </r>
       <r>    4.1617    1.0000 </r>
       <r>    7.9524    0.0000 </r>
       <r>    9.9003    0.0000 </r>
       <r>   10.2901    0.0000 </r>
       <r>   13.2819    0.0000 </r>
       <r>   14.7375    0.0000 </r>
       <r>   15.1627    0.0000 </r>
       <r>   17.1158    0.0000 </r>
       <r>   18.7617    0.0000 </r>
       <r>   19.5087    0.0000 </r>
       <r>   20.9575    0.0000 </r>
       <r>   24.3781    0.0000 </r>
       <r>   25.2604    0.0000 </r>
       <r>   25.9307    0.0000 </r>
       <r>   26.7668    0.0000 </r>
       <r>   27.2657    0.0000 </r>
       <r>   27.5003    0.0000 </r>
       <r>   30.9603    0.0000 </r>
       <r>   31.3633    0.0000 </r>
       <r>   32.5332    0.0000 </r>
       <r>   32.8966    0.0000 </r>
      </set>
      <set comment="kpoint 56">
       <r>   -3.3012    1.0000 </r>
       <r>   -0.9639    1.0000 </r>
       <r>    2.3701    1.0000 </r>
       <r>    3.9793    1.0000 </r>
       <r>    7.7470    0.0000 </r>
       <r>   10.5969    0.0000 </r>
       <r>   10.8364    0.0000 </r>
       <r>   12.6021    0.0000 </r>
       <r>   14.7264    0.0000 </r>
       <r>   14.8629    0.0000 </r>
       <r>   17.6310    0.0000 </r>
       <r>   19.2523    0.0000 </r>
       <r>   19.9471    0.0000 </r>
       <r>   21.8536    0.0000 </r>
       <r>   23.8399    0.0000 </r>
       <r>   25.0995    0.0000 </r>
       <r>   25.1332    0.0000 </r>
       <r>   26.3621    0.0000 </r>
       <r>   26.9874    0.0000 </r>
       <r>   27.5662    0.0000 </r>
       <r>   30.8608    0.0000 </r>
       <r>   31.5660    0.0000 </r>
       <r>   32.0966    0.0000 </r>
       <r>   32.2064    0.0000 </r>
      </set>
      <set comment="kpoint 57">
       <r>   -3.0893    1.0000 </r>
       <r>   -0.9671    1.0000 </r>
       <r>    1.9327    1.0000 </r>
       <r>    3.8043    1.0000 </r>
       <r>    7.5275    0.0000 </r>
       <r>   11.2822    0.0000 </r>
       <r>   11.4498    0.0000 </r>
       <r>   11.9992    0.0000 </r>
       <r>   14.5977    0.0000 </r>
       <r>   14.5999    0.0000 </r>
       <r>   18.4083    0.0000 </r>
       <r>   19.7288    0.0000 </r>
       <r>   20.3183    0.0000 </r>
       <r>   22.7387    0.0000 </r>
       <r>   23.3229    0.0000 </r>
       <r>   24.1708    0.0000 </r>
       <r>   24.7486    0.0000 </r>
       <r>   25.9965    0.0000 </r>
       <r>   26.8790    0.0000 </r>
       <r>   27.7983    0.0000 </r>
       <r>   30.7391    0.0000 </r>
       <r>   30.8596    0.0000 </r>
       <r>   31.1521    0.0000 </r>
       <r>   32.5433    0.0000 </r>
      </set>
      <set comment="kpoint 58">
       <r>   -2.8494    1.0000 </r>
       <r>   -1.0464    1.0000 </r>
       <r>    1.6313    1.0000 </r>
       <r>    3.6461    1.0000 </r>
[...]
       </set>
       <set comment="band 12">
        <r>  0.0000  0.0000  0.0102  0.0306  0.0000  0.0000  0.0000  0.0000  0.0000 </r>
        <r>  0.0000  0.0000  0.0102  0.0306  0.0000  0.0000  0.0000  0.0000  0.0000 </r>
       </set>
       <set comment="band 13">
        <r>  0.0448  0.0815  0.1044  0.0348  0.0000  0.0000  0.0000  0.0000  0.0000 </r>
        <r>  0.0448  0.0815  0.1044  0.0348  0.0000  0.0000  0.0000  0.0000  0.0000 </r>
       </set>
       <set comment="band 14">
        <r>  0.0434  0.0576  0.0818  0.0273  0.0000  0.0000  0.0000  0.0000  0.0000 </r>
        <r>  0.0434  0.0576  0.0818  0.0273  0.0000  0.0000  0.0000  0.0000  0.0000 </r>
       </set>
       <set comment="band 15">
        <r>  0.0100  0.0055  0.0027  0.0009  0.0000  0.0000  0.0000  0.0000  0.0000 </r>
        <r>  0.0100  0.0055  0.0027  0.0009  0.0000  0.0000  0.0000  0.0000  0.0000 </r>
       </set>
       <set comment="band 16">
        <r>  0.0001  0.0161  0.0080  0.0027  0.0000  0.0000  0.0000  0.0000  0.0000 </r>
        <r>  0.0001  0.0161  0.0080  0.0027  0.0000  0.0000  0.0000  0.0000  0.0000 </r>
       </set>
       <set comment="band 17">
        <r>  0.0303  0.0089  0.0038  0.0013  0.0000  0.0000  0.0000  0.0000  0.0000 </r>
        <r>  0.0303  0.0089  0.0038  0.0013  0.0000  0.0000  0.0000  0.0000  0.0000 </r>
       </set>
       <set comment="band 18">
        <r>  0.0000  0.0000  0.0132  0.0397  0.0000  0.0000  0.0000  0.0000  0.0000 </r>
        <r>  0.0000  0.0000  0.0132  0.0397  0.0000  0.0000  0.0000  0.0000  0.0000 </r>
       </set>
       <set comment="band 19">
        <r>  0.0000  0.0000  0.0097  0.0290  0.0000  0.0000  0.0000  0.0000  0.0000 </r>
        <r>  0.0000  0.0000  0.0097  0.0290  0.0000  0.0000  0.0000  0.0000  0.0000 </r>
       </set>
       <set comment="band 20">
        <r>  0.0016  0.0229  0.0103  0.0034  0.0000  0.0000  0.0000  0.0000  0.0000 </r>
        <r>  0.0016  0.0229  0.0103  0.0034  0.0000  0.0000  0.0000  0.0000  0.0000 </r>
       </set>
       <set comment="band 21">
        <r>  0.0552  0.0148  0.0127  0.0042  0.0000  0.0000  0.0000  0.0000  0.0000 </r>
        <r>  0.0552  0.0148  0.0127  0.0042  0.0000  0.0000  0.0000  0.0000  0.0000 </r>
       </set>
       <set comment="band 22">
        <r>  0.0370  0.0221  0.0160  0.0053  0.0000  0.0000  0.0000  0.0000  0.0000 </r>
        <r>  0.0370  0.0221  0.0160  0.0053  0.0000  0.0000  0.0000  0.0000  0.0000 </r>
       </set>
       <set comment="band 23">
        <r>  0.0075  0.0105  0.0056  0.0019  0.0000  0.0000  0.0000  0.0000  0.0000 </r>
        <r>  0.0075  0.0105  0.0056  0.0019  0.0000  0.0000  0.0000  0.0000  0.0000 </r>
       </set>
       <set comment="band 24">
        <r>  0.0013  0.0017  0.0018  0.0006  0.0000  0.0000  0.0000  0.0000  0.0000 </r>
        <r>  0.0013  0.0017  0.0018  0.0006  0.0000  0.0000  0.0000  0.0000  0.0000 </r>
       </set>
      </set>
      <set comment="kpoint 98">
       <set comment="band 1">
        <r>  0.1948  0.0150  0.0223  0.0074  0.0000  0.0000  0.0000  0.0000  0.0000 </r>
        <r>  0.1948  0.0150  0.0223  0.0074  0.0000  0.0000  0.0000  0.0000  0.0000 </r>
       </set>
       <set comment="band 2">
        <r>  0.1928  0.0155  0.0228  0.0076  0.0000  0.0000  0.0000  0.0000  0.0000 </r>
        <r>  0.1928  0.0155  0.0228  0.0076  0.0000  0.0000  0.0000  0.0000  0.0000 </r>
       </set>
       <set comment="band 3">
        <r>  0.0015  0.1244  0.0483  0.0161  0.0000  0.0000  0.0000  0.0000  0.0000 </r>
        <r>  0.0015  0.1244  0.0483  0.0161  0.0000  0.0000  0.0000  0.0000  0.0000 </r>
       </set>
       <set comment="band 4">
        <r>  0.0000  0.0000  0.0494  0.1483  0.0000  0.0000  0.0000  0.0000  0.0000 </r>
        <r>  0.0000  0.0000  0.0494  0.1483  0.0000  0.0000  0.0000  0.0000  0.0000 </r>
       </set>
       <set comment="band 5">
        <r>  0.0517  0.0118  0.0176  0.0059  0.0000  0.0000  0.0000  0.0000  0.0000 </r>
        <r>  0.0517  0.0118  0.0176  0.0059  0.0000  0.0000  0.0000  0.0000  0.0000 </r>
       </set>
       <set comment="band 6">
        <r>  0.0483  0.0190  0.0190  0.0063  0.0000  0.0000  0.0000  0.0000  0.0000 </r>
        <r>  0.0483  0.0190  0.0190  0.0063  0.0000  0.0000  0.0000  0.0000  0.0000 </r>
       </set>
       <set comment="band 7">
        <r>  0.0000  0.0000  0.0541  0.1623  0.0000  0.0000  0.0000  0.0000  0.0000 </r>
        <r>  0.0000  0.0000  0.0541  0.1623  0.0000  0.0000  0.0000  0.0000  0.0000 </r>
       </set>
       <set comment="band 8">
        <r>  0.0066  0.1530  0.0601  0.0200  0.0000  0.0000  0.0000  0.0000  0.0000 </r>
        <r>  0.0066  0.1530  0.0601  0.0200  0.0000  0.0000  0.0000  0.0000  0.0000 </r>
       </set>
       <set comment="band 9">
        <r>  0.0091  0.0160  0.0178  0.0059  0.0000  0.0000  0.0000  0.0000  0.0000 </r>
        <r>  0.0091  0.0160  0.0178  0.0059  0.0000  0.0000  0.0000  0.0000  0.0000 </r>
       </set>
       <set comment="band 10">
        <r>  0.0000  0.0000  0.0028  0.0084  0.0000  0.0000  0.0000  0.0000  0.0000 </r>
        <r>  0.0000  0.0000  0.0028  0.0084  0.0000  0.0000  0.0000  0.0000  0.0000 </r>
       </set>
       <set comment="band 11">
        <r>  0.0000  0.0000  0.0001  0.0002  0.0000  0.0000  0.0000  0.0000  0.0000 </r>
        <r>  0.0000  0.0000  0.0001  0.0002  0.0000  0.0000  0.0000  0.0000  0.0000 </r>
       </set>
       <set comment="band 12">
        <r>  0.0000  0.0000  0.0060  0.0180  0.0000  0.0000  0.0000  0.0000  0.0000 </r>
        <r>  0.0000  0.0000  0.0060  0.0180  0.0000  0.0000  0.0000  0.0000  0.0000 </r>
       </set>
       <set comment="band 13">
        <r>  0.0512  0.0760  0.1046  0.0349  0.0000  0.0000  0.0000  0.0000  0.0000 </r>
        <r>  0.0512  0.0760  0.1046  0.0349  0.0000  0.0000  0.0000  0.0000  0.0000 </r>
       </set>
       <set comment="band 14">
        <r>  0.0487  0.0619  0.0902  0.0301  0.0000  0.0000  0.0000  0.0000  0.0000 </r>
        <r>  0.0487  0.0619  0.0902  0.0301  0.0000  0.0000  0.0000  0.0000  0.0000 </r>
       </set>
       <set comment="band 15">
        <r>  0.0086  0.0047  0.0025  0.0008  0.0000  0.0000  0.0000  0.0000  0.0000 </r>
        <r>  0.0086  0.0047  0.0025  0.0008  0.0000  0.0000  0.0000  0.0000  0.0000 </r>
       </set>
       <set comment="band 16">
        <r>  0.0010  0.0114  0.0059  0.0020  0.0000  0.0000  0.0000  0.0000  0.0000 </r>
        <r>  0.0010  0.0114  0.0059  0.0020  0.0000  0.0000  0.0000  0.0000  0.0000 </r>
       </set>
       <set comment="band 17">
        <r>  0.0207  0.0182  0.0071  0.0024  0.0000  0.0000  0.0000  0.0000  0.0000 </r>
        <r>  0.0207  0.0182  0.0071  0.0024  0.0000  0.0000  0.0000  0.0000  0.0000 </r>
       </set>
       <set comment="band 18">
        <r>  0.0000  0.0000  0.0133  0.0400  0.0000  0.0000  0.0000  0.0000  0.0000 </r>
        <r>  0.0000  0.0000  0.0133  0.0400  0.0000  0.0000  0.0000  0.0000  0.0000 </r>
       </set>
       <set comment="band 19">
        <r>  0.0000  0.0000  0.0099  0.0298  0.0000  0.0000  0.0000  0.0000  0.0000 </r>
        <r>  0.0000  0.0000  0.0099  0.0298  0.0000  0.0000  0.0000  0.0000  0.0000 </r>
       </set>
       <set comment="band 20">
        <r>  0.0002  0.0235  0.0097  0.0032  0.0000  0.0000  0.0000  0.0000  0.0000 </r>
        <r>  0.0002  0.0235  0.0097  0.0032  0.0000  0.0000  0.0000  0.0000  0.0000 </r>
       </set>
       <set comment="band 21">
        <r>  0.0595  0.0107  0.0123  0.0041  0.0000  0.0000  0.0000  0.0000  0.0000 </r>
        <r>  0.0595  0.0107  0.0123  0.0041  0.0000  0.0000  0.0000  0.0000  0.0000 </r>
       </set>
       <set comment="band 22">
        <r>  0.0468  0.0163  0.0144  0.0048  0.0000  0.0000  0.0000  0.0000  0.0000 </r>
        <r>  0.0468  0.0163  0.0144  0.0048  0.0000  0.0000  0.0000  0.0000  0.0000 </r>
       </set>
       <set comment="band 23">
        <r>  0.0051  0.0078  0.0046  0.0015  0.0000  0.0000  0.0000  0.0000  0.0000 </r>
        <r>  0.0051  0.0078  0.0046  0.0015  0.0000  0.0000  0.0000  0.0000  0.0000 </r>
       </set>
       <set comment="band 24">
        <r>  0.0024  0.0017  0.0021  0.0007  0.0000  0.0000  0.0000  0.0000  0.0000 </r>
        <r>  0.0024  0.0017  0.0021  0.0007  0.0000  0.0000  0.0000  0.0000  0.0000 </r>
       </set>
      </set>
      <set comment="kpoint 99">
       <set comment="band 1">
        <r>  0.1937  0.0151  0.0226  0.0075  0.0000  0.0000  0.0000  0.0000  0.0000 </r>
        <r>  0.1937  0.0151  0.0226  0.0075  0.0000  0.0000  0.0000  0.0000  0.0000 </r>
       </set>
       <set comment="band 2">
        <r>  0.1931  0.0152  0.0228  0.0076  0.0000  0.0000  0.0000  0.0000  0.0000 </r>
        <r>  0.1931  0.0152  0.0228  0.0076  0.0000  0.0000  0.0000  0.0000  0.0000 </r>
       </set>
       <set comment="band 3">
        <r>  0.0005  0.1296  0.0491  0.0164  0.0000  0.0000  0.0000  0.0000  0.0000 </r>
        <r>  0.0005  0.1296  0.0491  0.0164  0.0000  0.0000  0.0000  0.0000  0.0000 </r>
       </set>
       <set comment="band 4">
        <r>  0.0000  0.0000  0.0494  0.1482  0.0000  0.0000  0.0000  0.0000  0.0000 </r>
        <r>  0.0000  0.0000  0.0494  0.1482  0.0000  0.0000  0.0000  0.0000  0.0000 </r>
       </set>
       <set comment="band 5">
        <r>  0.0517  0.0117  0.0175  0.0058  0.0000  0.0000  0.0000  0.0000  0.0000 </r>
        <r>  0.0517  0.0117  0.0175  0.0058  0.0000  0.0000  0.0000  0.0000  0.0000 </r>
       </set>
       <set comment="band 6">
        <r>  0.0508  0.0137  0.0179  0.0060  0.0000  0.0000  0.0000  0.0000  0.0000 </r>
        <r>  0.0508  0.0137  0.0179  0.0060  0.0000  0.0000  0.0000  0.0000  0.0000 </r>
       </set>
       <set comment="band 7">
        <r>  0.0000  0.0000  0.0581  0.1743  0.0000  0.0000  0.0000  0.0000  0.0000 </r>
        <r>  0.0000  0.0000  0.0581  0.1743  0.0000  0.0000  0.0000  0.0000  0.0000 </r>
       </set>
       <set comment="band 8">
        <r>  0.0018  0.1580  0.0600  0.0200  0.0000  0.0000  0.0000  0.0000  0.0000 </r>
        <r>  0.0018  0.1580  0.0600  0.0200  0.0000  0.0000  0.0000  0.0000  0.0000 </r>
       </set>
       <set comment="band 9">
        <r>  0.0031  0.0105  0.0080  0.0027  0.0000  0.0000  0.0000  0.0000  0.0000 </r>
        <r>  0.0031  0.0105  0.0080  0.0027  0.0000  0.0000  0.0000  0.0000  0.0000 </r>
       </set>
       <set comment="band 10">
        <r>  0.0000  0.0000  0.0028  0.0084  0.0000  0.0000  0.0000  0.0000  0.0000 </r>
        <r>  0.0000  0.0000  0.0028  0.0084  0.0000  0.0000  0.0000  0.0000  0.0000 </r>
       </set>
       <set comment="band 11">
        <r>  0.0000  0.0000  0.0019  0.0057  0.0000  0.0000  0.0000  0.0000  0.0000 </r>
        <r>  0.0000  0.0000  0.0019  0.0057  0.0000  0.0000  0.0000  0.0000  0.0000 </r>
       </set>
       <set comment="band 12">
        <r>  0.0000  0.0000  0.0000  0.0001  0.0000  0.0000  0.0000  0.0000  0.0000 </r>
        <r>  0.0000  0.0000  0.0000  0.0001  0.0000  0.0000  0.0000  0.0000  0.0000 </r>
       </set>
       <set comment="band 13">
        <r>  0.0559  0.0716  0.1048  0.0349  0.0000  0.0000  0.0000  0.0000  0.0000 </r>
        <r>  0.0559  0.0716  0.1048  0.0349  0.0000  0.0000  0.0000  0.0000  0.0000 </r>
       </set>
       <set comment="band 14">
        <r>  0.0546  0.0671  0.0998  0.0333  0.0000  0.0000  0.0000  0.0000  0.0000 </r>
        <r>  0.0546  0.0671  0.0998  0.0333  0.0000  0.0000  0.0000  0.0000  0.0000 </r>
       </set>
       <set comment="band 15">
        <r>  0.0077  0.0027  0.0020  0.0007  0.0000  0.0000  0.0000  0.0000  0.0000 </r>
        <r>  0.0077  0.0027  0.0020  0.0007  0.0000  0.0000  0.0000  0.0000  0.0000 </r>
       </set>
       <set comment="band 16">
        <r>  0.0048  0.0046  0.0030  0.0010  0.0000  0.0000  0.0000  0.0000  0.0000 </r>
        <r>  0.0048  0.0046  0.0030  0.0010  0.0000  0.0000  0.0000  0.0000  0.0000 </r>
       </set>
       <set comment="band 17">
        <r>  0.0073  0.0298  0.0113  0.0038  0.0000  0.0000  0.0000  0.0000  0.0000 </r>
        <r>  0.0073  0.0298  0.0113  0.0038  0.0000  0.0000  0.0000  0.0000  0.0000 </r>
       </set>
       <set comment="band 18">
        <r>  0.0000  0.0000  0.0134  0.0403  0.0000  0.0000  0.0000  0.0000  0.0000 </r>
        <r>  0.0000  0.0000  0.0134  0.0403  0.0000  0.0000  0.0000  0.0000  0.0000 </r>
       </set>
       <set comment="band 19">
        <r>  0.0000  0.0000  0.0101  0.0303  0.0000  0.0000  0.0000  0.0000  0.0000 </r>
        <r>  0.0000  0.0000  0.0101  0.0303  0.0000  0.0000  0.0000  0.0000  0.0000 </r>
       </set>
       <set comment="band 20">
        <r>  0.0000  0.0254  0.0098  0.0033  0.0000  0.0000  0.0000  0.0000  0.0000 </r>
        <r>  0.0000  0.0254  0.0098  0.0033  0.0000  0.0000  0.0000  0.0000  0.0000 </r>
       </set>
       <set comment="band 21">
        <r>  0.0614  0.0087  0.0121  0.0040  0.0000  0.0000  0.0000  0.0000  0.0000 </r>
        <r>  0.0614  0.0087  0.0121  0.0040  0.0000  0.0000  0.0000  0.0000  0.0000 </r>
       </set>
       <set comment="band 22">
        <r>  0.0569  0.0108  0.0128  0.0043  0.0000  0.0000  0.0000  0.0000  0.0000 </r>
        <r>  0.0569  0.0108  0.0128  0.0043  0.0000  0.0000  0.0000  0.0000  0.0000 </r>
       </set>
       <set comment="band 23">
        <r>  0.0038  0.0036  0.0031  0.0010  0.0000  0.0000  0.0000  0.0000  0.0000 </r>
        <r>  0.0038  0.0036  0.0031  0.0010  0.0000  0.0000  0.0000  0.0000  0.0000 </r>
       </set>
       <set comment="band 24">
        <r>  0.0031  0.0016  0.0022  0.0007  0.0000  0.0000  0.0000  0.0000  0.0000 </r>
        <r>  0.0031  0.0016  0.0022  0.0007  0.0000  0.0000  0.0000  0.0000  0.0000 </r>
       </set>
      </set>
      <set comment="kpoint 100">
       <set comment="band 1">
        <r>  0.1933  0.0152  0.0227  0.0076  0.0000  0.0000  0.0000  0.0000  0.0000 </r>
        <r>  0.1933  0.0152  0.0227  0.0076  0.0000  0.0000  0.0000  0.0000  0.0000 </r>
       </set>
       <set comment="band 2">
        <r>  0.1933  0.0152  0.0227  0.0076  0.0000  0.0000  0.0000  0.0000  0.0000 </r>
        <r>  0.1933  0.0152  0.0227  0.0076  0.0000  0.0000  0.0000  0.0000  0.0000 </r>
       </set>
       <set comment="band 3">
        <r>  0.0000  0.1317  0.0494  0.0165  0.0000  0.0000  0.0000  0.0000  0.0000 </r>
        <r>  0.0000  0.1317  0.0494  0.0165  0.0000  0.0000  0.0000  0.0000  0.0000 </r>
       </set>
       <set comment="band 4">
        <r>  0.0000  0.0000  0.0494  0.1482  0.0000  0.0000  0.0000  0.0000  0.0000 </r>
        <r>  0.0000  0.0000  0.0494  0.1482  0.0000  0.0000  0.0000  0.0000  0.0000 </r>
       </set>
       <set comment="band 5">
        <r>  0.0517  0.0117  0.0175  0.0058  0.0000  0.0000  0.0000  0.0000  0.0000 </r>
        <r>  0.0517  0.0117  0.0175  0.0058  0.0000  0.0000  0.0000  0.0000  0.0000 </r>
       </set>
       <set comment="band 6">
        <r>  0.0517  0.0117  0.0175  0.0058  0.0000  0.0000  0.0000  0.0000  0.0000 </r>
        <r>  0.0517  0.0117  0.0175  0.0058  0.0000  0.0000  0.0000  0.0000  0.0000 </r>
       </set>
       <set comment="band 7">
        <r>  0.0000  0.0000  0.0600  0.1799  0.0000  0.0000  0.0000  0.0000  0.0000 </r>
        <r>  0.0000  0.0000  0.0600  0.1799  0.0000  0.0000  0.0000  0.0000  0.0000 </r>
       </set>
       <set comment="band 8">
        <r>  0.0000  0.1599  0.0600  0.0200  0.0000  0.0000  0.0000  0.0000  0.0000 </r>
        <r>  0.0000  0.1599  0.0600  0.0200  0.0000  0.0000  0.0000  0.0000  0.0000 </r>
       </set>
       <set comment="band 9">
        <r>  0.0000  0.0000  0.0028  0.0085  0.0000  0.0000  0.0000  0.0000  0.0000 </r>
        <r>  0.0000  0.0000  0.0028  0.0085  0.0000  0.0000  0.0000  0.0000  0.0000 </r>
       </set>
       <set comment="band 10">
        <r>  0.0000  0.0075  0.0028  0.0009  0.0000  0.0000  0.0000  0.0000  0.0000 </r>
        <r>  0.0000  0.0075  0.0028  0.0009  0.0000  0.0000  0.0000  0.0000  0.0000 </r>
       </set>
       <set comment="band 11">
        <r>  0.0000  0.0000  0.0000  0.0000  0.0000  0.0000  0.0000  0.0000  0.0000 </r>
        <r>  0.0000  0.0000  0.0000  0.0000  0.0000  0.0000  0.0000  0.0000  0.0000 </r>
       </set>
       <set comment="band 12">
        <r>  0.0000  0.0000  0.0000  0.0000  0.0000  0.0000  0.0000  0.0000  0.0000 </r>
        <r>  0.0000  0.0000  0.0000  0.0000  0.0000  0.0000  0.0000  0.0000  0.0000 </r>
       </set>
       <set comment="band 13">
        <r>  0.0577  0.0700  0.1049  0.0350  0.0000  0.0000  0.0000  0.0000  0.0000 </r>
        <r>  0.0577  0.0700  0.1049  0.0350  0.0000  0.0000  0.0000  0.0000  0.0000 </r>
       </set>
       <set comment="band 14">
        <r>  0.0577  0.0700  0.1049  0.0350  0.0000  0.0000  0.0000  0.0000  0.0000 </r>
        <r>  0.0577  0.0700  0.1049  0.0350  0.0000  0.0000  0.0000  0.0000  0.0000 </r>
       </set>
       <set comment="band 15">
        <r>  0.0074  0.0010  0.0015  0.0005  0.0000  0.0000  0.0000  0.0000  0.0000 </r>
        <r>  0.0074  0.0010  0.0015  0.0005  0.0000  0.0000  0.0000  0.0000  0.0000 </r>
       </set>
       <set comment="band 16">
        <r>  0.0074  0.0010  0.0015  0.0005  0.0000  0.0000  0.0000  0.0000  0.0000 </r>
        <r>  0.0074  0.0010  0.0015  0.0005  0.0000  0.0000  0.0000  0.0000  0.0000 </r>
       </set>
       <set comment="band 17">
        <r>  0.0000  0.0359  0.0134  0.0045  0.0000  0.0000  0.0000  0.0000  0.0000 </r>
        <r>  0.0000  0.0359  0.0134  0.0045  0.0000  0.0000  0.0000  0.0000  0.0000 </r>
       </set>
       <set comment="band 18">
        <r>  0.0000  0.0000  0.0134  0.0403  0.0000  0.0000  0.0000  0.0000  0.0000 </r>
        <r>  0.0000  0.0000  0.0134  0.0403  0.0000  0.0000  0.0000  0.0000  0.0000 </r>
       </set>
       <set comment="band 19">
        <r>  0.0000  0.0271  0.0102  0.0034  0.0000  0.0000  0.0000  0.0000  0.0000 </r>
        <r>  0.0000  0.0271  0.0102  0.0034  0.0000  0.0000  0.0000  0.0000  0.0000 </r>
       </set>
       <set comment="band 20">
        <r>  0.0000  0.0000  0.0102  0.0305  0.0000  0.0000  0.0000  0.0000  0.0000 </r>
        <r>  0.0000  0.0000  0.0102  0.0305  0.0000  0.0000  0.0000  0.0000  0.0000 </r>
       </set>
       <set comment="band 21">
        <r>  0.0619  0.0081  0.0121  0.0040  0.0000  0.0000  0.0000  0.0000  0.0000 </r>
        <r>  0.0619  0.0081  0.0121  0.0040  0.0000  0.0000  0.0000  0.0000  0.0000 </r>
       </set>
       <set comment="band 22">
        <r>  0.0619  0.0081  0.0121  0.0040  0.0000  0.0000  0.0000  0.0000  0.0000 </r>
        <r>  0.0619  0.0081  0.0121  0.0040  0.0000  0.0000  0.0000  0.0000  0.0000 </r>
       </set>
       <set comment="band 23">
        <r>  0.0036  0.0014  0.0021  0.0007  0.0000  0.0000  0.0000  0.0000  0.0000 </r>
        <r>  0.0031  0.0016  0.0024  0.0008  0.0000  0.0000  0.0000  0.0000  0.0000 </r>
       </set>
       <set comment="band 24">
        <r>  0.0031  0.0016  0.0024  0.0008  0.0000  0.0000  0.0000  0.0000  0.0000 </r>
        <r>  0.0036  0.0014  0.0021  0.0007  0.0000  0.0000  0.0000  0.0000  0.0000 </r>
       </set>
      </set>
     </set>
    </set>
   </array>
  </projected>
 </calculation>
 <structure name="finalpos" >
  <crystal>
   <varray name="basis" >
    <v>       3.32548900       0.00000000       1.91997200 </v>
    <v>       1.10849600       3.13530100       1.91997200 </v>
    <v>       0.00000000       0.00000000       3.83994300 </v>
   </varray>
   <i name="volume">     40.03681621 </i>
   <varray name="rec_basis" >
    <v>       0.30070766      -0.10631618       0.00000000 </v>
    <v>       0.00000000       0.31894864       0.00000000 </v>
    <v>      -0.15035387      -0.10631626       0.26042053 </v>
   </varray>
  </crystal>
  <varray name="positions" >
   <v>       0.87500000       0.87500000       0.87500000 </v>
   <v>       0.12500000       0.12500000       0.12500000 </v>
  </varray>
 </structure>
</modeling>
