 vasp.5.4.4.18Apr17-6-g9f103f2a35 (build Jun 19 2019 10:34:07) complex          
  
 executed on               LB-5.4 date 2023.05.15  18:47:19
 running on   96 total cores
 distrk:  each k-point on   24 cores,    4 groups
 distr:  one band on NCORES_PER_BAND=   1 cores,   24 groups


--------------------------------------------------------------------------------------------------------


 INCAR:
 POTCAR:    PAW_PBE Si 05Jan2001                  

 ----------------------------------------------------------------------------- 
|                                                                             |
|           W    W    AA    RRRRR   N    N  II  N    N   GGGG   !!!           |
|           W    W   A  A   R    R  NN   N  II  NN   N  G    G  !!!           |
|           W    W  A    A  R    R  N N  N  II  N N  N  G       !!!           |
|           W WW W  AAAAAA  RRRRR   N  N N  II  N  N N  G  GGG   !            |
|           WW  WW  A    A  R   R   N   NN  II  N   NN  G    G                |
|           W    W  A    A  R    R  N    N  II  N    N   GGGG   !!!           |
|                                                                             |
|      For optimal performance we recommend to set                            |
|        NCORE= 4 - approx SQRT( number of cores)                             |
|      NCORE specifies how many cores store one orbital (NPAR=cpu/NCORE).     |
|      This setting can  greatly improve the performance of VASP for DFT.     |
|      The default,   NCORE=1            might be grossly inefficient         |
|      on modern multi-core architectures or massively parallel machines.     |
|      Do your own testing !!!!                                               |
|      Unfortunately you need to use the default for GW and RPA calculations. |
|      (for HF NCORE is supported but not extensively tested yet)             |
|                                                                             |
 ----------------------------------------------------------------------------- 


 ----------------------------------------------------------------------------- 
|                                                                             |
|           W    W    AA    RRRRR   N    N  II  N    N   GGGG   !!!           |
|           W    W   A  A   R    R  NN   N  II  NN   N  G    G  !!!           |
|           W    W  A    A  R    R  N N  N  II  N N  N  G       !!!           |
|           W WW W  AAAAAA  RRRRR   N  N N  II  N  N N  G  GGG   !            |
|           WW  WW  A    A  R   R   N   NN  II  N   NN  G    G                |
|           W    W  A    A  R    R  N    N  II  N    N   GGGG   !!!           |
|                                                                             |
|      You have enabled k-point parallelism (KPAR>1).                         |
|      This developmental code was originally  written by Paul Kent at ORNL,  |
|      and carefully double checked in Vienna.                                |
|      GW as well as linear response parallelism added by Martijn Marsman     |
|      and Georg Kresse.                                                      |
|      Carefully verify results versus KPAR=1.                                |
|      Report problems to Paul Kent and Vienna.                               |
|                                                                             |
 ----------------------------------------------------------------------------- 

 POTCAR:    PAW_PBE Si 05Jan2001                  
   VRHFIN =Si: s2p2                                                             
   LEXCH  = PE                                                                  
   EATOM  =   103.0669 eV,    7.5752 Ry                                         
                                                                                
   TITEL  = PAW_PBE Si 05Jan2001                                                
   LULTRA =        F    use ultrasoft PP ?                                      
   IUNSCR =        1    unscreen: 0-lin 1-nonlin 2-no                           
   RPACOR =    1.500    partial core radius                                     
   POMASS =   28.085; ZVAL   =    4.000    mass and valenz                      
   RCORE  =    1.900    outmost cutoff radius                                   
   RWIGS  =    2.480; RWIGS  =    1.312    wigner-seitz radius (au A)           
   ENMAX  =  245.345; ENMIN  =  184.009 eV                                      
   ICORE  =        2    local potential                                         
   LCOR   =        T    correct aug charges                                     
   LPAW   =        T    paw PP                                                  
   EAUG   =  322.069                                                            
   DEXC   =    0.000                                                            
   RMAX   =    1.950    core radius for proj-oper                               
   RAUG   =    1.300    factor for augmentation sphere                          
   RDEP   =    1.993    radius for radial grids                                 
   RDEPT  =    1.837    core radius for aug-charge                              
                                                                                
   Atomic configuration                                                         
    6 entries                                                                   
     n  l   j            E        occ.                                          
     1  0  0.50     -1785.8828   2.0000                                         
     2  0  0.50      -139.4969   2.0000                                         
     2  1  1.50       -95.5546   6.0000                                         
     3  0  0.50       -10.8127   2.0000                                         
     3  1  0.50        -4.0811   2.0000                                         
     3  2  1.50        -4.0817   0.0000                                         
   Description                                                                  
     l       E           TYP  RCUT    TYP  RCUT                                 
     0    -10.8127223     23  1.900                                             
     0     -7.6451159     23  1.900                                             
     1     -4.0811372     23  1.900                                             
     1      2.4879257     23  1.900                                             
     2     -4.0817478      7  1.900                                             
  local pseudopotential read in
  partial core-charges read in
  partial kinetic energy density read in
  atomic valenz-charges read in
  non local Contribution for L=           0  read in
    real space projection operators read in
  non local Contribution for L=           0  read in
    real space projection operators read in
  non local Contribution for L=           1  read in
    real space projection operators read in
  non local Contribution for L=           1  read in
    real space projection operators read in
    PAW grid and wavefunctions read in
 
   number of l-projection  operators is LMAX  =           4
   number of lm-projection operators is LMMAX =           8
 

 ----------------------------------------------------------------------------- 
|                                                                             |
|  ADVICE TO THIS USER RUNNING 'VASP/VAMP'   (HEAR YOUR MASTER'S VOICE ...):  |
|                                                                             |
|      You have a (more or less) 'large supercell' and for larger cells       |
|      it might be more efficient to use real space projection opertators     |
|      So try LREAL= Auto  in the INCAR   file.                               |
|      Mind:          For very  accurate calculation you might also keep the  |
|      reciprocal projection scheme          (i.e. LREAL=.FALSE.)             |
|                                                                             |
 ----------------------------------------------------------------------------- 

  PAW_PBE Si 05Jan2001                  :
 energy of atom  1       EATOM= -103.0669
 kinetic energy error for atom=    0.0004 (will be added to EATOM!!)
 
 
 POSCAR: Si53                                    
  positions in direct lattice
  velocities in cartesian coordinates
 exchange correlation table for  LEXCH =        8
   RHO(1)=    0.500       N(1)  =     2000
   RHO(2)=  100.500       N(2)  =     4000
 


--------------------------------------------------------------------------------------------------------


 ion  position               nearest neighbor table
   1  0.292  0.292  0.625-  32 2.35  40 2.35  41 2.35  38 2.35
   2  0.292  0.292  0.958-  30 2.35  39 2.35  41 2.35  36 2.35
   3  0.292  0.625  0.292-  34 2.35  42 2.35  43 2.35  40 2.35
   4  0.292  0.625  0.625-  35 2.35  43 2.35  44 2.35  41 2.35
   5  0.292  0.625  0.958-  33 2.35  42 2.35  44 2.35  39 2.35
   6  0.292  0.958  0.292-  28 2.35  36 2.35  37 2.35  43 2.35
   7  0.292  0.958  0.625-  29 2.35  37 2.35  38 2.35  44 2.35
   8  0.292  0.958  0.958-  27 2.35  36 2.35  38 2.35  42 2.35
   9  0.625  0.292  0.292-  40 2.35  48 2.35  49 2.35  46 2.35
  10  0.625  0.292  0.625-  41 2.35  49 2.35  50 2.35  47 2.35
  11  0.625  0.292  0.958-  39 2.35  48 2.35  50 2.35  45 2.35
  12  0.625  0.625  0.292-  43 2.35  51 2.35  52 2.35  49 2.35
  13  0.625  0.625  0.625-  44 2.35  52 2.35  53 2.35  50 2.35
  14  0.625  0.625  0.958-  42 2.35  51 2.35  53 2.35  48 2.35
  15  0.625  0.958  0.292-  37 2.35  45 2.35  46 2.35  52 2.35
  16  0.625  0.958  0.625-  38 2.35  46 2.35  47 2.35  53 2.35
  17  0.625  0.958  0.958-  36 2.35  45 2.35  47 2.35  51 2.35
  18  0.958  0.292  0.292-  49 2.35  31 2.35  30 2.35  28 2.35
  19  0.958  0.292  0.625-  50 2.35  32 2.35  31 2.35  29 2.35
  20  0.958  0.292  0.958-  48 2.35  30 2.35  32 2.35  27 2.35
  21  0.958  0.625  0.292-  52 2.35  34 2.35  33 2.35  31 2.35
  22  0.958  0.625  0.625-  53 2.35  35 2.35  34 2.35  32 2.35
  23  0.958  0.625  0.958-  51 2.35  33 2.35  35 2.35  30 2.35
  24  0.958  0.958  0.292-  46 2.35  28 2.35  27 2.35  34 2.35
  25  0.958  0.958  0.625-  47 2.35  29 2.35  28 2.35  35 2.35
  26  0.958  0.958  0.958-  45 2.35  27 2.35  29 2.35  33 2.35
  27  0.042  0.042  0.042-   8 2.35  26 2.35  24 2.35  20 2.35
  28  0.042  0.042  0.375-   6 2.35  24 2.35  25 2.35  18 2.35
  29  0.042  0.042  0.708-   7 2.35  25 2.35  26 2.35  19 2.35
  30  0.042  0.375  0.042-   2 2.35  20 2.35  18 2.35  23 2.35
  31  0.042  0.375  0.375-  18 2.35  19 2.35  21 2.35
  32  0.042  0.375  0.708-   1 2.35  19 2.35  20 2.35  22 2.35
  33  0.042  0.708  0.042-   5 2.35  23 2.35  21 2.35  26 2.35
  34  0.042  0.708  0.375-   3 2.35  21 2.35  22 2.35  24 2.35
  35  0.042  0.708  0.708-   4 2.35  22 2.35  23 2.35  25 2.35
  36  0.375  0.042  0.042-  17 2.35   8 2.35   6 2.35   2 2.35
  37  0.375  0.042  0.375-  15 2.35   7 2.35   6 2.35
  38  0.375  0.042  0.708-  16 2.35   8 2.35   7 2.35   1 2.35
  39  0.375  0.375  0.042-  11 2.35   2 2.35   5 2.35
  40  0.375  0.375  0.375-   9 2.35   1 2.35   3 2.35
  41  0.375  0.375  0.708-  10 2.35   2 2.35   1 2.35   4 2.35
  42  0.375  0.708  0.042-  14 2.35   5 2.35   3 2.35   8 2.35
  43  0.375  0.708  0.375-  12 2.35   4 2.35   3 2.35   6 2.35
  44  0.375  0.708  0.708-  13 2.35   5 2.35   4 2.35   7 2.35
  45  0.708  0.042  0.042-  26 2.35  17 2.35  15 2.35  11 2.35
  46  0.708  0.042  0.375-  24 2.35  16 2.35  15 2.35   9 2.35
  47  0.708  0.042  0.708-  25 2.35  17 2.35  16 2.35  10 2.35
  48  0.708  0.375  0.042-  20 2.35  11 2.35   9 2.35  14 2.35
  49  0.708  0.375  0.375-  18 2.35  10 2.35   9 2.35  12 2.35
  50  0.708  0.375  0.708-  19 2.35  11 2.35  10 2.35  13 2.35
  51  0.708  0.708  0.042-  23 2.35  14 2.35  12 2.35  17 2.35
  52  0.708  0.708  0.375-  21 2.35  13 2.35  12 2.35  15 2.35
  53  0.708  0.708  0.708-  22 2.35  14 2.35  13 2.35  16 2.35
 
  LATTYP: Found a face centered cubic cell.
 ALAT       =    16.2915000202
  
  Lattice vectors:
  
 A1 = (   9.9764655300,   0.0000000000,   5.7599150700)
 A2 = (   3.3254885100,   9.4059019200,   5.7599150700)
 A3 = (   0.0000000000,   0.0000000000,  11.5198301400)


Analysis of symmetry for initial positions (statically):
=====================================================================
 Subroutine PRICEL returns:
 Original cell was already a primitive cell.
 

 Routine SETGRP: Setting up the symmetry group for a 
 face centered cubic supercell.


 Subroutine GETGRP returns: Found 24 space group operations
 (whereof  6 operations were pure point group operations)
 out of a pool of 48 trial point group operations.


The static configuration has the point symmetry C_3v.
 The point group associated with its full space group is T_d .


Analysis of symmetry for dynamics (positions and initial velocities):
=====================================================================
 Subroutine PRICEL returns:
 Original cell was already a primitive cell.
 

 Routine SETGRP: Setting up the symmetry group for a 
 face centered cubic supercell.


 Subroutine GETGRP returns: Found 24 space group operations
 (whereof  6 operations were pure point group operations)
 out of a pool of 48 trial point group operations.


The dynamic configuration has the point symmetry C_3v.
 The point group associated with its full space group is T_d .


 Subroutine INISYM returns: Found 24 space group operations
 (whereof  6 operations are pure point group operations),
 and found     1 'primitive' translations

 
 
 KPOINTS: Automatic kpoint scheme                 

Automatic generation of k-mesh.
Space group operators:
 irot       det(A)        alpha          n_x          n_y          n_z        tau_x        tau_y        tau_z
    1     1.000000     0.000000     1.000000     0.000000     0.000000     0.000000     0.000000     0.000000
    2     1.000000   120.000000    -0.471405    -0.333333    -0.816497     0.000000     0.000000     0.000000
    3     1.000000   120.000000     0.471405     0.333333     0.816497     0.000000     0.000000     0.000000
    4    -1.000000   180.000000     0.288675     0.816497    -0.500000     0.000000     0.000000     0.000000
    5    -1.000000   180.000000     0.577350    -0.816497     0.000000     0.000000     0.000000     0.000000
    6    -1.000000   180.000000     0.866025     0.000000    -0.500000     0.000000     0.000000     0.000000
    7    -1.000000    90.000000    -0.816497    -0.577350    -0.000000     0.166667     0.000000     0.000000
    8    -1.000000   180.000000     0.866025     0.000000     0.500000     0.166667     0.000000     0.000000
    9    -1.000000    90.000000     0.408248    -0.577350     0.707107     0.166667     0.000000     0.000000
   10     1.000000   180.000000     0.816497     0.577350     0.000000     0.000000     0.000000     0.166667
   11     1.000000   120.000000     0.942809    -0.333333     0.000000     0.000000     0.000000     0.166667
   12     1.000000   120.000000    -0.000000    -1.000000    -0.000000     0.000000     0.000000     0.166667
   13    -1.000000    90.000000     0.816497     0.577350    -0.000000    -0.000000     0.166667     0.000000
   14    -1.000000    90.000000     0.408248    -0.577350    -0.707107     0.000000     0.166667    -0.000000
   15    -1.000000   180.000000     0.288675     0.816497     0.500000    -0.000000     0.166667     0.000000
   16     1.000000   120.000000    -0.000000     1.000000    -0.000000     0.166667     0.000000     0.000000
   17     1.000000   120.000000     0.471405     0.333333    -0.816497     0.166667     0.000000     0.000000
   18     1.000000   180.000000    -0.408248     0.577350     0.707107     0.166667     0.000000     0.000000
   19    -1.000000    90.000000    -0.408248     0.577350    -0.707107     0.000000     0.000000     0.166667
   20    -1.000000   180.000000     0.000000    -0.000000     1.000000     0.000000     0.000000     0.166667
   21    -1.000000    90.000000    -0.408248     0.577350     0.707107     0.000000     0.000000     0.166667
   22     1.000000   120.000000    -0.942809     0.333333     0.000000     0.000000     0.166667    -0.000000
   23     1.000000   180.000000    -0.408248     0.577350    -0.707107    -0.000000     0.166667     0.000000
   24     1.000000   120.000000    -0.471405    -0.333333     0.816497    -0.000000     0.166667     0.000000
 
 Subroutine IBZKPT returns following result:
 ===========================================
 
 Found      8 irreducible k-points:
 
 Following reciprocal coordinates:
            Coordinates               Weight
  0.000000  0.000000  0.000000      1.000000
  0.250000  0.000000  0.000000      8.000000
  0.500000  0.000000  0.000000      4.000000
  0.250000  0.250000  0.000000      6.000000
  0.500000  0.250000  0.000000     24.000000
 -0.250000  0.250000  0.000000     12.000000
  0.500000  0.500000  0.000000      3.000000
 -0.250000  0.500000  0.250000      6.000000
 
 Following cartesian coordinates:
            Coordinates               Weight
  0.000000  0.000000  0.000000      1.000000
  0.025059 -0.008860  0.000000      8.000000
  0.050118 -0.017719  0.000000      4.000000
  0.025059  0.017719  0.000000      6.000000
  0.050118  0.008860  0.000000     24.000000
 -0.025059  0.035439  0.000000     12.000000
  0.050118  0.035439  0.000000      3.000000
 -0.037588  0.053158  0.021702      6.000000
 


--------------------------------------------------------------------------------------------------------




 Dimension of arrays:
   k-points           NKPTS =      8   k-points in BZ     NKDIM =      8   number of bands    NBANDS=    144
   number of dos      NEDOS =    301   number of ions     NIONS =     53
   non local maximal  LDIM  =      4   non local SUM 2l+1 LMDIM =      8
   total plane-waves  NPLWV = 343000
   max r-space proj   IRMAX =      1   max aug-charges    IRDMAX=  10807
   dimension x,y,z NGX =    70 NGY =   70 NGZ =   70
   dimension x,y,z NGXF=   140 NGYF=  140 NGZF=  140
   support grid    NGXF=   140 NGYF=  140 NGZF=  140
   ions per type =              53
   NGX,Y,Z   is equivalent  to a cutoff of  10.10, 10.10, 10.10 a.u.
   NGXF,Y,Z  is equivalent  to a cutoff of  20.20, 20.20, 20.20 a.u.

 SYSTEM =  Si                                      
 POSCAR =  Si53                                    

 Startparameter for this run:
   NWRITE =      2    write-flag & timer
   PREC   = normal    normal or accurate (medium, high low for compatibility)
   ISTART =      1    job   : 0-new  1-cont  2-samecut
   ICHARG =      0    charge: 1-file 2-atom 10-const
   ISPIN  =      1    spin polarized calculation?
   LNONCOLLINEAR =      F non collinear calculations
   LSORBIT =      F    spin-orbit coupling
   INIWAV =      1    electr: 0-lowe 1-rand  2-diag
   LASPH  =      F    aspherical Exc in radial PAW
   METAGGA=      F    non-selfconsistent MetaGGA calc.

 Electronic Relaxation 1
   ENCUT  =  550.0 eV  40.42 Ry    6.36 a.u.  22.03 22.03 22.03*2*pi/ulx,y,z
   ENINI  =  550.0     initial cutoff
   ENAUG  =  322.1 eV  augmentation charge cutoff
   NELM   =    200;   NELMIN=  2; NELMDL=  0     # of ELM steps 
   EDIFF  = 0.1E-04   stopping-criterion for ELM
   LREAL  =      F    real-space projection
   NLSPLINE    = F    spline interpolate recip. space projectors
   LCOMPAT=      F    compatible to vasp.4.4
   GGA_COMPAT  = T    GGA compatible to vasp.4.4-vasp.4.6
   LMAXPAW     = -100 max onsite density
   LMAXMIX     =    2 max onsite mixed and CHGCAR
   VOSKOWN=      0    Vosko Wilk Nusair interpolation
   ROPT   =    0.00000
 Ionic relaxation
   EDIFFG = -.5E-01   stopping-criterion for IOM
   NSW    =    100    number of steps for IOM
   NBLOCK =      1;   KBLOCK =    100    inner block; outer block 
   IBRION =      2    ionic relax: 0-MD 1-quasi-New 2-CG
   NFREE  =      1    steps in history (QN), initial steepest desc. (CG)
   ISIF   =      2    stress and relaxation
   IWAVPR =     11    prediction:  0-non 1-charg 2-wave 3-comb
   ISYM   =      2    0-nonsym 1-usesym 2-fastsym
   LCORR  =      T    Harris-Foulkes like correction to forces

   POTIM  = 0.5000    time-step for ionic-motion
   TEIN   =    0.0    initial temperature
   TEBEG  =    0.0;   TEEND  =   0.0 temperature during run
   SMASS  =  -3.00    Nose mass-parameter (am)
   estimated Nose-frequenzy (Omega)   =  0.10E-29 period in steps =****** mass=  -0.303E-26a.u.
   SCALEE = 1.0000    scale energy and forces
   NPACO  =    256;   APACO  = 16.0  distance and # of slots for P.C.
   PSTRESS=    0.0 pullay stress

  Mass of Ions in am
   POMASS =  28.09
  Ionic Valenz
   ZVAL   =   4.00
  Atomic Wigner-Seitz radii
   RWIGS  =  -1.00
  virtual crystal weights 
   VCA    =   1.00
   NELECT =     213.0000    total number of electrons
   NUPDOWN=      -1.0000    fix difference up-down

 DOS related values:
   EMIN   =  10.00;   EMAX   =-10.00  energy-range for DOS
   EFERMI =   0.00
   ISMEAR =     0;   SIGMA  =   0.05  broadening in eV -4-tet -1-fermi 0-gaus

 Electronic relaxation 2 (details)
   IALGO  =     38    algorithm
   LDIAG  =      T    sub-space diagonalisation (order eigenvalues)
   LSUBROT=      F    optimize rotation matrix (better conditioning)
   TURBO    =      0    0=normal 1=particle mesh
   IRESTART =      0    0=no restart 2=restart with 2 vectors
   NREBOOT  =      0    no. of reboots
   NMIN     =      0    reboot dimension
   EREF     =   0.00    reference energy to select bands
   IMIX   =      4    mixing-type and parameters
     AMIX     =   0.20;   BMIX     =  1.00
     AMIX_MAG =   0.80;   BMIX_MAG =  1.00
     AMIN     =   0.10
     WC   =   100.;   INIMIX=   1;  MIXPRE=   1;  MAXMIX= -45

 Intra band minimization:
   WEIMIN = 0.0010     energy-eigenvalue tresh-hold
   EBREAK =  0.17E-07  absolut break condition
   DEPER  =   0.30     relativ break condition  

   TIME   =   0.40     timestep for ELM

  volume/ion in A,a.u.               =      20.40       137.64
  Fermi-wavevector in a.u.,A,eV,Ry     =   0.952636  1.800221 12.347494  0.907515
  Thomas-Fermi vector in A             =   2.081217
 
 Write flags
   LWAVE        =      T    write WAVECAR
   LDOWNSAMPLE  =      F    k-point downsampling of WAVECAR
   LCHARG       =      T    write CHGCAR
   LVTOT        =      F    write LOCPOT, total local potential
   LVHAR        =      F    write LOCPOT, Hartree potential only
   LELF         =      F    write electronic localiz. function (ELF)
   LORBIT       =     10    0 simple, 1 ext, 2 COOP (PROOUT), +10 PAW based schemes


 Dipole corrections
   LMONO  =      F    monopole corrections only (constant potential shift)
   LDIPOL =      F    correct potential (dipole corrections)
   IDIPOL =      0    1-x, 2-y, 3-z, 4-all directions 
   EPSILON=  1.0000000 bulk dielectric constant

 Exchange correlation treatment:
   GGA     =    --    GGA type
   LEXCH   =     8    internal setting for exchange type
   VOSKOWN=      0    Vosko Wilk Nusair interpolation
   LHFCALC =     F    Hartree Fock is set to
   LHFONE  =     F    Hartree Fock one center treatment
   AEXX    =    0.0000 exact exchange contribution

 Linear response parameters
   LEPSILON=     F    determine dielectric tensor
   LRPA    =     F    only Hartree local field effects (RPA)
   LNABLA  =     F    use nabla operator in PAW spheres
   LVEL    =     F    velocity operator in full k-point grid
   LINTERFAST=   F  fast interpolation
   KINTER  =     0    interpolate to denser k-point grid
   CSHIFT  =0.1000    complex shift for real part using Kramers Kronig
   OMEGAMAX=  -1.0    maximum frequency
   DEG_THRESHOLD= 0.2000000E-02 threshold for treating states as degnerate
   RTIME   =   -0.100 relaxation time in fs
  (WPLASMAI=    0.000 imaginary part of plasma frequency in eV, 0.658/RTIME)
   DFIELD  = 0.0000000 0.0000000 0.0000000 field for delta impulse in time
 
 Orbital magnetization related:
   ORBITALMAG=     F  switch on orbital magnetization
   LCHIMAG   =     F  perturbation theory with respect to B field
   DQ        =  0.001000  dq finite difference perturbation B field
   LLRAUG    =     F  two centre corrections for induced B field



--------------------------------------------------------------------------------------------------------


 conjugate gradient relaxation of ions
 charge density and potential will be updated during run
 non-spin polarized calculation
 Variant of blocked Davidson
 Davidson routine will perform the subspace rotation
 perform sub-space diagonalisation
    after iterative eigenvector-optimisation
 modified Broyden-mixing scheme, WC =      100.0
 initial mixing is a Kerker type mixing with AMIX =  0.2000 and BMIX =      1.0000
 Hartree-type preconditioning will be used
 using additional bands           37
 reciprocal scheme for non local part
 use partial core corrections
 calculate Harris-corrections to forces 
   (improved forces if not selfconsistent)
 use gradient corrections 
 use of overlap-Matrix (Vanderbilt PP)
 Gauss-broadening in eV      SIGMA  =   0.05


--------------------------------------------------------------------------------------------------------


  energy-cutoff  :      550.00
  volume of cell :     1080.99
      direct lattice vectors                 reciprocal lattice vectors
     9.976465530  0.000000000  5.759915070     0.100235900 -0.035438742  0.000000000
     3.325488510  9.405901920  5.759915070     0.000000000  0.106316227  0.000000000
     0.000000000  0.000000000 11.519830140    -0.050117950 -0.035438742  0.086806836

  length of vectors
    11.519830124 11.519830136 11.519830140     0.106316227  0.106316227  0.106316227


 
 old parameters found on file WAVECAR:
  energy-cutoff  :      550.00
  volume of cell :     1080.99
      direct lattice vectors                 reciprocal lattice vectors
     9.976465530  0.000000000  5.759915070     0.100235900 -0.035438742  0.000000000
     3.325488510  9.405901920  5.759915070     0.000000000  0.106316227  0.000000000
     0.000000000  0.000000000 11.519830140    -0.050117950 -0.035438742  0.086806836

  length of vectors

 
 k-points in units of 2pi/SCALE and weight: Automatic kpoint scheme                 
   0.00000000  0.00000000  0.00000000       0.016
   0.02505897 -0.00885969  0.00000000       0.125
   0.05011795 -0.01771937  0.00000000       0.062
   0.02505897  0.01771937  0.00000000       0.094
   0.05011795  0.00885969  0.00000000       0.375
  -0.02505897  0.03543874  0.00000000       0.188
   0.05011795  0.03543874  0.00000000       0.047
  -0.03758846  0.05315811  0.02170171       0.094
 
 k-points in reciprocal lattice and weights: Automatic kpoint scheme                 
   0.00000000  0.00000000  0.00000000       0.016
   0.25000000  0.00000000  0.00000000       0.125
   0.50000000  0.00000000  0.00000000       0.062
   0.25000000  0.25000000  0.00000000       0.094
   0.50000000  0.25000000  0.00000000       0.375
  -0.25000000  0.25000000  0.00000000       0.188
   0.50000000  0.50000000  0.00000000       0.047
  -0.25000000  0.50000000  0.25000000       0.094
 
 position of ions in fractional coordinates (direct lattice) 
   0.29166667  0.29166667  0.62500000
   0.29166667  0.29166667  0.95833333
   0.29166667  0.62500000  0.29166667
   0.29166667  0.62500000  0.62500000
   0.29166667  0.62500000  0.95833333
   0.29166667  0.95833333  0.29166667
   0.29166667  0.95833333  0.62500000
   0.29166667  0.95833333  0.95833333
   0.62500000  0.29166667  0.29166667
   0.62500000  0.29166667  0.62500000
   0.62500000  0.29166667  0.95833333
   0.62500000  0.62500000  0.29166667
   0.62500000  0.62500000  0.62500000
   0.62500000  0.62500000  0.95833333
   0.62500000  0.95833333  0.29166667
   0.62500000  0.95833333  0.62500000
   0.62500000  0.95833333  0.95833333
   0.95833333  0.29166667  0.29166667
   0.95833333  0.29166667  0.62500000
   0.95833333  0.29166667  0.95833333
   0.95833333  0.62500000  0.29166667
   0.95833333  0.62500000  0.62500000
   0.95833333  0.62500000  0.95833333
   0.95833333  0.95833333  0.29166667
   0.95833333  0.95833333  0.62500000
   0.95833333  0.95833333  0.95833333
   0.04166667  0.04166667  0.04166667
   0.04166667  0.04166667  0.37500000
   0.04166667  0.04166667  0.70833333
   0.04166667  0.37500000  0.04166667
   0.04166667  0.37500000  0.37500000
   0.04166667  0.37500000  0.70833333
   0.04166667  0.70833333  0.04166667
   0.04166667  0.70833333  0.37500000
   0.04166667  0.70833333  0.70833333
   0.37500000  0.04166667  0.04166667
   0.37500000  0.04166667  0.37500000
   0.37500000  0.04166667  0.70833333
   0.37500000  0.37500000  0.04166667
   0.37500000  0.37500000  0.37500000
   0.37500000  0.37500000  0.70833333
   0.37500000  0.70833333  0.04166667
   0.37500000  0.70833333  0.37500000
   0.37500000  0.70833333  0.70833333
   0.70833333  0.04166667  0.04166667
   0.70833333  0.04166667  0.37500000
   0.70833333  0.04166667  0.70833333
   0.70833333  0.37500000  0.04166667
   0.70833333  0.37500000  0.37500000
   0.70833333  0.37500000  0.70833333
   0.70833333  0.70833333  0.04166667
   0.70833333  0.70833333  0.37500000
   0.70833333  0.70833333  0.70833333
 
 position of ions in cartesian coordinates  (Angst):
   3.87973659  2.74338806 10.55984429
   3.87973659  2.74338806 14.39978767
   4.98823276  5.87868870  8.63987260
   4.98823276  5.87868870 12.47981598
   4.98823276  5.87868870 16.31975937
   6.09672893  9.01398934 10.55984429
   6.09672893  9.01398934 14.39978767
   6.09672893  9.01398934 18.23973106
   7.20522510  2.74338806  8.63987260
   7.20522510  2.74338806 12.47981598
   7.20522510  2.74338806 16.31975937
   8.31372128  5.87868870 10.55984429
   8.31372128  5.87868870 14.39978767
   8.31372128  5.87868870 18.23973106
   9.42221745  9.01398934 12.47981598
   9.42221745  9.01398934 16.31975937
   9.42221745  9.01398934 20.15970275
  10.53071362  2.74338806 10.55984429
  10.53071362  2.74338806 14.39978767
  10.53071362  2.74338806 18.23973106
  11.63920979  5.87868870 12.47981598
  11.63920979  5.87868870 16.31975937
  11.63920979  5.87868870 20.15970275
  12.74770596  9.01398934 14.39978767
  12.74770596  9.01398934 18.23973106
  12.74770596  9.01398934 22.07967444
   0.55424808  0.39191258  0.95998584
   0.55424808  0.39191258  4.79992922
   0.55424808  0.39191258  8.63987260
   1.66274425  3.52721322  2.87995753
   1.66274425  3.52721322  6.71990091
   1.66274425  3.52721322 10.55984430
   2.77124042  6.66251386  4.79992922
   2.77124042  6.66251386  8.63987261
   2.77124042  6.66251386 12.47981599
   3.87973659  0.39191258  2.87995753
   3.87973659  0.39191258  6.71990091
   3.87973659  0.39191258 10.55984430
   4.98823277  3.52721322  4.79992922
   4.98823277  3.52721322  8.63987261
   4.98823277  3.52721322 12.47981599
   6.09672894  6.66251386  6.71990091
   6.09672894  6.66251386 10.55984430
   6.09672894  6.66251386 14.39978768
   7.20522511  0.39191258  4.79992922
   7.20522511  0.39191258  8.63987261
   7.20522511  0.39191258 12.47981599
   8.31372128  3.52721322  6.71990091
   8.31372128  3.52721322 10.55984430
   8.31372128  3.52721322 14.39978768
   9.42221745  6.66251386  8.63987260
   9.42221745  6.66251386 12.47981599
   9.42221745  6.66251386 16.31975937
 


--------------------------------------------------------------------------------------------------------


 k-point  1 :   0.0000 0.0000 0.0000  plane waves:   31415
 k-point  2 :   0.2500 0.0000 0.0000  plane waves:   31608
 k-point  3 :   0.5000 0.0000 0.0000  plane waves:   31638
 k-point  4 :   0.2500 0.2500 0.0000  plane waves:   31695
 k-point  5 :   0.5000 0.2500 0.0000  plane waves:   31649
 k-point  6 :  -0.2500 0.2500 0.0000  plane waves:   31674
 k-point  7 :   0.5000 0.5000 0.0000  plane waves:   31716
 k-point  8 :  -0.2500 0.5000 0.2500  plane waves:   31684

 maximum and minimum number of plane-waves per node :     31716    31415

 maximum number of plane-waves:     31716
 maximum index in each direction: 
   IXMAX=   22   IYMAX=   22   IZMAX=   22
   IXMIN=  -22   IYMIN=  -22   IZMIN=  -22


 serial   3D FFT for wavefunctions
 parallel 3D FFT for charge:
    minimum data exchange during FFTs selected (reduces bandwidth)


 total amount of memory used by VASP MPI-rank0   122888. kBytes
=======================================================================

   base      :      30000. kBytes
   nonl-proj :      43150. kBytes
   fftplans  :       5382. kBytes
   grid      :      19496. kBytes
   one-center:        162. kBytes
   wavefun   :      24698. kBytes
 
     INWAV:  cpu time    8.1965: real time    8.4595
 Broyden mixing: mesh for mixing (old mesh)
   NGX = 45   NGY = 45   NGZ = 45
  (NGX  =140   NGY  =140   NGZ  =140)
  gives a total of  91125 points

 charge density for first step will be calculated from the start-wavefunctions


--------------------------------------------------------------------------------------------------------


 Maximum index for augmentation-charges          503 (set IRDMAX)


--------------------------------------------------------------------------------------------------------


 initial charge from wavefunction
 First call to EWALD:  gamma=   0.173
 Maximum number of real-space cells 3x 3x 3
 Maximum number of reciprocal cells 3x 3x 3

    FEWALD:  cpu time    0.1231: real time    0.1244


--------------------------------------- Iteration      1(   1)  ---------------------------------------


    POTLOK:  cpu time    0.1074: real time    0.1159
    SETDIJ:  cpu time    0.0109: real time    0.0111
     EDDAV:  cpu time    3.8193: real time    3.8603
       DOS:  cpu time    0.0162: real time    0.0167
    CHARGE:  cpu time    0.2156: real time    0.2176
    MIXING:  cpu time    0.0328: real time    0.0334
    --------------------------------------------
      LOOP:  cpu time    4.2023: real time    4.2549

 eigenvalue-minimisations  :  2304
 total energy-change (2. order) :-0.2778080E+03  (-0.3548089E-05)
 number of electron     212.9999999 magnetization 
 augmentation part      -12.2399994 magnetization 

 Broyden mixing:
  rms(total) = 0.55668E-03    rms(broyden)= 0.55668E-03
  rms(prec ) = 0.15173E-02
  weight for this iteration     100.00

 Free energy of the ion-electron system (eV)
  ---------------------------------------------------
  alpha Z        PSCENC =        87.47481167
  Ewald energy   TEWEN  =     -5974.52528800
  -Hartree energ DENC   =      -435.28201080
  -exchange      EXHF   =         0.00000000
  -V(xc)+E(xc)   XCENC  =      -475.23648455
  PAW double counting   =     22596.48608911   -21669.92294145
  entropy T*S    EENTRO =        -0.01835353
  eigenvalues    EBANDS =       130.69329902
  atomic energy  EATOM  =      5462.52286525
  Solvation  Ediel_sol  =         0.00000000
  ---------------------------------------------------
  free energy    TOTEN  =      -277.80801329 eV

  energy without entropy =     -277.78965975  energy(sigma->0) =     -277.79883652


--------------------------------------------------------------------------------------------------------




--------------------------------------- Iteration      1(   2)  ---------------------------------------


    POTLOK:  cpu time    0.1442: real time    0.1455
    SETDIJ:  cpu time    0.4876: real time    0.4921
     EDDAV:  cpu time    3.0302: real time    3.0607
       DOS:  cpu time    0.4199: real time    0.4263
    --------------------------------------------
      LOOP:  cpu time    4.0818: real time    4.1245

 eigenvalue-minimisations  :  1944
 total energy-change (2. order) : 0.2781004E-05  (-0.9753548E-06)
 number of electron     212.9999999 magnetization 
 augmentation part      -12.2399994 magnetization 

 Free energy of the ion-electron system (eV)
  ---------------------------------------------------
  alpha Z        PSCENC =        87.47481167
  Ewald energy   TEWEN  =     -5974.52528800
  -Hartree energ DENC   =      -435.27624325
  -exchange      EXHF   =         0.00000000
  -V(xc)+E(xc)   XCENC  =      -475.23658546
  PAW double counting   =     22596.73532978   -21670.17209257
  entropy T*S    EENTRO =        -0.01836762
  eigenvalues    EBANDS =       130.68755970
  atomic energy  EATOM  =      5462.52286525
  Solvation  Ediel_sol  =         0.00000000
  ---------------------------------------------------
  free energy    TOTEN  =      -277.80801050 eV

  energy without entropy =     -277.78964288  energy(sigma->0) =     -277.79882669


--------------------------------------------------------------------------------------------------------




 average (electrostatic) potential at core
  the test charge radii are     0.9892
  (the norm of the test charge is              1.0000)
       1 -83.4316       2 -83.4316       3 -83.4316       4 -83.5319       5 -83.4316
       6 -83.4316       7 -83.4316       8 -83.4943       9 -83.4316      10 -83.5319
      11 -83.4316      12 -83.5319      13 -83.5319      14 -83.5372      15 -83.4316
      16 -83.5372      17 -83.5372      18 -83.4316      19 -83.4316      20 -83.4943
      21 -83.4316      22 -83.5372      23 -83.5372      24 -83.4943      25 -83.5372
      26 -83.4943      27 -83.5312      28 -83.4817      29 -83.4817      30 -83.4817
      31 -83.3105      32 -83.4817      33 -83.4817      34 -83.4817      35 -83.5526
      36 -83.4817      37 -83.3105      38 -83.4817      39 -83.3105      40 -83.3105
      41 -83.5105      42 -83.4817      43 -83.5105      44 -83.5105      45 -83.4817
      46 -83.4817      47 -83.5526      48 -83.4817      49 -83.5105      50 -83.5105
      51 -83.5526      52 -83.5105      53 -83.5526
 
 
 
 E-fermi :   6.2806     XC(G=0):  -9.3624     alpha+bet :-11.7613


 k-point     1 :       0.0000    0.0000    0.0000
  band No.  band energies     occupation 
      1      -6.3137      2.00000
      2      -5.0193      2.00000
      3      -4.9886      2.00000
      4      -4.9886      2.00000
      5      -4.9886      2.00000
      6      -4.9440      2.00000
      7      -4.9440      2.00000
      8      -4.9440      2.00000
      9      -4.7833      2.00000
     10      -4.4507      2.00000
     11      -4.4507      2.00000
     12      -4.3975      2.00000
     13      -4.3975      2.00000
     14      -4.3975      2.00000
     15      -3.9792      2.00000
     16      -3.1244      2.00000
     17      -3.1244      2.00000
     18      -3.1244      2.00000
     19      -3.1130      2.00000
     20      -3.1130      2.00000
     21      -3.0671      2.00000
     22      -3.0671      2.00000
     23      -3.0671      2.00000
     24      -2.9517      2.00000
     25      -2.9517      2.00000
     26      -2.9517      2.00000
     27      -2.0617      2.00000
     28      -1.1926      2.00000
     29      -1.1926      2.00000
     30      -1.1926      2.00000
     31      -1.1743      2.00000
     32      -1.1743      2.00000
     33      -1.1367      2.00000
     34      -1.1367      2.00000
     35      -1.1367      2.00000
     36      -0.9855      2.00000
     37      -0.9855      2.00000
     38      -0.9855      2.00000
     39      -0.2403      2.00000
     40       0.2694      2.00000
     41       0.2863      2.00000
     42       0.2863      2.00000
     43       0.2863      2.00000
     44       0.3571      2.00000
     45       0.3571      2.00000
     46       0.3571      2.00000
     47       0.3883      2.00000
     48       0.6067      2.00000
     49       0.6067      2.00000
     50       0.7157      2.00000
     51       0.7157      2.00000
     52       0.7157      2.00000
     53       1.1304      2.00000
     54       1.1623      2.00000
     55       1.1623      2.00000
     56       1.1623      2.00000
     57       1.1727      2.00000
     58       1.1727      2.00000
     59       1.1727      2.00000
     60       1.2766      2.00000
     61       1.2766      2.00000
     62       1.6163      2.00000
     63       1.6163      2.00000
     64       1.6163      2.00000
     65       3.1768      2.00000
     66       3.1768      2.00000
     67       3.1768      2.00000
     68       3.2057      2.00000
     69       3.2057      2.00000
     70       3.2057      2.00000
     71       3.2069      2.00000
     72       3.2069      2.00000
     73       3.2069      2.00000
     74       3.2759      2.00000
     75       3.2759      2.00000
     76       3.2759      2.00000
     77       3.4929      2.00000
     78       3.4929      2.00000
     79       3.4929      2.00000
     80       3.5007      2.00000
     81       3.5232      2.00000
     82       3.5232      2.00000
     83       3.5420      2.00000
     84       3.5420      2.00000
     85       3.5420      2.00000
     86       3.7596      2.00000
     87       3.9764      2.00000
     88       3.9764      2.00000
     89       3.9764      2.00000
     90       4.5826      2.00000
     91       4.5826      2.00000
     92       4.5831      2.00000
     93       4.5831      2.00000
     94       4.5831      2.00000
     95       4.5965      2.00000
     96       4.5965      2.00000
     97       4.5965      2.00000
     98       4.6577      2.00000
     99       4.6577      2.00000
    100       4.6622      2.00000
    101       4.6622      2.00000
    102       4.6622      2.00000
    103       5.3868      2.00000
    104       5.3868      2.00000
    105       5.3868      2.00000
    106       6.3414      0.08571
    107       6.3414      0.08571
    108       6.3414      0.08571
    109       6.3617      0.02179
    110       6.3617      0.02179
    111       6.4264      0.00004
    112       6.7424      0.00000
    113       6.7424      0.00000
    114       6.7424      0.00000
    115       7.1656      0.00000
    116       7.1656      0.00000
    117       7.1656      0.00000
    118       7.1779      0.00000
    119       7.1779      0.00000
    120       7.1779      0.00000
    121       7.1898      0.00000
    122       7.2623      0.00000
    123       7.2623      0.00000
    124       7.2648      0.00000
    125       7.2648      0.00000
    126       7.2648      0.00000
    127       7.3671      0.00000
    128       7.3887      0.00000
    129       7.3887      0.00000
    130       7.3887      0.00000
    131       7.5162      0.00000
    132       7.5162      0.00000
    133       7.5162      0.00000
    134       7.5590      0.00000
    135       7.7589      0.00000
    136       7.7589      0.00000
    137       7.8119      0.00000
    138       7.8119      0.00000
    139       7.8119      0.00000
    140       8.3193      0.00000
    141       8.3193      0.00000
    142       8.3193      0.00000
    143       8.6410      0.00000
    144       9.0899      0.00000

 k-point     2 :       0.2500    0.0000    0.0000
  band No.  band energies     occupation 
      1      -6.2258      2.00000
      2      -5.5223      2.00000
      3      -5.0930      2.00000
      4      -5.0930      2.00000
      5      -5.0661      2.00000
      6      -4.8230      2.00000
      7      -4.8230      2.00000
      8      -4.7641      2.00000
      9      -4.6594      2.00000
     10      -4.6594      2.00000
     11      -4.4681      2.00000
     12      -4.2837      2.00000
     13      -3.8972      2.00000
     14      -3.8972      2.00000
     15      -3.7569      2.00000
     16      -3.6667      2.00000
     17      -3.6667      2.00000
     18      -3.4762      2.00000
     19      -3.1100      2.00000
     20      -3.1100      2.00000
     21      -3.0620      2.00000
     22      -3.0094      2.00000
     23      -3.0094      2.00000
     24      -2.8239      2.00000
     25      -2.7795      2.00000
     26      -2.7795      2.00000
     27      -2.0770      2.00000
     28      -1.4260      2.00000
     29      -1.4260      2.00000
     30      -1.2856      2.00000
     31      -1.2160      2.00000
     32      -1.2160      2.00000
     33      -1.1757      2.00000
     34      -1.1061      2.00000
     35      -1.1061      2.00000
     36      -0.8832      2.00000
     37      -0.7523      2.00000
     38      -0.6339      2.00000
     39      -0.6339      2.00000
     40      -0.3215      2.00000
     41      -0.1705      2.00000
     42      -0.1705      2.00000
     43      -0.1510      2.00000
     44       0.0065      2.00000
     45       0.0065      2.00000
     46       0.6165      2.00000
     47       0.8002      2.00000
     48       0.8002      2.00000
     49       1.0050      2.00000
     50       1.2177      2.00000
     51       1.2177      2.00000
     52       1.3137      2.00000
     53       1.3368      2.00000
     54       1.3583      2.00000
     55       1.3583      2.00000
     56       1.4060      2.00000
     57       1.4060      2.00000
     58       1.4315      2.00000
     59       1.5836      2.00000
     60       1.5836      2.00000
     61       1.6137      2.00000
     62       1.8148      2.00000
     63       1.8148      2.00000
     64       1.8523      2.00000
     65       2.7354      2.00000
     66       2.7354      2.00000
     67       2.7591      2.00000
     68       3.0483      2.00000
     69       3.0802      2.00000
     70       3.0802      2.00000
     71       3.1579      2.00000
     72       3.1751      2.00000
     73       3.1751      2.00000
     74       3.1887      2.00000
     75       3.2003      2.00000
     76       3.2003      2.00000
     77       3.2233      2.00000
     78       3.2633      2.00000
     79       3.2633      2.00000
     80       3.3930      2.00000
     81       3.3930      2.00000
     82       3.4462      2.00000
     83       3.4879      2.00000
     84       3.6445      2.00000
     85       3.6445      2.00000
     86       3.7891      2.00000
     87       3.7891      2.00000
     88       3.9008      2.00000
     89       4.0200      2.00000
     90       4.0504      2.00000
     91       4.0504      2.00000
     92       4.1679      2.00000
     93       4.3044      2.00000
     94       4.3385      2.00000
     95       4.3385      2.00000
     96       4.3989      2.00000
     97       4.3989      2.00000
     98       4.5337      2.00000
     99       4.5337      2.00000
    100       4.6347      2.00000
    101       4.6473      2.00000
    102       4.7967      2.00000
    103       4.7967      2.00000
    104       5.2829      2.00000
    105       5.2829      2.00000
    106       6.0772      2.00000
    107       6.4413      0.00001
    108       6.4413      0.00001
    109       6.5821      0.00000
    110       6.6685      0.00000
    111       6.6685      0.00000
    112       6.8265      0.00000
    113       6.8265      0.00000
    114       6.8592      0.00000
    115       6.9905      0.00000
    116       7.0260      0.00000
    117       7.0260      0.00000
    118       7.3279      0.00000
    119       7.4915      0.00000
    120       7.4956      0.00000
    121       7.4956      0.00000
    122       7.6226      0.00000
    123       7.6852      0.00000
    124       7.6852      0.00000
    125       7.7363      0.00000
    126       7.7485      0.00000
    127       7.7671      0.00000
    128       7.7671      0.00000
    129       7.8148      0.00000
    130       7.8148      0.00000
    131       7.8805      0.00000
    132       7.8986      0.00000
    133       7.9106      0.00000
    134       7.9106      0.00000
    135       8.0779      0.00000
    136       8.0779      0.00000
    137       8.2627      0.00000
    138       8.4400      0.00000
    139       8.4400      0.00000
    140       8.4502      0.00000
    141       8.5844      0.00000
    142       8.5844      0.00000
    143       8.9270      0.00000
    144       8.9272      0.00000

 k-point     3 :       0.5000    0.0000    0.0000
  band No.  band energies     occupation 
      1      -6.0134      2.00000
      2      -5.8975      2.00000
      3      -5.0999      2.00000
      4      -5.0818      2.00000
      5      -5.0818      2.00000
      6      -4.9960      2.00000
      7      -4.9960      2.00000
      8      -4.7977      2.00000
      9      -4.2520      2.00000
     10      -4.2520      2.00000
     11      -4.2160      2.00000
     12      -4.2098      2.00000
     13      -4.2098      2.00000
     14      -4.0666      2.00000
     15      -3.8665      2.00000
     16      -3.2869      2.00000
     17      -3.2869      2.00000
     18      -3.2767      2.00000
     19      -3.2517      2.00000
     20      -3.2517      2.00000
     21      -3.1051      2.00000
     22      -3.1051      2.00000
     23      -3.0676      2.00000
     24      -3.0568      2.00000
     25      -2.9766      2.00000
     26      -2.9766      2.00000
     27      -2.0843      2.00000
     28      -1.3257      2.00000
     29      -1.2490      2.00000
     30      -1.2490      2.00000
     31      -1.2126      2.00000
     32      -1.1639      2.00000
     33      -1.1639      2.00000
     34      -1.0806      2.00000
     35      -0.9500      2.00000
     36      -0.9500      2.00000
     37      -0.8932      2.00000
     38      -0.8932      2.00000
     39      -0.8016      2.00000
     40      -0.5822      2.00000
     41      -0.3898      2.00000
     42      -0.3898      2.00000
     43      -0.3273      2.00000
     44      -0.2231      2.00000
     45      -0.2231      2.00000
     46       0.7630      2.00000
     47       1.1445      2.00000
     48       1.1741      2.00000
     49       1.1741      2.00000
     50       1.2737      2.00000
     51       1.2737      2.00000
     52       1.5229      2.00000
     53       1.5605      2.00000
     54       1.6023      2.00000
     55       1.6023      2.00000
     56       1.8050      2.00000
     57       1.8050      2.00000
     58       1.9625      2.00000
     59       1.9913      2.00000
     60       1.9913      2.00000
     61       2.0330      2.00000
     62       2.1589      2.00000
     63       2.1589      2.00000
     64       2.4597      2.00000
     65       2.5685      2.00000
     66       2.5685      2.00000
     67       2.5919      2.00000
     68       2.5919      2.00000
     69       2.6424      2.00000
     70       2.8467      2.00000
     71       2.8467      2.00000
     72       2.8577      2.00000
     73       2.9240      2.00000
     74       2.9240      2.00000
     75       3.0045      2.00000
     76       3.0267      2.00000
     77       3.0353      2.00000
     78       3.0353      2.00000
     79       3.0994      2.00000
     80       3.1651      2.00000
     81       3.3052      2.00000
     82       3.3052      2.00000
     83       3.3707      2.00000
     84       3.4465      2.00000
     85       3.6007      2.00000
     86       3.6007      2.00000
     87       3.7060      2.00000
     88       3.7060      2.00000
     89       3.8607      2.00000
     90       3.8812      2.00000
     91       3.8985      2.00000
     92       3.8985      2.00000
     93       4.0273      2.00000
     94       4.0273      2.00000
     95       4.3006      2.00000
     96       4.3204      2.00000
     97       4.3204      2.00000
     98       4.3598      2.00000
     99       4.4038      2.00000
    100       4.4039      2.00000
    101       4.5902      2.00000
    102       4.8923      2.00000
    103       4.8923      2.00000
    104       5.1585      2.00000
    105       5.1585      2.00000
    106       5.4955      2.00000
    107       6.4637      0.00000
    108       6.4637      0.00000
    109       6.6376      0.00000
    110       6.6376      0.00000
    111       6.6520      0.00000
    112       6.8251      0.00000
    113       6.9173      0.00000
    114       6.9173      0.00000
    115       7.2805      0.00000
    116       7.5813      0.00000
    117       7.5813      0.00000
    118       7.6068      0.00000
    119       7.6487      0.00000
    120       7.6487      0.00000
    121       7.7178      0.00000
    122       7.9659      0.00000
    123       8.0067      0.00000
    124       8.0675      0.00000
    125       8.0675      0.00000
    126       8.0791      0.00000
    127       8.2576      0.00000
    128       8.2576      0.00000
    129       8.3443      0.00000
    130       8.3553      0.00000
    131       8.3553      0.00000
    132       8.3989      0.00000
    133       8.3989      0.00000
    134       8.4245      0.00000
    135       8.8244      0.00000
    136       8.8244      0.00000
    137       8.8769      0.00000
    138       8.8769      0.00000
    139       8.9406      0.00000
    140       8.9426      0.00000
    141       8.9907      0.00000
    142       8.9908      0.00000
    143       9.0581      0.00000
    144       9.0605      0.00000

 k-point     4 :       0.2500    0.2500    0.0000
  band No.  band energies     occupation 
      1      -6.1960      2.00000
      2      -5.3182      2.00000
      3      -5.3113      2.00000
      4      -5.2820      2.00000
      5      -5.2820      2.00000
      6      -5.0389      2.00000
      7      -4.4880      2.00000
      8      -4.4802      2.00000
      9      -4.4802      2.00000
     10      -4.4479      2.00000
     11      -4.3522      2.00000
     12      -4.2907      2.00000
     13      -4.2907      2.00000
     14      -4.0170      2.00000
     15      -3.6237      2.00000
     16      -3.5837      2.00000
     17      -3.5837      2.00000
     18      -3.5182      2.00000
     19      -3.3930      2.00000
     20      -3.2781      2.00000
     21      -3.2781      2.00000
     22      -3.2451      2.00000
     23      -2.8416      2.00000
     24      -2.5571      2.00000
     25      -2.5070      2.00000
     26      -2.5070      2.00000
     27      -2.0604      2.00000
     28      -1.6410      2.00000
     29      -1.5883      2.00000
     30      -1.5883      2.00000
     31      -1.3880      2.00000
     32      -1.1484      2.00000
     33      -1.1484      2.00000
     34      -1.1351      2.00000
     35      -0.9778      2.00000
     36      -0.7630      2.00000
     37      -0.6023      2.00000
     38      -0.5592      2.00000
     39      -0.5592      2.00000
     40      -0.4848      2.00000
     41      -0.3947      2.00000
     42      -0.3751      2.00000
     43      -0.3751      2.00000
     44       0.1295      2.00000
     45       0.4312      2.00000
     46       0.5196      2.00000
     47       0.5196      2.00000
     48       1.0497      2.00000
     49       1.2112      2.00000
     50       1.2451      2.00000
     51       1.2451      2.00000
     52       1.3544      2.00000
     53       1.3685      2.00000
     54       1.3685      2.00000
     55       1.3724      2.00000
     56       1.5032      2.00000
     57       1.5481      2.00000
     58       1.5603      2.00000
     59       1.5603      2.00000
     60       1.7393      2.00000
     61       1.8392      2.00000
     62       1.9152      2.00000
     63       1.9152      2.00000
     64       2.0099      2.00000
     65       2.7610      2.00000
     66       2.7698      2.00000
     67       2.7698      2.00000
     68       2.7849      2.00000
     69       2.8600      2.00000
     70       2.8636      2.00000
     71       2.8636      2.00000
     72       2.9791      2.00000
     73       3.0011      2.00000
     74       3.0011      2.00000
     75       3.2119      2.00000
     76       3.2422      2.00000
     77       3.2680      2.00000
     78       3.2680      2.00000
     79       3.5538      2.00000
     80       3.5650      2.00000
     81       3.5650      2.00000
     82       3.5912      2.00000
     83       3.5986      2.00000
     84       3.6157      2.00000
     85       3.6424      2.00000
     86       3.6424      2.00000
     87       3.8929      2.00000
     88       3.8929      2.00000
     89       3.9111      2.00000
     90       3.9414      2.00000
     91       3.9611      2.00000
     92       3.9611      2.00000
     93       4.0637      2.00000
     94       4.1199      2.00000
     95       4.1199      2.00000
     96       4.2120      2.00000
     97       4.2177      2.00000
     98       4.2378      2.00000
     99       4.6104      2.00000
    100       4.6104      2.00000
    101       4.7410      2.00000
    102       4.9318      2.00000
    103       4.9527      2.00000
    104       5.0947      2.00000
    105       5.0947      2.00000
    106       6.0383      2.00000
    107       6.3606      0.02372
    108       6.4490      0.00000
    109       6.4490      0.00000
    110       6.7548      0.00000
    111       6.8512      0.00000
    112       7.0174      0.00000
    113       7.0584      0.00000
    114       7.0827      0.00000
    115       7.0827      0.00000
    116       7.3125      0.00000
    117       7.3125      0.00000
    118       7.4216      0.00000
    119       7.4312      0.00000
    120       7.4421      0.00000
    121       7.4549      0.00000
    122       7.4739      0.00000
    123       7.4739      0.00000
    124       7.7867      0.00000
    125       7.8116      0.00000
    126       7.8116      0.00000
    127       7.8584      0.00000
    128       7.9768      0.00000
    129       8.0524      0.00000
    130       8.0524      0.00000
    131       8.0776      0.00000
    132       8.0901      0.00000
    133       8.0926      0.00000
    134       8.0926      0.00000
    135       8.1581      0.00000
    136       8.2941      0.00000
    137       8.3345      0.00000
    138       8.3417      0.00000
    139       8.3417      0.00000
    140       8.7683      0.00000
    141       8.7821      0.00000
    142       8.7821      0.00000
    143       8.9509      0.00000
    144       8.9539      0.00000

 k-point     5 :       0.5000    0.2500    0.0000
  band No.  band energies     occupation 
      1      -5.9981      2.00000
      2      -5.7491      2.00000
      3      -5.5168      2.00000
      4      -5.3026      2.00000
      5      -5.2087      2.00000
      6      -4.8156      2.00000
      7      -4.6130      2.00000
      8      -4.5932      2.00000
      9      -4.3783      2.00000
     10      -4.2192      2.00000
     11      -4.1718      2.00000
     12      -4.1019      2.00000
     13      -4.0290      2.00000
     14      -3.9297      2.00000
     15      -3.7216      2.00000
     16      -3.7146      2.00000
     17      -3.6625      2.00000
     18      -3.5426      2.00000
     19      -3.4999      2.00000
     20      -3.4584      2.00000
     21      -3.3929      2.00000
     22      -2.9763      2.00000
     23      -2.7630      2.00000
     24      -2.6947      2.00000
     25      -2.6125      2.00000
     26      -2.5641      2.00000
     27      -2.0541      2.00000
     28      -1.5494      2.00000
     29      -1.5412      2.00000
     30      -1.4879      2.00000
     31      -1.4781      2.00000
     32      -1.3119      2.00000
     33      -1.1624      2.00000
     34      -1.0838      2.00000
     35      -1.0640      2.00000
     36      -0.9679      2.00000
     37      -0.7875      2.00000
     38      -0.7113      2.00000
     39      -0.6633      2.00000
     40      -0.6617      2.00000
     41      -0.4783      2.00000
     42      -0.3684      2.00000
     43      -0.1240      2.00000
     44       0.0238      2.00000
     45       0.0290      2.00000
     46       0.4827      2.00000
     47       0.7060      2.00000
     48       0.8081      2.00000
     49       1.4251      2.00000
     50       1.5466      2.00000
     51       1.5820      2.00000
     52       1.6527      2.00000
     53       1.7274      2.00000
     54       1.7805      2.00000
     55       1.9109      2.00000
     56       1.9130      2.00000
     57       2.0238      2.00000
     58       2.0879      2.00000
     59       2.1007      2.00000
     60       2.1769      2.00000
     61       2.1791      2.00000
     62       2.2397      2.00000
     63       2.2770      2.00000
     64       2.3468      2.00000
     65       2.3962      2.00000
     66       2.4211      2.00000
     67       2.4820      2.00000
     68       2.6167      2.00000
     69       2.6575      2.00000
     70       2.6638      2.00000
     71       2.7031      2.00000
     72       2.7581      2.00000
     73       2.7681      2.00000
     74       2.8537      2.00000
     75       2.8902      2.00000
     76       2.9934      2.00000
     77       2.9996      2.00000
     78       3.0329      2.00000
     79       3.1110      2.00000
     80       3.1355      2.00000
     81       3.1455      2.00000
     82       3.3633      2.00000
     83       3.4487      2.00000
     84       3.4722      2.00000
     85       3.5189      2.00000
     86       3.5518      2.00000
     87       3.5853      2.00000
     88       3.6528      2.00000
     89       3.7440      2.00000
     90       3.8533      2.00000
     91       3.8544      2.00000
     92       3.9816      2.00000
     93       3.9868      2.00000
     94       4.0169      2.00000
     95       4.0298      2.00000
     96       4.0934      2.00000
     97       4.1803      2.00000
     98       4.1980      2.00000
     99       4.3412      2.00000
    100       4.5159      2.00000
    101       4.6504      2.00000
    102       4.7283      2.00000
    103       4.7553      2.00000
    104       4.8809      2.00000
    105       5.1240      2.00000
    106       5.6025      2.00000
    107       6.2665      1.31162
    108       6.4326      0.00002
    109       6.4808      0.00000
    110       7.0150      0.00000
    111       7.1575      0.00000
    112       7.1586      0.00000
    113       7.1849      0.00000
    114       7.3886      0.00000
    115       7.4383      0.00000
    116       7.4520      0.00000
    117       7.6555      0.00000
    118       7.7283      0.00000
    119       7.8043      0.00000
    120       7.8351      0.00000
    121       7.8917      0.00000
    122       7.9912      0.00000
    123       8.0538      0.00000
    124       8.0747      0.00000
    125       8.2138      0.00000
    126       8.2453      0.00000
    127       8.2772      0.00000
    128       8.3237      0.00000
    129       8.3387      0.00000
    130       8.3773      0.00000
    131       8.4962      0.00000
    132       8.5921      0.00000
    133       8.5975      0.00000
    134       8.6065      0.00000
    135       8.6413      0.00000
    136       8.7083      0.00000
    137       8.7532      0.00000
    138       8.8123      0.00000
    139       8.8275      0.00000
    140       8.8612      0.00000
    141       8.8873      0.00000
    142       8.9154      0.00000
    143       8.9582      0.00000
    144       8.9639      0.00000

 k-point     6 :      -0.2500    0.2500    0.0000
  band No.  band energies     occupation 
      1      -6.0819      2.00000
      2      -5.6386      2.00000
      3      -5.5653      2.00000
      4      -5.1515      2.00000
      5      -5.0813      2.00000
      6      -4.7583      2.00000
      7      -4.7484      2.00000
      8      -4.6934      2.00000
      9      -4.5661      2.00000
     10      -4.3036      2.00000
     11      -4.2205      2.00000
     12      -4.1943      2.00000
     13      -4.0847      2.00000
     14      -3.9272      2.00000
     15      -3.6619      2.00000
     16      -3.6287      2.00000
     17      -3.5967      2.00000
     18      -3.4628      2.00000
     19      -3.3187      2.00000
     20      -3.2586      2.00000
     21      -3.1578      2.00000
     22      -3.0954      2.00000
     23      -3.0925      2.00000
     24      -2.8677      2.00000
     25      -2.7976      2.00000
     26      -2.4360      2.00000
     27      -2.0864      2.00000
     28      -1.7800      2.00000
     29      -1.2894      2.00000
     30      -1.2144      2.00000
     31      -1.1517      2.00000
     32      -1.1312      2.00000
     33      -1.0947      2.00000
     34      -1.0927      2.00000
     35      -1.0163      2.00000
     36      -0.9572      2.00000
     37      -0.9551      2.00000
     38      -0.9061      2.00000
     39      -0.8890      2.00000
     40      -0.7106      2.00000
     41      -0.7098      2.00000
     42      -0.1253      2.00000
     43       0.1407      2.00000
     44       0.2198      2.00000
     45       0.2752      2.00000
     46       0.3551      2.00000
     47       0.4658      2.00000
     48       0.4736      2.00000
     49       1.3810      2.00000
     50       1.4333      2.00000
     51       1.4922      2.00000
     52       1.6467      2.00000
     53       1.6590      2.00000
     54       1.6793      2.00000
     55       1.6982      2.00000
     56       1.7855      2.00000
     57       1.8692      2.00000
     58       1.8970      2.00000
     59       2.0171      2.00000
     60       2.0590      2.00000
     61       2.0884      2.00000
     62       2.1273      2.00000
     63       2.1545      2.00000
     64       2.2832      2.00000
     65       2.5082      2.00000
     66       2.5198      2.00000
     67       2.5447      2.00000
     68       2.5823      2.00000
     69       2.6134      2.00000
     70       2.7210      2.00000
     71       2.7222      2.00000
     72       2.7816      2.00000
     73       2.9713      2.00000
     74       2.9945      2.00000
     75       3.0167      2.00000
     76       3.0707      2.00000
     77       3.0992      2.00000
     78       3.1682      2.00000
     79       3.1900      2.00000
     80       3.2179      2.00000
     81       3.3337      2.00000
     82       3.3420      2.00000
     83       3.3680      2.00000
     84       3.5378      2.00000
     85       3.5572      2.00000
     86       3.6579      2.00000
     87       3.6616      2.00000
     88       3.6855      2.00000
     89       3.7820      2.00000
     90       3.7871      2.00000
     91       3.9010      2.00000
     92       4.0020      2.00000
     93       4.0259      2.00000
     94       4.2339      2.00000
     95       4.2871      2.00000
     96       4.3091      2.00000
     97       4.3647      2.00000
     98       4.3778      2.00000
     99       4.4418      2.00000
    100       4.5150      2.00000
    101       4.5450      2.00000
    102       4.5837      2.00000
    103       4.6244      2.00000
    104       4.7370      2.00000
    105       5.2675      2.00000
    106       5.7733      2.00000
    107       6.2396      1.75422
    108       6.5059      0.00000
    109       6.6016      0.00000
    110       6.9132      0.00000
    111       6.9483      0.00000
    112       7.0618      0.00000
    113       7.1993      0.00000
    114       7.3504      0.00000
    115       7.3563      0.00000
    116       7.3945      0.00000
    117       7.4150      0.00000
    118       7.5738      0.00000
    119       7.5788      0.00000
    120       7.6284      0.00000
    121       7.6309      0.00000
    122       7.7918      0.00000
    123       7.8300      0.00000
    124       8.0369      0.00000
    125       8.0837      0.00000
    126       8.2097      0.00000
    127       8.2241      0.00000
    128       8.2328      0.00000
    129       8.2330      0.00000
    130       8.2713      0.00000
    131       8.3021      0.00000
    132       8.3463      0.00000
    133       8.3500      0.00000
    134       8.3890      0.00000
    135       8.5259      0.00000
    136       8.6292      0.00000
    137       8.6545      0.00000
    138       8.8321      0.00000
    139       8.8399      0.00000
    140       8.8556      0.00000
    141       8.8784      0.00000
    142       8.9408      0.00000
    143       8.9575      0.00000
    144       9.0096      0.00000

 k-point     7 :       0.5000    0.5000    0.0000
  band No.  band energies     occupation 
      1      -5.8702      2.00000
      2      -5.8252      2.00000
      3      -5.4216      2.00000
      4      -5.3896      2.00000
      5      -5.3896      2.00000
      6      -5.1716      2.00000
      7      -4.0977      2.00000
      8      -4.0903      2.00000
      9      -4.0903      2.00000
     10      -4.0814      2.00000
     11      -4.0499      2.00000
     12      -3.9971      2.00000
     13      -3.9971      2.00000
     14      -3.9890      2.00000
     15      -3.9004      2.00000
     16      -3.8783      2.00000
     17      -3.8783      2.00000
     18      -3.8708      2.00000
     19      -3.7634      2.00000
     20      -3.7634      2.00000
     21      -3.7291      2.00000
     22      -2.9570      2.00000
     23      -2.1862      2.00000
     24      -2.1850      2.00000
     25      -2.1037      2.00000
     26      -2.0907      2.00000
     27      -2.0907      2.00000
     28      -2.0665      2.00000
     29      -1.9913      2.00000
     30      -1.9780      2.00000
     31      -1.9780      2.00000
     32      -1.3982      2.00000
     33      -1.0209      2.00000
     34      -1.0209      2.00000
     35      -1.0152      2.00000
     36      -0.9861      2.00000
     37      -0.8450      2.00000
     38      -0.8450      2.00000
     39      -0.8255      2.00000
     40      -0.4846      2.00000
     41      -0.0505      2.00000
     42      -0.0457      2.00000
     43      -0.0457      2.00000
     44      -0.0063      2.00000
     45      -0.0022      2.00000
     46       0.1749      2.00000
     47       0.1749      2.00000
     48       1.4285      2.00000
     49       1.8830      2.00000
     50       1.9078      2.00000
     51       1.9078      2.00000
     52       1.9531      2.00000
     53       1.9533      2.00000
     54       1.9559      2.00000
     55       1.9559      2.00000
     56       1.9639      2.00000
     57       1.9673      2.00000
     58       1.9673      2.00000
     59       1.9919      2.00000
     60       2.0082      2.00000
     61       2.0616      2.00000
     62       2.0616      2.00000
     63       2.0626      2.00000
     64       2.0993      2.00000
     65       2.3388      2.00000
     66       2.3389      2.00000
     67       2.3736      2.00000
     68       2.5635      2.00000
     69       2.7732      2.00000
     70       2.7732      2.00000
     71       2.8342      2.00000
     72       2.8590      2.00000
     73       2.8590      2.00000
     74       2.8723      2.00000
     75       2.9678      2.00000
     76       2.9678      2.00000
     77       2.9874      2.00000
     78       3.1354      2.00000
     79       3.1960      2.00000
     80       3.2147      2.00000
     81       3.2147      2.00000
     82       3.2839      2.00000
     83       3.2843      2.00000
     84       3.3112      2.00000
     85       3.3112      2.00000
     86       3.3996      2.00000
     87       3.4074      2.00000
     88       3.5270      2.00000
     89       3.5757      2.00000
     90       3.5757      2.00000
     91       3.8108      2.00000
     92       3.8108      2.00000
     93       3.8128      2.00000
     94       3.8195      2.00000
     95       3.8695      2.00000
     96       3.8857      2.00000
     97       4.1934      2.00000
     98       4.1934      2.00000
     99       4.4540      2.00000
    100       4.4540      2.00000
    101       4.7573      2.00000
    102       4.7573      2.00000
    103       4.9043      2.00000
    104       5.0475      2.00000
    105       5.0748      2.00000
    106       5.3133      2.00000
    107       6.3700      0.01149
    108       6.3700      0.01149
    109       6.3820      0.00414
    110       6.4111      0.00022
    111       7.3195      0.00000
    112       7.3644      0.00000
    113       7.6353      0.00000
    114       7.6362      0.00000
    115       7.6391      0.00000
    116       7.6391      0.00000
    117       7.6931      0.00000
    118       7.6931      0.00000
    119       8.0407      0.00000
    120       8.0657      0.00000
    121       8.3586      0.00000
    122       8.3586      0.00000
    123       8.3611      0.00000
    124       8.3650      0.00000
    125       8.3676      0.00000
    126       8.3714      0.00000
    127       8.3714      0.00000
    128       8.3746      0.00000
    129       8.4701      0.00000
    130       8.5507      0.00000
    131       8.5758      0.00000
    132       8.5988      0.00000
    133       8.5988      0.00000
    134       8.6089      0.00000
    135       8.6449      0.00000
    136       8.6449      0.00000
    137       8.6659      0.00000
    138       8.6659      0.00000
    139       9.0126      0.00000
    140       9.1554      0.00000
    141       9.1771      0.00000
    142       9.1889      0.00000
    143       9.2449      0.00000
    144       9.2468      0.00000

 k-point     8 :      -0.2500    0.5000    0.2500
  band No.  band energies     occupation 
      1      -5.7928      2.00000
      2      -5.7575      2.00000
      3      -5.7493      2.00000
      4      -5.5453      2.00000
      5      -4.8448      2.00000
      6      -4.8313      2.00000
      7      -4.7850      2.00000
      8      -4.6784      2.00000
      9      -4.0430      2.00000
     10      -4.0260      2.00000
     11      -4.0215      2.00000
     12      -4.0205      2.00000
     13      -3.9733      2.00000
     14      -3.9469      2.00000
     15      -3.8932      2.00000
     16      -3.8810      2.00000
     17      -3.7629      2.00000
     18      -3.7524      2.00000
     19      -3.7021      2.00000
     20      -3.3878      2.00000
     21      -3.1352      2.00000
     22      -3.1016      2.00000
     23      -3.0145      2.00000
     24      -2.6336      2.00000
     25      -2.1679      2.00000
     26      -2.1641      2.00000
     27      -2.0902      2.00000
     28      -2.0660      2.00000
     29      -1.9588      2.00000
     30      -1.6089      2.00000
     31      -1.2147      2.00000
     32      -1.2013      2.00000
     33      -1.1962      2.00000
     34      -1.1919      2.00000
     35      -1.0331      2.00000
     36      -0.9449      2.00000
     37      -0.9151      2.00000
     38      -0.7062      2.00000
     39      -0.4390      2.00000
     40      -0.4302      2.00000
     41      -0.4167      2.00000
     42      -0.4016      2.00000
     43      -0.3099      2.00000
     44      -0.2287      2.00000
     45      -0.2076      2.00000
     46       0.6009      2.00000
     47       0.9322      2.00000
     48       1.0142      2.00000
     49       1.0225      2.00000
     50       1.7915      2.00000
     51       1.7948      2.00000
     52       1.8041      2.00000
     53       1.8074      2.00000
     54       1.8717      2.00000
     55       2.0234      2.00000
     56       2.0864      2.00000
     57       2.3518      2.00000
     58       2.3569      2.00000
     59       2.3639      2.00000
     60       2.3804      2.00000
     61       2.4134      2.00000
     62       2.4143      2.00000
     63       2.4185      2.00000
     64       2.4256      2.00000
     65       2.4280      2.00000
     66       2.4492      2.00000
     67       2.4695      2.00000
     68       2.4701      2.00000
     69       2.4781      2.00000
     70       2.5331      2.00000
     71       2.5461      2.00000
     72       2.5579      2.00000
     73       2.5766      2.00000
     74       2.6391      2.00000
     75       2.7595      2.00000
     76       2.7957      2.00000
     77       2.9535      2.00000
     78       2.9755      2.00000
     79       2.9786      2.00000
     80       3.0305      2.00000
     81       3.1062      2.00000
     82       3.1130      2.00000
     83       3.3275      2.00000
     84       3.4685      2.00000
     85       3.4693      2.00000
     86       3.4931      2.00000
     87       3.5147      2.00000
     88       3.5402      2.00000
     89       3.6366      2.00000
     90       3.7011      2.00000
     91       3.9075      2.00000
     92       3.9295      2.00000
     93       3.9430      2.00000
     94       3.9671      2.00000
     95       3.9788      2.00000
     96       4.0091      2.00000
     97       4.1952      2.00000
     98       4.2258      2.00000
     99       4.2463      2.00000
    100       4.3237      2.00000
    101       4.6617      2.00000
    102       4.6966      2.00000
    103       4.7395      2.00000
    104       4.8124      2.00000
    105       5.1108      2.00000
    106       5.4653      2.00000
    107       6.2719      1.19585
    108       6.2823      0.96164
    109       6.9858      0.00000
    110       6.9931      0.00000
    111       7.0178      0.00000
    112       7.0282      0.00000
    113       7.8459      0.00000
    114       7.8470      0.00000
    115       7.8486      0.00000
    116       7.8503      0.00000
    117       7.8761      0.00000
    118       7.8983      0.00000
    119       7.9062      0.00000
    120       7.9232      0.00000
    121       8.0206      0.00000
    122       8.0522      0.00000
    123       8.0703      0.00000
    124       8.0857      0.00000
    125       8.2426      0.00000
    126       8.2681      0.00000
    127       8.3040      0.00000
    128       8.3236      0.00000
    129       8.3423      0.00000
    130       8.4115      0.00000
    131       8.4924      0.00000
    132       8.5013      0.00000
    133       8.6811      0.00000
    134       8.7144      0.00000
    135       8.7452      0.00000
    136       8.7454      0.00000
    137       8.7650      0.00000
    138       8.7654      0.00000
    139       8.8133      0.00000
    140       8.8371      0.00000
    141       8.8510      0.00000
    142       8.9441      0.00000
    143       8.9450      0.00000
    144       9.0186      0.00000


--------------------------------------------------------------------------------------------------------


 soft charge-density along one line, spin component           1
         0         1         2         3         4         5         6         7         8         9
 total charge-density along one line
 
 pseudopotential strength for first ion, spin component:           1
 18.434  25.719  -0.001   0.001  -0.002  -0.002   0.002  -0.003
 25.719  35.888  -0.002   0.001  -0.003  -0.003   0.002  -0.005
 -0.001  -0.002   4.181   0.000  -0.000   7.792   0.000  -0.000
  0.001   0.001   0.000   4.181   0.000   0.000   7.792   0.000
 -0.002  -0.003  -0.000   0.000   4.181  -0.000   0.000   7.791
 -0.002  -0.003   7.792   0.000  -0.000  14.530   0.000  -0.001
  0.002   0.002   0.000   7.792   0.000   0.000  14.531   0.000
 -0.003  -0.005  -0.000   0.000   7.791  -0.001   0.000  14.530
 total augmentation occupancy for first ion, spin component:           1
  5.682  -2.157  -0.013   0.037  -0.018   0.000  -0.010   0.000
 -2.157   0.945   0.018  -0.023   0.025  -0.002   0.006  -0.002
 -0.013   0.018   2.979  -0.003   0.009  -0.672  -0.001   0.000
  0.037  -0.023  -0.003   2.921  -0.004  -0.001  -0.660  -0.002
 -0.018   0.025   0.009  -0.004   2.985   0.000  -0.002  -0.672
  0.000  -0.002  -0.672  -0.001   0.000   0.160   0.000  -0.000
 -0.010   0.006  -0.001  -0.660  -0.002   0.000   0.158   0.001
  0.000  -0.002   0.000  -0.002  -0.672  -0.000   0.001   0.160


------------------------ aborting loop because EDIFF is reached ----------------------------------------


 


 total charge     
 
# of ion       s       p       d       tot
------------------------------------------
    1        0.755   0.911   0.000   1.665
    2        0.755   0.911   0.000   1.665
    3        0.755   0.937   0.000   1.692
    4        0.752   0.945   0.000   1.698
    5        0.755   0.936   0.000   1.691
    6        0.755   0.935   0.000   1.690
    7        0.755   0.934   0.000   1.689
    8        0.753   0.944   0.000   1.697
    9        0.756   0.947   0.000   1.703
   10        0.753   0.946   0.000   1.698
   11        0.756   0.949   0.000   1.705
   12        0.753   0.945   0.000   1.698
   13        0.753   0.945   0.000   1.698
   14        0.753   0.946   0.000   1.698
[...]
   34        0.753   0.942   0.000   1.695
   35        0.753   0.941   0.000   1.694
   36        0.753   0.940   0.000   1.693
   37        0.806   0.822   0.000   1.628
   38        0.753   0.940   0.000   1.693
   39        0.788   0.780   0.000   1.568
   40        0.788   0.780   0.000   1.568
   41        0.758   0.892   0.000   1.650
   42        0.753   0.939   0.000   1.691
   43        0.760   0.917   0.000   1.677
   44        0.759   0.916   0.000   1.675
   45        0.754   0.941   0.000   1.695
   46        0.753   0.941   0.000   1.695
   47        0.753   0.940   0.000   1.693
   48        0.753   0.939   0.000   1.693
   49        0.761   0.927   0.000   1.688
   50        0.762   0.928   0.000   1.690
   51        0.753   0.939   0.000   1.691
   52        0.761   0.923   0.000   1.684
   53        0.753   0.939   0.000   1.691
--------------------------------------------------
tot         40.213  48.919   0.000  89.132
 
    CHARGE:  cpu time    0.1598: real time    0.1610
    FORLOC:  cpu time    0.0313: real time    0.0314
    FORNL :  cpu time    1.5314: real time    1.5428
    STRESS:  cpu time    5.3763: real time    5.4222
    FORCOR:  cpu time    0.0969: real time    0.0974
    FORHAR:  cpu time    0.0438: real time    0.0440
    MIXING:  cpu time    0.0086: real time    0.0086
    OFIELD:  cpu time    0.0001: real time    0.0001

  FORCE on cell =-STRESS in cart. coord.  units (eV):
  Direction    XX          YY          ZZ          XY          YZ          ZX
  --------------------------------------------------------------------------------------
  Alpha Z    87.47481    87.47481    87.47481
  Ewald   -2007.22110 -2007.22111 -2007.22110    -0.00000    -0.00000    -0.00000
  Hartree   132.48922   132.48922   132.48922     0.00000     0.00000     0.00000
  E(xc)    -671.35961  -671.35960  -671.35963    -0.00001    -0.00001    -0.00002
  Local    -778.28413  -778.28423  -778.28373     0.00014     0.00024     0.00034
  n-local  2050.62770  2064.96646  2074.53003    -2.44180    -1.04559     0.73936
  augment  -311.41698  -311.41686  -311.41744    -0.00016    -0.00028    -0.00040
  Kinetic  1481.20989  1499.34704  1509.44194    -1.88253    -1.12940     0.79861
  Fock        0.00000     0.00000     0.00000     0.00000     0.00000     0.00000
  -------------------------------------------------------------------------------------
  Total      11.72321    11.72321    11.72321    -0.00000     0.00000    -0.00000
  in kB      17.37536    17.37536    17.37536    -0.00000     0.00000    -0.00000
  external pressure =       17.38 kB  Pullay stress =        0.00 kB


 VOLUME and BASIS-vectors are now :
 -----------------------------------------------------------------------------
  energy-cutoff  :      550.00
  volume of cell :     1080.99
      direct lattice vectors                 reciprocal lattice vectors
     9.976465530  0.000000000  5.759915070     0.100235900 -0.035438742  0.000000000
     3.325488510  9.405901920  5.759915070     0.000000000  0.106316227  0.000000000
     0.000000000  0.000000000 11.519830140    -0.050117950 -0.035438742  0.086806836

  length of vectors
    11.519830124 11.519830136 11.519830140     0.106316227  0.106316227  0.106316227


 FORCES acting on ions
    electron-ion (+dipol)            ewald-force                    non-local-force                 convergence-correction
 -----------------------------------------------------------------------------------------------
   -.408E+01 -.288E+01 0.389E+01   0.385E+01 0.272E+01 -.420E+01   0.216E+00 0.152E+00 0.296E+00   -.265E-02 -.187E-02 -.484E-03
   -.408E+01 -.288E+01 -.389E+01   0.385E+01 0.272E+01 0.420E+01   0.216E+00 0.152E+00 -.296E+00   -.265E-02 -.187E-02 0.484E-03
   -.914E+00 0.606E+01 -.158E+01   0.714E+00 -.615E+01 0.124E+01   0.193E+00 0.894E-01 0.335E+00   -.146E-02 0.148E-02 -.254E-02
   -.104E+01 0.367E+00 0.164E-05   0.111E+01 -.391E+00 0.271E-11   -.705E-01 0.249E-01 0.139E-16   0.336E-02 -.119E-02 -.460E-07
   -.914E+00 0.606E+01 0.158E+01   0.714E+00 -.615E+01 -.124E+01   0.193E+00 0.894E-01 -.335E+00   -.146E-02 0.148E-02 0.254E-02
   -.316E+01 -.297E+00 -.548E+01   0.314E+01 0.703E+00 0.543E+01   0.223E-01 -.394E+00 0.386E-01   -.118E-02 0.227E-02 -.205E-02
   -.316E+01 -.297E+00 0.548E+01   0.314E+01 0.703E+00 -.543E+01   0.223E-01 -.394E+00 -.386E-01   -.118E-02 0.227E-02 0.205E-02
   -.546E+00 0.193E+00 -.375E-06   0.482E+00 -.170E+00 -.706E-11   0.127E-01 -.449E-02 0.173E-16   0.473E-02 -.167E-02 -.389E-07
   0.541E+01 -.288E+01 -.158E+01   -.556E+01 0.272E+01 0.124E+01   0.149E+00 0.152E+00 0.335E+00   0.905E-03 -.187E-02 -.254E-02
   0.864E-06 -.110E+01 0.164E-05   0.127E-06 0.117E+01 0.268E-11   -.269E-16 -.748E-01 -.694E-17   -.266E-07 0.357E-02 -.460E-07
   0.541E+01 -.288E+01 0.158E+01   -.556E+01 0.272E+01 -.124E+01   0.149E+00 0.152E+00 -.335E+00   0.905E-03 -.187E-02 0.254E-02
   0.519E+00 0.367E+00 -.898E+00   -.553E+00 -.391E+00 0.958E+00   0.353E-01 0.249E-01 -.611E-01   -.168E-02 -.119E-02 0.291E-02
   0.519E+00 0.367E+00 0.898E+00   -.553E+00 -.391E+00 -.958E+00   0.353E-01 0.249E-01 0.611E-01   -.168E-02 -.119E-02 -.291E-02
   0.111E+01 0.784E+00 0.548E-06   -.124E+01 -.879E+00 -.240E-11   0.149E+00 0.105E+00 0.347E-17   -.590E-03 -.417E-03 0.157E-07
   0.632E+01 -.297E+00 -.128E-05   -.627E+01 0.703E+00 0.607E-11   -.446E-01 -.394E+00 -.173E-16   0.237E-02 0.227E-02 0.552E-07
   0.554E+00 -.784E+00 0.960E+00   -.622E+00 0.879E+00 -.108E+01   0.743E-01 -.105E+00 0.129E+00   -.295E-03 0.417E-03 -.511E-03
   0.554E+00 -.784E+00 -.960E+00   -.622E+00 0.879E+00 0.108E+01   0.743E-01 -.105E+00 -.129E+00   -.295E-03 0.417E-03 0.511E-03
   -.133E+01 -.288E+01 -.548E+01   0.171E+01 0.272E+01 0.543E+01   -.364E+00 0.152E+00 0.386E-01   0.174E-02 -.187E-02 -.205E-02
   -.133E+01 -.288E+01 0.548E+01   0.171E+01 0.272E+01 -.543E+01   -.364E+00 0.152E+00 -.386E-01   0.174E-02 -.187E-02 0.205E-02
   -.279E-06 -.579E+00 -.375E-06   0.117E-06 0.511E+00 -.710E-11   0.347E-17 0.135E-01 0.243E-16   -.225E-07 0.501E-02 -.389E-07
   0.183E+01 0.606E+01 -.128E-05   -.143E+01 -.615E+01 0.609E-11   -.387E+00 0.894E-01 0.217E-16   0.293E-02 0.148E-02 0.552E-07
   -.554E+00 0.784E+00 0.960E+00   0.622E+00 -.879E+00 -.108E+01   -.743E-01 0.105E+00 0.129E+00   0.295E-03 -.417E-03 -.511E-03
   -.554E+00 0.784E+00 -.960E+00   0.622E+00 -.879E+00 0.108E+01   -.743E-01 0.105E+00 -.129E+00   0.295E-03 -.417E-03 0.511E-03
   0.273E+00 0.193E+00 -.473E+00   -.241E+00 -.170E+00 0.417E+00   -.635E-02 -.449E-02 0.110E-01   -.236E-02 -.167E-02 0.409E-02
   -.111E+01 -.784E+00 0.981E-06   0.124E+01 0.879E+00 -.471E-11   -.149E+00 -.105E+00 0.121E-16   0.590E-03 0.417E-03 0.240E-07
   0.273E+00 0.193E+00 0.473E+00   -.241E+00 -.170E+00 -.417E+00   -.635E-02 -.449E-02 -.110E-01   -.236E-02 -.167E-02 -.409E-02
   0.559E-06 0.305E-06 0.850E-06   -.122E-06 0.650E-07 0.583E-11   -.321E-16 0.104E-16 0.451E-16   -.193E-07 -.137E-07 -.334E-07
   -.121E+01 -.852E+00 0.138E+00   0.151E+01 0.107E+01 -.223E-01   -.321E+00 -.227E+00 -.105E+00   -.165E-02 -.117E-02 -.108E-02
   -.121E+01 -.852E+00 -.138E+00   0.151E+01 0.107E+01 0.223E-01   -.321E+00 -.227E+00 0.105E+00   -.165E-02 -.117E-02 0.108E-02
   -.563E+00 0.965E+00 -.974E+00   0.748E+00 -.108E+01 0.129E+01   -.191E+00 0.141E+00 -.331E+00   -.114E-02 0.283E-03 -.197E-02
   -.263E+02 0.928E+01 -.240E-05   0.250E+02 -.883E+01 -.723E-12   0.127E+01 -.447E+00 0.867E-17   0.983E-02 -.348E-02 0.630E-07
   -.563E+00 0.965E+00 0.974E+00   0.748E+00 -.108E+01 -.129E+01   -.191E+00 0.141E+00 0.331E+00   -.114E-02 0.283E-03 0.197E-02
   -.642E+00 0.739E+00 -.111E+01   0.760E+00 -.105E+01 0.132E+01   -.130E+00 0.313E+00 -.226E+00   -.513E-03 0.205E-02 -.888E-03
   -.642E+00 0.739E+00 0.111E+01   0.760E+00 -.105E+01 -.132E+01   -.130E+00 0.313E+00 0.226E+00   -.513E-03 0.205E-02 0.888E-03
   -.771E+00 0.273E+00 -.566E-06   0.773E+00 -.273E+00 -.227E-11   -.342E-01 0.121E-01 -.173E-16   0.118E-02 -.419E-03 -.202E-07
   0.722E+00 -.852E+00 -.974E+00   -.773E+00 0.107E+01 0.129E+01   0.696E-01 -.227E+00 -.331E+00   -.113E-03 -.117E-02 -.197E-02
   -.134E-05 -.278E+02 -.240E-05   -.946E-07 0.265E+02 -.704E-12   -.278E-16 0.134E+01 0.139E-16   0.364E-07 0.104E-01 0.630E-07
   0.722E+00 -.852E+00 0.974E+00   -.773E+00 0.107E+01 -.129E+01   0.696E-01 -.227E+00 0.331E+00   -.113E-03 -.117E-02 0.197E-02
   0.131E+02 0.928E+01 -.227E+02   -.125E+02 -.883E+01 0.216E+02   -.633E+00 -.447E+00 0.110E+01   -.492E-02 -.348E-02 0.851E-02
   0.131E+02 0.928E+01 0.227E+02   -.125E+02 -.883E+01 -.216E+02   -.633E+00 -.447E+00 -.110E+01   -.492E-02 -.348E-02 -.851E-02
   0.197E+01 0.139E+01 -.484E-06   -.178E+01 -.126E+01 -.649E-11   -.179E+00 -.126E+00 -.347E-17   0.404E-02 0.285E-02 -.768E-07
   0.128E+01 0.739E+00 0.666E-07   -.152E+01 -.105E+01 -.443E-11   0.261E+00 0.313E+00 -.867E-17   0.103E-02 0.205E-02 0.137E-07
   0.986E+00 -.139E+01 0.171E+01   -.892E+00 0.126E+01 -.155E+01   -.894E-01 0.126E+00 -.155E+00   0.202E-02 -.285E-02 0.350E-02
   0.986E+00 -.139E+01 -.171E+01   -.892E+00 0.126E+01 0.155E+01   -.894E-01 0.126E+00 0.155E+00   0.202E-02 -.285E-02 -.350E-02
   0.483E+00 -.852E+00 -.111E+01   -.735E+00 0.107E+01 0.132E+01   0.252E+00 -.227E+00 -.226E+00   0.176E-02 -.117E-02 -.888E-03
   0.483E+00 -.852E+00 0.111E+01   -.735E+00 0.107E+01 -.132E+01   0.252E+00 -.227E+00 0.226E+00   0.176E-02 -.117E-02 0.888E-03
   -.254E-06 -.818E+00 -.566E-06   -.115E-06 0.820E+00 -.225E-11   -.781E-17 -.362E-01 -.243E-16   -.117E-07 0.126E-02 -.202E-07
   0.113E+01 0.965E+00 0.666E-07   -.150E+01 -.108E+01 -.436E-11   0.382E+00 0.141E+00 0.130E-16   0.228E-02 0.283E-03 0.137E-07
   -.986E+00 0.139E+01 0.171E+01   0.892E+00 -.126E+01 -.155E+01   0.894E-01 -.126E+00 -.155E+00   -.202E-02 0.285E-02 0.350E-02
   -.986E+00 0.139E+01 -.171E+01   0.892E+00 -.126E+01 0.155E+01   0.894E-01 -.126E+00 0.155E+00   -.202E-02 0.285E-02 -.350E-02
   0.385E+00 0.273E+00 -.668E+00   -.387E+00 -.273E+00 0.670E+00   0.171E-01 0.121E-01 -.296E-01   -.592E-03 -.419E-03 0.103E-02
   -.197E+01 -.139E+01 -.180E-05   0.178E+01 0.126E+01 -.696E-12   0.179E+00 0.126E+00 0.191E-16   -.404E-02 -.285E-02 0.165E-07
   0.385E+00 0.273E+00 0.668E+00   -.387E+00 -.273E+00 -.670E+00   0.171E-01 0.121E-01 0.296E-01   -.592E-03 -.419E-03 -.103E-02
 -----------------------------------------------------------------------------------------------
   -.662E-05 -.468E-05 -.116E-04   -.994E-13 0.170E-13 0.333E-14   -.555E-16 0.330E-16 -.194E-15   0.711E-07 0.503E-07 0.123E-06
 
 
 POSITION                                       TOTAL-FORCE (eV/Angst)
 -----------------------------------------------------------------------------------
      3.90169      2.75891     10.49176        -0.011281     -0.007977     -0.007308
      3.90169      2.75891     14.46787        -0.011281     -0.007977      0.007308
      4.97956      5.80757      8.62485        -0.007750      0.002010     -0.013424
      4.99443      5.87650     12.47982         0.002477     -0.000876     -0.000000
      4.97956      5.80757     16.33478        -0.007750      0.002010      0.013424
      6.12736      9.05405     10.61290        -0.003531      0.013944     -0.006116
      6.12736      9.05405     14.34673        -0.003531      0.013944      0.006116
      6.10277      9.01185     18.23973        -0.047011      0.016621      0.000000
      7.13529      2.75891      8.62485        -0.000688     -0.007977     -0.013424
      7.20523      2.74996     12.47982         0.000000      0.002627     -0.000000
      7.13529      2.75891     16.33478        -0.000688     -0.007977      0.013424
      8.31062      5.87650     10.56521        -0.001238     -0.000876      0.002145
      8.31062      5.87650     14.39442        -0.001238     -0.000876     -0.002145
      8.30349      5.87145     18.23973         0.013318      0.009417     -0.000000
      9.36095      9.05405     12.47982         0.007062      0.013944     -0.000000
      9.41710      9.02123     16.31090         0.006659     -0.009417      0.011534
      9.41710      9.02123     20.16857         0.006659     -0.009417     -0.011534
     10.57869      2.75891     10.61290         0.011969     -0.007977     -0.006116
     10.57869      2.75891     14.34673         0.011969     -0.007977      0.006116
     10.53071      2.74979     18.23973         0.000000     -0.049863      0.000000
     11.65656      5.80757     12.47982         0.015500      0.002010     -0.000000
     11.64433      5.87145     16.31090        -0.006659      0.009417      0.011534
     11.64433      5.87145     20.16857        -0.006659      0.009417     -0.011534
     12.74469      9.01185     14.40502         0.023506      0.016621     -0.040713
     12.75794      9.02123     18.23973        -0.013318     -0.009417     -0.000000
     12.74469      9.01185     22.07444         0.023506      0.016621      0.040713
      0.55425      0.39191      0.95999         0.000000     -0.000000     -0.000000
      0.57049      0.40340      4.79710        -0.019752     -0.013966      0.009989
      0.57049      0.40340      8.64270        -0.019752     -0.013966     -0.009989
      1.67005      3.51342      2.89261        -0.006992      0.022122     -0.012111
      1.93285      3.43172      6.71990        -0.001384      0.000489     -0.000000
      1.67005      3.51342     10.54719        -0.006992      0.022122      0.012111
      2.78018      6.65334      4.81541        -0.012759      0.005810     -0.022100
      2.78018      6.65334      8.62439        -0.012759      0.005810      0.022100
      2.77237      6.66212     12.47982        -0.030684      0.010848     -0.000000
      3.86917      0.40340      2.89261         0.018527     -0.013966     -0.012111
      3.87974      0.67840      6.71990         0.000000     -0.001468     -0.000000
      3.86917      0.40340     10.54719         0.018527     -0.013966      0.012111
      4.85318      3.43172      5.03385         0.000692      0.000489     -0.001199
      4.85318      3.43172      8.40595         0.000692      0.000489      0.001199
      4.97993      3.52134     12.47982         0.013502      0.009547     -0.000000
      6.07885      6.65334      6.71990         0.025519      0.005810     -0.000000
      6.09258      6.66839     10.55265         0.006751     -0.009547      0.011693
      6.09258      6.66839     14.40698         0.006751     -0.009547     -0.011693
      7.19955      0.40340      4.81541         0.001225     -0.013966     -0.022100
      7.19955      0.40340      8.62439         0.001225     -0.013966      0.022100
      7.20523      0.39311     12.47982         0.000000     -0.032545     -0.000000
      8.29911      3.51342      6.71990         0.013984      0.022122     -0.000000
      8.31787      3.52134     10.55265        -0.006751      0.009547      0.011693
      8.31787      3.52134     14.40698        -0.006751      0.009547     -0.011693
      9.42166      6.66212      8.64085         0.015342      0.010848     -0.026573
      9.43052      6.66839     12.47982        -0.013502     -0.009547     -0.000000
      9.42166      6.66212     16.31879         0.015342      0.010848      0.026573
 -----------------------------------------------------------------------------------
    total drift:                               -0.000007     -0.000005     -0.000011


--------------------------------------------------------------------------------------------------------



  FREE ENERGIE OF THE ION-ELECTRON SYSTEM (eV)
  ---------------------------------------------------
  free  energy   TOTEN  =      -278.24532245 eV

  energy  without entropy=     -278.23375963  energy(sigma->0) =     -278.23954104
 
 d Force = 0.7781093E-02[-0.844E-04, 0.156E-01]  d Energy = 0.7844909E-02-0.638E-04
 d Force = 0.2579276E+01[ 0.250E+01, 0.266E+01]  d Ewald  = 0.2579888E+01-0.612E-03


--------------------------------------------------------------------------------------------------------


    POTLOK:  cpu time    0.0988: real time    0.0993


--------------------------------------------------------------------------------------------------------




--------------------------------------------------------------------------------------------------------


  
 reached required accuracy - stopping structural energy minimisation
 writing wavefunctions
     LOOP+:  cpu time   42.4245: real time   42.8994
    4ORBIT:  cpu time    0.0000: real time    0.0000
 


 total charge     
 
# of ion       s       p       d       tot
------------------------------------------
    1        0.755   0.890   0.000   1.645
    2        0.755   0.890   0.000   1.645
    3        0.758   0.920   0.000   1.678
    4        0.752   0.942   0.000   1.695
    5        0.758   0.918   0.000   1.676
    6        0.758   0.918   0.000   1.676
    7        0.758   0.916   0.000   1.674
    8        0.753   0.936   0.000   1.689
    9        0.761   0.931   0.000   1.692
   10        0.753   0.944   0.000   1.696
   11        0.761   0.933   0.000   1.694
   12        0.753   0.943   0.000   1.696
   13        0.753   0.943   0.000   1.696
   14        0.753   0.940   0.000   1.693
   15        0.760   0.923   0.000   1.683
   16        0.753   0.940   0.000   1.693
   17        0.753   0.940   0.000   1.693
   18        0.759   0.928   0.000   1.687
   19        0.760   0.929   0.000   1.689
   20        0.754   0.937   0.000   1.691
   21        0.759   0.921   0.000   1.680
   22        0.752   0.940   0.000   1.693
   23        0.752   0.940   0.000   1.693
   24        0.753   0.937   0.000   1.690
   25        0.753   0.939   0.000   1.692
   26        0.753   0.937   0.000   1.690
   27        0.752   0.942   0.000   1.694
   28        0.754   0.940   0.000   1.693
   29        0.754   0.940   0.000   1.693
   30        0.753   0.942   0.000   1.695
   31        0.826   0.871   0.000   1.697
   32        0.753   0.941   0.000   1.695
   33        0.753   0.942   0.000   1.695
   34        0.753   0.942   0.000   1.695
   35        0.753   0.941   0.000   1.694
   36        0.753   0.940   0.000   1.693
   37        0.806   0.822   0.000   1.628
   38        0.753   0.940   0.000   1.693
   39        0.788   0.780   0.000   1.568
   40        0.788   0.780   0.000   1.568
   41        0.758   0.892   0.000   1.650
   42        0.753   0.939   0.000   1.691
   43        0.760   0.917   0.000   1.677
   44        0.759   0.916   0.000   1.675
   45        0.754   0.941   0.000   1.695
   46        0.753   0.941   0.000   1.695
   47        0.753   0.940   0.000   1.693
   48        0.753   0.939   0.000   1.693
   49        0.761   0.927   0.000   1.688
   50        0.762   0.928   0.000   1.690
   51        0.753   0.939   0.000   1.691
   52        0.761   0.923   0.000   1.684
   53        0.753   0.939   0.000   1.691
--------------------------------------------------
tot         40.213  48.919   0.000  89.132
 

 total amount of memory used by VASP MPI-rank0   122888. kBytes
=======================================================================

   base      :      30000. kBytes
   nonl-proj :      43150. kBytes
   fftplans  :       5382. kBytes
   grid      :      19496. kBytes
   one-center:        162. kBytes
   wavefun   :      24698. kBytes
 
  
  
 General timing and accounting informations for this job:
 ========================================================
  
                  Total CPU time used (sec):      352.901
                            User time (sec):      346.336
                          System time (sec):        6.564
                         Elapsed time (sec):      362.943
  
                   Maximum memory used (kb):      413676.
                   Average memory used (kb):           0.
  
                          Minor page faults:        55917
                          Major page faults:            0
                 Voluntary context switches:         4561
