 vasp.6.3.0 20Jan22 (build Mar 07 2022 09:35:52) complex                        
  
 executed on             LinuxIFC date 2025.06.26  16:12:45
 running on   96 total cores
 distrk:  each k-point on   96 cores,    1 groups
 distr:  one band on NCORE=   1 cores,   96 groups


--------------------------------------------------------------------------------------------------------


 INCAR:
   ALGO = Normal
   AMIX = 0.2
   EDIFF = 1e-06
   EDIFFG = -0.05
   ENCUT = 550.0
   IBRION = 2
   ISIF = 2
   ISMEAR = 0
   ISPIN = 1
   ISYM = 2
   LCHARG = True
   LORBIT = 11
   LREAL = False
   LVTOT = True
   LWAVE = True
   NELECT = 383.0
   NELM = 200
   NSW = 0
   SIGMA = 0.05
   SYSTEM = SiO2

 POTCAR:    PAW_PBE Si 05Jan2001                  
 POTCAR:    PAW_PBE O 08Apr2002                   
 WARNING: For LVTOT=.TRUE., VASP.5.x writes the TOTAL local potential to the
     file LOCPOT. If you want only the Hartree contributions, use LVHAR=.TRUE.
     instead. 

 -----------------------------------------------------------------------------
|                                                                             |
|           W    W    AA    RRRRR   N    N  II  N    N   GGGG   !!!           |
|           W    W   A  A   R    R  NN   N  II  NN   N  G    G  !!!           |
|           W    W  A    A  R    R  N N  N  II  N N  N  G       !!!           |
|           W WW W  AAAAAA  RRRRR   N  N N  II  N  N N  G  GGG   !            |
|           WW  WW  A    A  R   R   N   NN  II  N   NN  G    G                |
|           W    W  A    A  R    R  N    N  II  N    N   GGGG   !!!           |
|                                                                             |
|     For optimal performance we recommend to set                             |
|       NCORE = 2 up to number-of-cores-per-socket                            |
|     NCORE specifies how many cores store one orbital (NPAR=cpu/NCORE).      |
|     This setting can greatly improve the performance of VASP for DFT.       |
|     The default, NCORE=1 might be grossly inefficient on modern             |
|     multi-core architectures or massively parallel machines. Do your        |
|     own testing! More info at https://www.vasp.at/wiki/index.php/NCORE      |
|     Unfortunately you need to use the default for GW and RPA                |
|     calculations (for HF NCORE is supported but not extensively tested      |
|     yet).                                                                   |
|                                                                             |
 -----------------------------------------------------------------------------

 POTCAR:    PAW_PBE Si 05Jan2001                  
   VRHFIN =Si: s2p2                                                                                 
   LEXCH  = PE                                                                                      
   EATOM  =   103.0669 eV,    7.5752 Ry                                                             
                                                                                                    
   TITEL  = PAW_PBE Si 05Jan2001                                                                    
   LULTRA =        F    use ultrasoft PP ?                                                          
   IUNSCR =        1    unscreen: 0-lin 1-nonlin 2-no                                               
   RPACOR =    1.500    partial core radius                                                         
   POMASS =   28.085; ZVAL   =    4.000    mass and valenz                                          
   RCORE  =    1.900    outmost cutoff radius                                                       
   RWIGS  =    2.480; RWIGS  =    1.312    wigner-seitz radius (au A)                               
   ENMAX  =  245.345; ENMIN  =  184.009 eV                                                          
   ICORE  =        2    local potential                                                             
   LCOR   =        T    correct aug charges                                                         
   LPAW   =        T    paw PP                                                                      
   EAUG   =  322.069                                                                                
   DEXC   =    0.000                                                                                
   RMAX   =    1.950    core radius for proj-oper                                                   
   RAUG   =    1.300    factor for augmentation sphere                                              
   RDEP   =    1.993    radius for radial grids                                                     
   RDEPT  =    1.837    core radius for aug-charge                                                  
                                                                                                    
   Atomic configuration                                                                             
    6 entries                                                                                       
     n  l   j            E        occ.                                                              
     1  0  0.50     -1785.8828   2.0000                                                             
     2  0  0.50      -139.4969   2.0000                                                             
     2  1  1.50       -95.5546   6.0000                                                             
     3  0  0.50       -10.8127   2.0000                                                             
     3  1  0.50        -4.0811   2.0000                                                             
     3  2  1.50        -4.0817   0.0000                                                             
   Description                                                                                      
     l       E           TYP  RCUT    TYP  RCUT                                                     
     0    -10.8127223     23  1.900                                                                 
     0     -7.6451159     23  1.900                                                                 
     1     -4.0811372     23  1.900                                                                 
     1      2.4879257     23  1.900                                                                 
     2     -4.0817478      7  1.900                                                                 
  local pseudopotential read in
  partial core-charges read in
  partial kinetic energy density read in
  atomic valenz-charges read in
  non local Contribution for L=           0  read in
    real space projection operators read in
  non local Contribution for L=           0  read in
    real space projection operators read in
  non local Contribution for L=           1  read in
    real space projection operators read in
  non local Contribution for L=           1  read in
    real space projection operators read in
    PAW grid and wavefunctions read in
 
   number of l-projection  operators is LMAX  =           4
   number of lm-projection operators is LMMAX =           8
 
 POTCAR:    PAW_PBE O 08Apr2002                   
   VRHFIN =O: s2p4                                                                                  
   LEXCH  = PE                                                                                      
   EATOM  =   432.3788 eV,   31.7789 Ry                                                             
                                                                                                    
   TITEL  = PAW_PBE O 08Apr2002                                                                     
   LULTRA =        F    use ultrasoft PP ?                                                          
   IUNSCR =        1    unscreen: 0-lin 1-nonlin 2-no                                               
   RPACOR =    1.200    partial core radius                                                         
   POMASS =   16.000; ZVAL   =    6.000    mass and valenz                                          
   RCORE  =    1.520    outmost cutoff radius                                                       
   RWIGS  =    1.550; RWIGS  =    0.820    wigner-seitz radius (au A)                               
   ENMAX  =  400.000; ENMIN  =  300.000 eV                                                          
   ICORE  =        2    local potential                                                             
   LCOR   =        T    correct aug charges                                                         
   LPAW   =        T    paw PP                                                                      
   EAUG   =  605.392                                                                                
   DEXC   =    0.000                                                                                
   RMAX   =    1.553    core radius for proj-oper                                                   
   RAUG   =    1.300    factor for augmentation sphere                                              
   RDEP   =    1.550    radius for radial grids                                                     
   RDEPT  =    1.329    core radius for aug-charge                                                  
                                                                                                    
   Atomic configuration                                                                             
    4 entries                                                                                       
     n  l   j            E        occ.                                                              
     1  0  0.50      -514.6923   2.0000                                                             
     2  0  0.50       -23.9615   2.0000                                                             
     2  1  0.50        -9.0305   4.0000                                                             
     3  2  1.50        -9.5241   0.0000                                                             
   Description                                                                                      
     l       E           TYP  RCUT    TYP  RCUT                                                     
     0    -23.9615318     23  1.200                                                                 
     0     -9.5240782     23  1.200                                                                 
     1     -9.0304911     23  1.520                                                                 
     1      8.1634956     23  1.520                                                                 
     2     -9.5240782      7  1.500                                                                 
  local pseudopotential read in
  partial core-charges read in
  partial kinetic energy density read in
  kinetic energy density of atom read in
  atomic valenz-charges read in
  non local Contribution for L=           0  read in
    real space projection operators read in
  non local Contribution for L=           0  read in
    real space projection operators read in
  non local Contribution for L=           1  read in
    real space projection operators read in
  non local Contribution for L=           1  read in
    real space projection operators read in
    PAW grid and wavefunctions read in
 
   number of l-projection  operators is LMAX  =           4
   number of lm-projection operators is LMMAX =           8
 
 -----------------------------------------------------------------------------
|                                                                             |
|               ----> ADVICE to this user running VASP <----                  |
|                                                                             |
|     You have a (more or less) 'large supercell' and for larger cells it     |
|     might be more efficient to use real-space projection operators.         |
|     Therefore, try LREAL= Auto in the INCAR file.                           |
|     Mind: For very accurate calculation, you might also keep the            |
|     reciprocal projection scheme (i.e. LREAL=.FALSE.).                      |
|                                                                             |
 -----------------------------------------------------------------------------

  PAW_PBE Si 05Jan2001                  :
 energy of atom  1       EATOM= -103.0669
 kinetic energy error for atom=    0.0004 (will be added to EATOM!!)
  PAW_PBE O 08Apr2002                   :
 energy of atom  2       EATOM= -432.3788
 kinetic energy error for atom=    0.0194 (will be added to EATOM!!)
 
 
 POSCAR: Si23 O48
  positions in direct lattice
  No initial velocities read in
 exchange correlation table for  LEXCH =        8
   RHO(1)=    0.500       N(1)  =     2000
   RHO(2)=  100.500       N(2)  =     4000

 VTST: version 4.2, (08/11/21)

 CHAIN: initializing optimizer
 
 OPT: Using VASP Conjugate-Gradient optimizer
 CHAIN: Read ICHAIN            0
 
 POSCAR: Si23 O48
  positions in direct lattice
  No initial velocities read in
 


--------------------------------------------------------------------------------------------------------


 ion  position               nearest neighbor table
   1  0.266  0.266  0.500-  64 1.61  33 1.61  49 1.62  24 1.62  12 3.06  19 3.06  17 3.06   8 3.06

   2  0.266  0.766  0.000-  67 1.61  34 1.61  50 1.62  27 1.62  15 3.06  16 3.06  11 3.06  18 3.06

   3  0.266  0.766  0.500-  66 1.61  35 1.61  51 1.62  26 1.62  14 3.06  17 3.06  10 3.06  19 3.06

   4  0.766  0.266  0.000-  69 1.61  36 1.61  52 1.62  29 1.62   9 3.06  22 3.06  20 3.06  13 3.06

   5  0.766  0.266  0.500-  68 1.61  37 1.61  53 1.62  28 1.62   8 3.06  23 3.06  21 3.06  12 3.06

   6  0.766  0.766  0.000-  71 1.61  38 1.61  54 1.62  31 1.62  11 3.06  20 3.06  15 3.06  22 3.06

   7  0.766  0.766  0.500-  70 1.61  39 1.61  55 1.62  30 1.62  10 3.06  21 3.06  14 3.06  23 3.06

   8  0.000  0.234  0.333-  24 1.61  60 1.61  40 1.62  68 1.62   5 3.06   1 3.06  18 3.06  20 3.06

   9  0.000  0.234  0.833-  25 1.61  61 1.61  41 1.62  69 1.62   4 3.06  19 3.06  21 3.06
  10  0.000  0.734  0.333-  26 1.61  62 1.61  42 1.62  70 1.62   7 3.06   3 3.06  16 3.06  22 3.06

  11  0.000  0.734  0.833-  27 1.61  63 1.61  43 1.62  71 1.62   6 3.06   2 3.06  17 3.06  23 3.06

  12  0.500  0.234  0.333-  28 1.61  56 1.61  44 1.62  64 1.62   1 3.06   5 3.06  16 3.06  22 3.06

  13  0.500  0.234  0.833-  29 1.61  57 1.61  45 1.62  65 1.62   4 3.06  17 3.06  23 3.06
  14  0.500  0.734  0.333-  30 1.61  58 1.61  46 1.62  66 1.62   3 3.06   7 3.06  18 3.06  20 3.06

  15  0.500  0.734  0.833-  31 1.61  59 1.61  47 1.62  67 1.62   2 3.06   6 3.06  19 3.06  21 3.06

  16  0.234  0.000  0.167-  48 1.61  42 1.61  34 1.62  56 1.62   2 3.06  10 3.06  12 3.06
  17  0.234  0.000  0.667-  49 1.61  43 1.61  35 1.62  57 1.62   3 3.06   1 3.06  11 3.06  13 3.06

  18  0.234  0.500  0.167-  50 1.61  40 1.61  32 1.62  58 1.62   2 3.06   8 3.06  14 3.06
  19  0.234  0.500  0.667-  51 1.61  41 1.61  33 1.62  59 1.62   1 3.06   3 3.06   9 3.06  15 3.06

  20  0.734  0.000  0.167-  52 1.61  46 1.61  38 1.62  60 1.62   6 3.06   4 3.06   8 3.06  14 3.06

  21  0.734  0.000  0.667-  53 1.61  47 1.61  39 1.62  61 1.62   7 3.06   5 3.06   9 3.06  15 3.06

  22  0.734  0.500  0.167-  54 1.61  44 1.61  36 1.62  62 1.62   4 3.06   6 3.06  10 3.06  12 3.06

  23  0.734  0.500  0.667-  55 1.61  45 1.61  37 1.62  63 1.62   5 3.06   7 3.06  11 3.06  13 3.06

  24  0.135  0.207  0.392-   8 1.61   1 1.62
  25  0.135  0.207  0.892-   9 1.61
  26  0.135  0.707  0.392-  10 1.61   3 1.62
  27  0.135  0.707  0.892-  11 1.61   2 1.62
  28  0.635  0.207  0.392-  12 1.61   5 1.62
  29  0.635  0.207  0.892-  13 1.61   4 1.62
  30  0.635  0.707  0.392-  14 1.61   7 1.62
  31  0.635  0.707  0.892-  15 1.61   6 1.62
  32  0.293  0.428  0.059-  18 1.62
  33  0.293  0.428  0.559-   1 1.61  19 1.62
  34  0.293  0.928  0.059-   2 1.61  16 1.62
  35  0.293  0.928  0.559-   3 1.61  17 1.62
  36  0.793  0.428  0.059-   4 1.61  22 1.62
  37  0.793  0.428  0.559-   5 1.61  23 1.62
  38  0.793  0.928  0.059-   6 1.61  20 1.62
  39  0.793  0.928  0.559-   7 1.61  21 1.62
  40  0.072  0.365  0.226-  18 1.61   8 1.62
  41  0.072  0.365  0.726-  19 1.61   9 1.62
  42  0.072  0.865  0.226-  16 1.61  10 1.62
  43  0.072  0.865  0.726-  17 1.61  11 1.62
  44  0.572  0.365  0.226-  22 1.61  12 1.62
  45  0.572  0.365  0.726-  23 1.61  13 1.62
  46  0.572  0.865  0.226-  20 1.61  14 1.62
  47  0.572  0.865  0.726-  21 1.61  15 1.62
  48  0.207  0.135  0.108-  16 1.61
  49  0.207  0.135  0.608-  17 1.61   1 1.62
  50  0.207  0.635  0.108-  18 1.61   2 1.62
  51  0.207  0.635  0.608-  19 1.61   3 1.62
  52  0.707  0.135  0.108-  20 1.61   4 1.62
  53  0.707  0.135  0.608-  21 1.61   5 1.62
  54  0.707  0.635  0.108-  22 1.61   6 1.62
  55  0.707  0.635  0.608-  23 1.61   7 1.62
  56  0.365  0.072  0.274-  12 1.61  16 1.62
  57  0.365  0.072  0.774-  13 1.61  17 1.62
  58  0.365  0.572  0.274-  14 1.61  18 1.62
  59  0.365  0.572  0.774-  15 1.61  19 1.62
  60  0.865  0.072  0.274-   8 1.61  20 1.62
  61  0.865  0.072  0.774-   9 1.61  21 1.62
  62  0.865  0.572  0.274-  10 1.61  22 1.62
  63  0.865  0.572  0.774-  11 1.61  23 1.62
  64  0.428  0.293  0.441-   1 1.61  12 1.62
  65  0.428  0.293  0.941-  13 1.62
  66  0.428  0.793  0.441-   3 1.61  14 1.62
  67  0.428  0.793  0.941-   2 1.61  15 1.62
  68  0.928  0.293  0.441-   5 1.61   8 1.62
  69  0.928  0.293  0.941-   4 1.61   9 1.62
  70  0.928  0.793  0.441-   7 1.61  10 1.62
  71  0.928  0.793  0.941-   6 1.61  11 1.62
 
  LATTYP: Found a hexagonal cell.
 ALAT       =     9.8299323535
 C/A-ratio  =     1.1050536148
  
  Lattice vectors:
  
 A1 = (   4.9149661767,  -8.5129711356,   0.0000000000)
 A2 = (   4.9149661767,   8.5129711356,   0.0000000000)
 A3 = (   0.0000000000,   0.0000000000,  10.8626022800)


Analysis of symmetry for initial positions (statically):
=====================================================================
 Subroutine PRICEL returns:
 Original cell was already a primitive cell.
 

 Routine SETGRP: Setting up the symmetry group for a 
 hexagonal supercell.


 Subroutine GETGRP returns: Found  2 space group operations
 (whereof  2 operations were pure point group operations)
 out of a pool of 24 trial point group operations.


The static configuration has the point symmetry C_2 .


Analysis of symmetry for dynamics (positions and initial velocities):
=====================================================================
 Subroutine PRICEL returns:
 Original cell was already a primitive cell.
 

 Routine SETGRP: Setting up the symmetry group for a 
 hexagonal supercell.


 Subroutine GETGRP returns: Found  2 space group operations
 (whereof  2 operations were pure point group operations)
 out of a pool of 24 trial point group operations.


The dynamic configuration has the point symmetry C_2 .


 Subroutine INISYM returns: Found  2 space group operations
 (whereof  2 operations are pure point group operations),
 and found     1 'primitive' translations


----------------------------------------------------------------------------------------

                                     Primitive cell                                     

  volume of cell :     909.0035

  direct lattice vectors                    reciprocal lattice vectors
     4.914966177 -8.512971136  0.000000000     0.101730100 -0.058733901  0.000000000
     4.914966177  8.512971136  0.000000000     0.101730100  0.058733901  0.000000000
     0.000000000  0.000000000 10.862602280     0.000000000  0.000000000  0.092058972

  length of vectors
     9.829932353  9.829932353 10.862602280     0.117467801  0.117467801  0.092058972

  position of ions in fractional coordinates (direct lattice)
     0.265544295  0.265544295  0.500000000
     0.265544295  0.765544295  0.000000000
     0.265544295  0.765544295  0.500000000
     0.765544295  0.265544295  0.000000000
     0.765544295  0.265544295  0.500000000
     0.765544295  0.765544295  0.000000000
     0.765544295  0.765544295  0.500000000
     1.000000000  0.234455705  0.333333333
     1.000000000  0.234455705  0.833333333
     1.000000000  0.734455705  0.333333333
     1.000000000  0.734455705  0.833333333
     0.500000000  0.234455705  0.333333333
     0.500000000  0.234455705  0.833333333
     0.500000000  0.734455705  0.333333333
     0.500000000  0.734455705  0.833333333
     0.234455705  1.000000000  0.166666667
     0.234455705  1.000000000  0.666666667
     0.234455705  0.500000000  0.166666667
     0.234455705  0.500000000  0.666666667
     0.734455705  1.000000000  0.166666667
     0.734455705  1.000000000  0.666666667
     0.734455705  0.500000000  0.166666667
     0.734455705  0.500000000  0.666666667
     0.134611555  0.206697145  0.392445490
     0.134611555  0.206697145  0.892445490
     0.134611555  0.706697145  0.392445490
     0.134611555  0.706697145  0.892445490
     0.634611555  0.206697145  0.392445490
     0.634611555  0.206697145  0.892445490
     0.634611555  0.706697145  0.392445490
     0.634611555  0.706697145  0.892445490
     0.293302855  0.427914410  0.059112157
     0.293302855  0.427914410  0.559112157
     0.293302855  0.927914410  0.059112157
     0.293302855  0.927914410  0.559112157
     0.793302855  0.427914410  0.059112157
     0.793302855  0.427914410  0.559112157
     0.793302855  0.927914410  0.059112157
     0.793302855  0.927914410  0.559112157
     0.072085590  0.365388445  0.225778823
     0.072085590  0.365388445  0.725778823
     0.072085590  0.865388445  0.225778823
     0.072085590  0.865388445  0.725778823
     0.572085590  0.365388445  0.225778823
     0.572085590  0.365388445  0.725778823
     0.572085590  0.865388445  0.225778823
     0.572085590  0.865388445  0.725778823
     0.206697145  0.134611555  0.107554510
     0.206697145  0.134611555  0.607554510
     0.206697145  0.634611555  0.107554510
     0.206697145  0.634611555  0.607554510
     0.706697145  0.134611555  0.107554510
     0.706697145  0.134611555  0.607554510
     0.706697145  0.634611555  0.107554510
     0.706697145  0.634611555  0.607554510
     0.365388445  0.072085590  0.274221177
     0.365388445  0.072085590  0.774221177
     0.365388445  0.572085590  0.274221177
     0.365388445  0.572085590  0.774221177
     0.865388445  0.072085590  0.274221177
     0.865388445  0.072085590  0.774221177
     0.865388445  0.572085590  0.274221177
     0.865388445  0.572085590  0.774221177
     0.427914410  0.293302855  0.440887843
     0.427914410  0.293302855  0.940887843
     0.427914410  0.793302855  0.440887843
     0.427914410  0.793302855  0.940887843
     0.927914410  0.293302855  0.440887843
     0.927914410  0.293302855  0.940887843
     0.927914410  0.793302855  0.440887843
     0.927914410  0.793302855  0.940887843

  ion indices of the primitive-cell ions
   primitive index   ion index
                 1           1
                 2           2
                 3           3
                 4           4
                 5           5
                 6           6
                 7           7
                 8           8
                 9           9
                10          10
                11          11
                12          12
                13          13
                14          14
                15          15
                16          16
                17          17
                18          18
                19          19
                20          20
                21          21
                22          22
                23          23
                24          24
                25          25
                26          26
                27          27
                28          28
                29          29
                30          30
                31          31
                32          32
                33          33
                34          34
                35          35
                36          36
                37          37
                38          38
                39          39
                40          40
                41          41
                42          42
                43          43
                44          44
                45          45
                46          46
                47          47
                48          48
                49          49
                50          50
                51          51
                52          52
                53          53
                54          54
                55          55
                56          56
                57          57
                58          58
                59          59
                60          60
                61          61
                62          62
                63          63
                64          64
                65          65
                66          66
                67          67
                68          68
                69          69
                70          70
                71          71

----------------------------------------------------------------------------------------

 
 
 KPOINTS: pymatgen with grid density = 1000 / numb

Automatic generation of k-mesh.
 Grid dimensions read from file:
 generate k-points for:    2    2    2

 Generating k-lattice:

  Cartesian coordinates                     Fractional coordinates (reciprocal lattice)
     0.050865050 -0.029366950  0.000000000     0.500000000 -0.000000000  0.000000000
     0.050865050  0.029366950  0.000000000    -0.000000000  0.500000000  0.000000000
     0.000000000  0.000000000  0.046029486     0.000000000  0.000000000  0.500000000

  Length of vectors
     0.058733901  0.058733901  0.046029486

  Shift w.r.t. Gamma in fractional coordinates (k-lattice)
     0.000000000  0.000000000  0.000000000

 
 Subroutine IBZKPT returns following result:
 ===========================================
 
 Found      6 irreducible k-points:
 
 Following reciprocal coordinates:
            Coordinates               Weight
  0.000000  0.000000  0.000000      1.000000
  0.500000  0.000000  0.000000      2.000000
  0.500000  0.500000  0.000000      1.000000
  0.000000  0.000000  0.500000      1.000000
  0.500000  0.000000  0.500000      2.000000
  0.500000  0.500000  0.500000      1.000000
 
 Following cartesian coordinates:
            Coordinates               Weight
  0.000000  0.000000  0.000000      1.000000
  0.050865 -0.029367  0.000000      2.000000
  0.101730  0.000000  0.000000      1.000000
  0.000000  0.000000  0.046029      1.000000
  0.050865 -0.029367  0.046029      2.000000
  0.101730  0.000000  0.046029      1.000000
 


--------------------------------------------------------------------------------------------------------




 Dimension of arrays:
   k-points           NKPTS =      6   k-points in BZ     NKDIM =      6   number of bands    NBANDS=    288
   number of dos      NEDOS =    301   number of ions     NIONS =     71
   non local maximal  LDIM  =      4   non local SUM 2l+1 LMDIM =      8
   total plane-waves  NPLWV = 200704
   max r-space proj   IRMAX =      1   max aug-charges    IRDMAX=   7581
   dimension x,y,z NGX =    56 NGY =   56 NGZ =   64
   dimension x,y,z NGXF=   112 NGYF=  112 NGZF=  128
   support grid    NGXF=   112 NGYF=  112 NGZF=  128
   ions per type =              23  48
   NGX,Y,Z   is equivalent  to a cutoff of   9.47,  9.47,  9.79 a.u.
   NGXF,Y,Z  is equivalent  to a cutoff of  18.94, 18.94, 19.59 a.u.

 SYSTEM =  SiO2                                    
 POSCAR =  Si23 O48                                

 Startparameter for this run:
   NWRITE =      2    write-flag & timer
   PREC   = normal    normal or accurate (medium, high low for compatibility)
   ISTART =      0    job   : 0-new  1-cont  2-samecut
   ICHARG =      2    charge: 1-file 2-atom 10-const
   ISPIN  =      1    spin polarized calculation?
   LNONCOLLINEAR =      F non collinear calculations
   LSORBIT =      F    spin-orbit coupling
   INIWAV =      1    electr: 0-lowe 1-rand  2-diag
   LASPH  =      F    aspherical Exc in radial PAW
 Electronic Relaxation 1
   ENCUT  =  550.0 eV  40.42 Ry    6.36 a.u.  18.80 18.80 20.77*2*pi/ulx,y,z
   ENINI  =  550.0     initial cutoff
   ENAUG  =  605.4 eV  augmentation charge cutoff
   NELM   =    200;   NELMIN=  2; NELMDL= -5     # of ELM steps 
   EDIFF  = 0.1E-05   stopping-criterion for ELM
   LREAL  =      F    real-space projection
   NLSPLINE    = F    spline interpolate recip. space projectors
   LCOMPAT=      F    compatible to vasp.4.4
   GGA_COMPAT  = T    GGA compatible to vasp.4.4-vasp.4.6
   LMAXPAW     = -100 max onsite density
   LMAXMIX     =    2 max onsite mixed and CHGCAR
   VOSKOWN=      0    Vosko Wilk Nusair interpolation
   ROPT   =    0.00000   0.00000
 Ionic relaxation
   EDIFFG = -.5E-01   stopping-criterion for IOM
   NSW    =      0    number of steps for IOM
   NBLOCK =      1;   KBLOCK =      1    inner block; outer block 
   IBRION =     -1    ionic relax: 0-MD 1-quasi-New 2-CG
   NFREE  =      1    steps in history (QN), initial steepest desc. (CG)
   ISIF   =      2    stress and relaxation
   IWAVPR =     10    prediction:  0-non 1-charg 2-wave 3-comb
   ISYM   =      2    0-nonsym 1-usesym 2-fastsym
   LCORR  =      T    Harris-Foulkes like correction to forces

   POTIM  = 0.5000    time-step for ionic-motion
   TEIN   =    0.0    initial temperature
   TEBEG  =    0.0;   TEEND  =   0.0 temperature during run
   SMASS  =  -3.00    Nose mass-parameter (am)
   estimated Nose-frequenzy (Omega)   =  0.10E-29 period in steps = 0.13E+47 mass=  -0.221E-26a.u.
   SCALEE = 1.0000    scale energy and forces
   NPACO  =    256;   APACO  = 10.0  distance and # of slots for P.C.
   PSTRESS=    0.0 pullay stress

  Mass of Ions in am
   POMASS =  28.09 16.00
  Ionic Valenz
   ZVAL   =   4.00  6.00
  Atomic Wigner-Seitz radii
   RWIGS  =  -1.00 -1.00
  virtual crystal weights 
   VCA    =   1.00  1.00
   NELECT =     383.0000    total number of electrons
   NUPDOWN=      -1.0000    fix difference up-down

 DOS related values:
   EMIN   =  10.00;   EMAX   =-10.00  energy-range for DOS
   EFERMI =   0.00
   ISMEAR =     0;   SIGMA  =   0.05  broadening in eV -4-tet -1-fermi 0-gaus

 Electronic relaxation 2 (details)
   IALGO  =     38    algorithm
   LDIAG  =      T    sub-space diagonalisation (order eigenvalues)
   LSUBROT=      F    optimize rotation matrix (better conditioning)
   TURBO    =      0    0=normal 1=particle mesh
   IRESTART =      0    0=no restart 2=restart with 2 vectors
   NREBOOT  =      0    no. of reboots
   NMIN     =      0    reboot dimension
   EREF     =   0.00    reference energy to select bands
   IMIX   =      4    mixing-type and parameters
     AMIX     =   0.20;   BMIX     =  1.00
     AMIX_MAG =   0.80;   BMIX_MAG =  1.00
     AMIN     =   0.10
     WC   =   100.;   INIMIX=   1;  MIXPRE=   1;  MAXMIX= -45

 Intra band minimization:
   WEIMIN = 0.0000     energy-eigenvalue tresh-hold
   EBREAK =  0.87E-09  absolut break condition
   DEPER  =   0.30     relativ break condition  

   TIME   =   0.40     timestep for ELM

  volume/ion in A,a.u.               =      12.80        86.40
  Fermi-wavevector in a.u.,A,eV,Ry     =   1.227305  2.319270 20.494156  1.506278
  Thomas-Fermi vector in A             =   2.362274
 
 Write flags
   LWAVE        =      T    write WAVECAR
   LDOWNSAMPLE  =      F    k-point downsampling of WAVECAR
   LCHARG       =      T    write CHGCAR
   LVTOT        =      T    write LOCPOT, total local potential
   LVHAR        =      F    write LOCPOT, Hartree potential only
   LELF         =      F    write electronic localiz. function (ELF)
   LORBIT       =     11    0 simple, 1 ext, 2 COOP (PROOUT), +10 PAW based schemes


 Dipole corrections
   LMONO  =      F    monopole corrections only (constant potential shift)
   LDIPOL =      F    correct potential (dipole corrections)
   IDIPOL =      0    1-x, 2-y, 3-z, 4-all directions 
   EPSILON=  1.0000000 bulk dielectric constant

 Exchange correlation treatment:
   GGA     =    --    GGA type
   LEXCH   =     8    internal setting for exchange type
   LIBXC   =     F    Libxc                    
   VOSKOWN =     0    Vosko Wilk Nusair interpolation
   LHFCALC =     F    Hartree Fock is set to
   LHFONE  =     F    Hartree Fock one center treatment
   AEXX    =    0.0000 exact exchange contribution

 Linear response parameters
   LEPSILON=     F    determine dielectric tensor
   LRPA    =     F    only Hartree local field effects (RPA)
   LNABLA  =     F    use nabla operator in PAW spheres
   LVEL    =     F    velocity operator in full k-point grid
   CSHIFT  =0.1000    complex shift for real part using Kramers Kronig
   OMEGAMAX=  -1.0    maximum frequency
   DEG_THRESHOLD= 0.2000000E-02 threshold for treating states as degnerate
   RTIME   =   -0.100 relaxation time in fs
  (WPLASMAI=    0.000 imaginary part of plasma frequency in eV, 0.658/RTIME)
   DFIELD  = 0.0000000 0.0000000 0.0000000 field for delta impulse in time
 
  Optional k-point grid parameters
   LKPOINTS_OPT  =     F    use optional k-point grid
   KPOINTS_OPT_MODE=     1    mode for optional k-point grid
 
 Orbital magnetization related:
   ORBITALMAG=     F  switch on orbital magnetization
   LCHIMAG   =     F  perturbation theory with respect to B field
   DQ        =  0.001000  dq finite difference perturbation B field
   LLRAUG    =     F  two centre corrections for induced B field



--------------------------------------------------------------------------------------------------------


 Static calculation
 charge density and potential will be updated during run
 non-spin polarized calculation
 Variant of blocked Davidson
 Davidson routine will perform the subspace rotation
 perform sub-space diagonalisation
    after iterative eigenvector-optimisation
 modified Broyden-mixing scheme, WC =      100.0
 initial mixing is a Kerker type mixing with AMIX =  0.2000 and BMIX =      1.0000
 Hartree-type preconditioning will be used
 using additional bands           96
 reciprocal scheme for non local part
 use partial core corrections
 calculate Harris-corrections to forces 
   (improved forces if not selfconsistent)
 use gradient corrections 
 use of overlap-Matrix (Vanderbilt PP)
 Gauss-broadening in eV      SIGMA  =   0.05


--------------------------------------------------------------------------------------------------------


  energy-cutoff  :      550.00
  volume of cell :      909.00
      direct lattice vectors                 reciprocal lattice vectors
     4.914966177 -8.512971136  0.000000000     0.101730100 -0.058733901  0.000000000
     4.914966177  8.512971136  0.000000000     0.101730100  0.058733901  0.000000000
     0.000000000  0.000000000 10.862602280     0.000000000  0.000000000  0.092058972

  length of vectors
     9.829932353  9.829932353 10.862602280     0.117467801  0.117467801  0.092058972


 
 k-points in units of 2pi/SCALE and weight: pymatgen with grid density = 1000 / numb
   0.00000000  0.00000000  0.00000000       0.125
   0.05086505 -0.02936695  0.00000000       0.250
   0.10173010  0.00000000  0.00000000       0.125
   0.00000000  0.00000000  0.04602949       0.125
   0.05086505 -0.02936695  0.04602949       0.250
   0.10173010  0.00000000  0.04602949       0.125
 
 k-points in reciprocal lattice and weights: pymatgen with grid density = 1000 / numb
   0.00000000  0.00000000  0.00000000       0.125
   0.50000000  0.00000000  0.00000000       0.250
   0.50000000  0.50000000  0.00000000       0.125
   0.00000000  0.00000000  0.50000000       0.125
   0.50000000  0.00000000  0.50000000       0.250
   0.50000000  0.50000000  0.50000000       0.125
 
 position of ions in fractional coordinates (direct lattice) 
   0.26554429  0.26554429  0.50000000
   0.26554429  0.76554429  0.00000000
   0.26554429  0.76554429  0.50000000
   0.76554429  0.26554429  0.00000000
   0.76554429  0.26554429  0.50000000
   0.76554429  0.76554429  0.00000000
   0.76554429  0.76554429  0.50000000
   0.00000000  0.23445571  0.33333333
   0.00000000  0.23445571  0.83333333
   0.00000000  0.73445571  0.33333333
   0.00000000  0.73445571  0.83333333
   0.50000000  0.23445571  0.33333333
   0.50000000  0.23445571  0.83333333
   0.50000000  0.73445571  0.33333333
   0.50000000  0.73445571  0.83333333
   0.23445571  0.00000000  0.16666667
   0.23445571  0.00000000  0.66666667
   0.23445571  0.50000000  0.16666667
   0.23445571  0.50000000  0.66666667
   0.73445571  0.00000000  0.16666667
   0.73445571  0.00000000  0.66666667
   0.73445571  0.50000000  0.16666667
   0.73445571  0.50000000  0.66666667
   0.13461155  0.20669714  0.39244549
   0.13461155  0.20669714  0.89244549
   0.13461155  0.70669714  0.39244549
   0.13461155  0.70669714  0.89244549
   0.63461155  0.20669714  0.39244549
   0.63461155  0.20669714  0.89244549
   0.63461155  0.70669714  0.39244549
   0.63461155  0.70669714  0.89244549
   0.29330286  0.42791441  0.05911216
   0.29330286  0.42791441  0.55911216
   0.29330286  0.92791441  0.05911216
   0.29330286  0.92791441  0.55911216
   0.79330286  0.42791441  0.05911216
   0.79330286  0.42791441  0.55911216
   0.79330286  0.92791441  0.05911216
   0.79330286  0.92791441  0.55911216
   0.07208559  0.36538845  0.22577882
   0.07208559  0.36538845  0.72577882
   0.07208559  0.86538845  0.22577882
   0.07208559  0.86538845  0.72577882
   0.57208559  0.36538845  0.22577882
   0.57208559  0.36538845  0.72577882
   0.57208559  0.86538845  0.22577882
   0.57208559  0.86538845  0.72577882
   0.20669714  0.13461155  0.10755451
   0.20669714  0.13461155  0.60755451
   0.20669714  0.63461155  0.10755451
   0.20669714  0.63461155  0.60755451
   0.70669714  0.13461155  0.10755451
   0.70669714  0.13461155  0.60755451
   0.70669714  0.63461155  0.10755451
   0.70669714  0.63461155  0.60755451
   0.36538845  0.07208559  0.27422118
   0.36538845  0.07208559  0.77422118
   0.36538845  0.57208559  0.27422118
   0.36538845  0.57208559  0.77422118
   0.86538845  0.07208559  0.27422118
   0.86538845  0.07208559  0.77422118
   0.86538845  0.57208559  0.27422118
   0.86538845  0.57208559  0.77422118
   0.42791441  0.29330286  0.44088784
   0.42791441  0.29330286  0.94088784
   0.42791441  0.79330286  0.44088784
   0.42791441  0.79330286  0.94088784
   0.92791441  0.29330286  0.44088784
   0.92791441  0.29330286  0.94088784
   0.92791441  0.79330286  0.44088784
   0.92791441  0.79330286  0.94088784
 
 position of ions in cartesian coordinates  (Angst):
   2.61028246 -0.00000000  5.43130114
   5.06776555  4.25648557  0.00000000
   5.06776555  4.25648557  5.43130114
   5.06776555 -4.25648557  0.00000000
   5.06776555 -4.25648557  5.43130114
   7.52524863  0.00000000  0.00000000
   7.52524863  0.00000000  5.43130114
   1.15234186  1.99591465  3.62086743
   1.15234186  1.99591465  9.05216857
   3.60982495  6.25240022  3.62086743
   3.60982495  6.25240022  9.05216857
   3.60982495 -2.26057092  3.62086743
   3.60982495 -2.26057092  9.05216857
   6.06730804  1.99591465  3.62086743
   6.06730804  1.99591465  9.05216857
   1.15234186 -1.99591465  1.81043371
   1.15234186 -1.99591465  7.24173485
   3.60982495  2.26057092  1.81043371
   3.60982495  2.26057092  7.24173485
   3.60982495 -6.25240022  1.81043371
   3.60982495 -6.25240022  7.24173485
   6.06730804 -1.99591465  1.81043371
   6.06730804 -1.99591465  7.24173485
   1.67752072  0.61366255  4.26297927
   1.67752072  0.61366255  9.69428041
   4.13500380  4.87014811  4.26297927
   4.13500380  4.87014811  9.69428041
   4.13500380 -3.64282302  4.26297927
   4.13500380 -3.64282302  9.69428041
   6.59248689  0.61366255  4.26297927
   6.59248689  0.61366255  9.69428041
   3.54475846  1.14594428  0.64211185
   3.54475846  1.14594428  6.07341299
   6.00224155  5.40242985  0.64211185
   6.00224155  5.40242985  6.07341299
   6.00224155 -3.11054129  0.64211185
   6.00224155 -3.11054129  6.07341299
   8.45972464  1.14594428  0.64211185
   8.45972464  1.14594428  6.07341299
   2.15017009  2.49687874  2.45254556
   2.15017009  2.49687874  7.88384670
   4.60765317  6.75336431  2.45254556
   4.60765317  6.75336431  7.88384670
   4.60765317 -1.75960683  2.45254556
   4.60765317 -1.75960683  7.88384670
   7.06513626  2.49687874  2.45254556
   7.06513626  2.49687874  7.88384670
   1.67752072 -0.61366255  1.16832187
   1.67752072 -0.61366255  6.59962301
   4.13500380  3.64282302  1.16832187
   4.13500380  3.64282302  6.59962301
   4.13500380 -4.87014811  1.16832187
   4.13500380 -4.87014811  6.59962301
   6.59248689 -0.61366255  1.16832187
   6.59248689 -0.61366255  6.59962301
   2.15017009 -2.49687874  2.97875558
   2.15017009 -2.49687874  8.41005672
   4.60765317  1.75960683  2.97875558
   4.60765317  1.75960683  8.41005672
   4.60765317 -6.75336431  2.97875558
   4.60765317 -6.75336431  8.41005672
   7.06513626 -2.49687874  2.97875558
   7.06513626 -2.49687874  8.41005672
   3.54475846 -1.14594428  4.78918929
   3.54475846 -1.14594428 10.22049043
   6.00224155  3.11054129  4.78918929
   6.00224155  3.11054129 10.22049043
   6.00224155 -5.40242985  4.78918929
   6.00224155 -5.40242985 10.22049043
   8.45972464 -1.14594428  4.78918929
   8.45972464 -1.14594428 10.22049043
 


--------------------------------------------------------------------------------------------------------


 k-point   1 :   0.0000 0.0000 0.0000  plane waves:   26579
 k-point   2 :   0.5000 0.0000 0.0000  plane waves:   26614
 k-point   3 :   0.5000 0.5000 0.0000  plane waves:   26614
 k-point   4 :   0.0000 0.0000 0.5000  plane waves:   26718
 k-point   5 :   0.5000 0.0000 0.5000  plane waves:   26636
 k-point   6 :   0.5000 0.5000 0.5000  plane waves:   26636

 maximum and minimum number of plane-waves per node :     26718    26579

 maximum number of plane-waves:     26718
 maximum index in each direction: 
   IXMAX=   18   IYMAX=   18   IZMAX=   20
   IXMIN=  -19   IYMIN=  -19   IZMIN=  -21


 serial   3D FFT for wavefunctions
 parallel 3D FFT for charge:
    minimum data exchange during FFTs selected (reduces bandwidth)


 total amount of memory used by VASP MPI-rank0   100515. kBytes
=======================================================================

   base      :      30000. kBytes
   nonl-proj :      50996. kBytes
   fftplans  :       1721. kBytes
   grid      :       9701. kBytes
   one-center:        218. kBytes
   wavefun   :       7879. kBytes
 
     INWAV:  cpu time      0.0000: real time      0.0002
 Broyden mixing: mesh for mixing (old mesh)
   NGX = 37   NGY = 37   NGZ = 41
  (NGX  =112   NGY  =112   NGZ  =128)
  gives a total of  56129 points

 initial charge density was supplied:
 charge density of overlapping atoms calculated
 number of electron     380.0000000 magnetization 
 keeping initial charge density in first step


--------------------------------------------------------------------------------------------------------


 Maximum index for augmentation-charges          412 (set IRDMAX)


--------------------------------------------------------------------------------------------------------


 First call to EWALD:  gamma=   0.183
 Maximum number of real-space cells 3x 3x 3
 Maximum number of reciprocal cells 3x 3x 3

    FEWALD:  cpu time      0.0018: real time      0.0019


--------------------------------------- Iteration      1(   1)  ---------------------------------------


    POTLOK:  cpu time      0.0213: real time      0.0227
    SETDIJ:  cpu time      0.0020: real time      0.0021
     EDDAV:  cpu time      3.3283: real time      3.3481
       DOS:  cpu time      0.0029: real time      0.0030
    --------------------------------------------
      LOOP:  cpu time      3.3545: real time      3.3760

 eigenvalue-minimisations  :  3456
 total energy-change (2. order) : 0.2003509E+04  (-0.2072251E+05)
 number of electron     380.0000000 magnetization 
 augmentation part      380.0000000 magnetization 

 Free energy of the ion-electron system (eV)
  ---------------------------------------------------
  alpha Z        PSCENC =       545.62548092
  Ewald energy   TEWEN  =    -14981.32895706
  -Hartree energ DENC   =     -7465.62279534
  -exchange      EXHF   =         0.00000000
  -V(xc)+E(xc)   XCENC  =      1137.16167966
  PAW double counting   =     18661.22228188   -18342.91299187
  entropy T*S    EENTRO =        -0.01518035
  eigenvalues    EBANDS =      -674.40188952
  atomic energy  EATOM  =     23123.78097148
  Solvation  Ediel_sol  =         0.00000000
  ---------------------------------------------------
  free energy    TOTEN  =      2003.50859980 eV

  energy without entropy =     2003.52378014  energy(sigma->0) =     2003.51618997


--------------------------------------------------------------------------------------------------------




--------------------------------------- Iteration      1(   2)  ---------------------------------------


     EDDAV:  cpu time      4.5337: real time      4.5528
       DOS:  cpu time      0.0035: real time      0.0036
    --------------------------------------------
      LOOP:  cpu time      4.5373: real time      4.5564

 eigenvalue-minimisations  :  4704
 total energy-change (2. order) :-0.2506571E+04  (-0.2419304E+04)
 number of electron     380.0000000 magnetization 
 augmentation part      380.0000000 magnetization 

 Free energy of the ion-electron system (eV)
  ---------------------------------------------------
  alpha Z        PSCENC =       545.62548092
  Ewald energy   TEWEN  =    -14981.32895706
  -Hartree energ DENC   =     -7465.62279534
  -exchange      EXHF   =         0.00000000
  -V(xc)+E(xc)   XCENC  =      1137.16167966
  PAW double counting   =     18661.22228188   -18342.91299187
  entropy T*S    EENTRO =        -0.01755946
  eigenvalues    EBANDS =     -3180.97099677
  atomic energy  EATOM  =     23123.78097148
  Solvation  Ediel_sol  =         0.00000000
  ---------------------------------------------------
  free energy    TOTEN  =      -503.06288657 eV

  energy without entropy =     -503.04532710  energy(sigma->0) =     -503.05410683


--------------------------------------------------------------------------------------------------------




--------------------------------------- Iteration      1(   3)  ---------------------------------------


     EDDAV:  cpu time      4.6353: real time      4.6549
       DOS:  cpu time      0.0026: real time      0.0026
    --------------------------------------------
      LOOP:  cpu time      4.6379: real time      4.6575

 eigenvalue-minimisations  :  4608
 total energy-change (2. order) :-0.1149110E+03  (-0.1144656E+03)
 number of electron     380.0000000 magnetization 
 augmentation part      380.0000000 magnetization 

 Free energy of the ion-electron system (eV)
  ---------------------------------------------------
  alpha Z        PSCENC =       545.62548092
  Ewald energy   TEWEN  =    -14981.32895706
  -Hartree energ DENC   =     -7465.62279534
  -exchange      EXHF   =         0.00000000
  -V(xc)+E(xc)   XCENC  =      1137.16167966
  PAW double counting   =     18661.22228188   -18342.91299187
  entropy T*S    EENTRO =        -0.04635248
  eigenvalues    EBANDS =     -3295.85318075
  atomic energy  EATOM  =     23123.78097148
  Solvation  Ediel_sol  =         0.00000000
  ---------------------------------------------------
  free energy    TOTEN  =      -617.97386357 eV

  energy without entropy =     -617.92751109  energy(sigma->0) =     -617.95068733


--------------------------------------------------------------------------------------------------------




--------------------------------------- Iteration      1(   4)  ---------------------------------------


     EDDAV:  cpu time      6.2660: real time      6.2882
       DOS:  cpu time      0.0024: real time      0.0024
    --------------------------------------------
      LOOP:  cpu time      6.2685: real time      6.2907

 eigenvalue-minimisations  :  3936
 total energy-change (2. order) :-0.9996320E+00  (-0.9994840E+00)
 number of electron     380.0000000 magnetization 
 augmentation part      380.0000000 magnetization 

 Free energy of the ion-electron system (eV)
  ---------------------------------------------------
  alpha Z        PSCENC =       545.62548092
  Ewald energy   TEWEN  =    -14981.32895706
  -Hartree energ DENC   =     -7465.62279534
  -exchange      EXHF   =         0.00000000
  -V(xc)+E(xc)   XCENC  =      1137.16167966
  PAW double counting   =     18661.22228188   -18342.91299187
  entropy T*S    EENTRO =        -0.04630439
  eigenvalues    EBANDS =     -3296.85286086
  atomic energy  EATOM  =     23123.78097148
  Solvation  Ediel_sol  =         0.00000000
  ---------------------------------------------------
  free energy    TOTEN  =      -618.97349558 eV

  energy without entropy =     -618.92719120  energy(sigma->0) =     -618.95034339


--------------------------------------------------------------------------------------------------------




--------------------------------------- Iteration      1(   5)  ---------------------------------------


     EDDAV:  cpu time      4.9467: real time      4.9694
       DOS:  cpu time      0.0031: real time      0.0031
    CHARGE:  cpu time      0.0433: real time      0.0438
    MIXING:  cpu time      0.0013: real time      0.0018
    --------------------------------------------
      LOOP:  cpu time      4.9944: real time      5.0181

 eigenvalue-minimisations  :  4608
 total energy-change (2. order) :-0.1123978E-01  (-0.1123862E-01)
 number of electron     383.0000059 magnetization 
 augmentation part       35.7201137 magnetization 

 Broyden mixing:
  rms(total) = 0.71422E+01    rms(broyden)= 0.71406E+01
  rms(prec ) = 0.83138E+01
  weight for this iteration     100.00

 Free energy of the ion-electron system (eV)
  ---------------------------------------------------
  alpha Z        PSCENC =       545.62548092
  Ewald energy   TEWEN  =    -14981.32895706
  -Hartree energ DENC   =     -7465.62279534
  -exchange      EXHF   =         0.00000000
  -V(xc)+E(xc)   XCENC  =      1137.16167966
  PAW double counting   =     18661.22228188   -18342.91299187
  entropy T*S    EENTRO =        -0.04630312
  eigenvalues    EBANDS =     -3296.86410191
  atomic energy  EATOM  =     23123.78097148
  Solvation  Ediel_sol  =         0.00000000
  ---------------------------------------------------
  free energy    TOTEN  =      -618.98473536 eV

  energy without entropy =     -618.93843225  energy(sigma->0) =     -618.96158380


--------------------------------------------------------------------------------------------------------




--------------------------------------- Iteration      1(   6)  ---------------------------------------


    POTLOK:  cpu time      0.0131: real time      0.0132
    SETDIJ:  cpu time      0.0015: real time      0.0016
     EDDAV:  cpu time      4.4581: real time      4.4770
       DOS:  cpu time      0.0031: real time      0.0031
    CHARGE:  cpu time      0.0412: real time      0.0415
    MIXING:  cpu time      0.0006: real time      0.0007
    --------------------------------------------
      LOOP:  cpu time      4.5177: real time      4.5369

 eigenvalue-minimisations  :  4512
 total energy-change (2. order) : 0.5963781E+02  (-0.6301822E+01)
 number of electron     383.0000054 magnetization 
 augmentation part       32.1883540 magnetization 

 Broyden mixing:
  rms(total) = 0.49035E+01    rms(broyden)= 0.49034E+01
  rms(prec ) = 0.54644E+01
  weight for this iteration     100.00

 eigenvalues of (default mixing * dielectric matrix)
  average eigenvalue GAMMA=   2.2651
  2.2651

 Free energy of the ion-electron system (eV)
  ---------------------------------------------------
  alpha Z        PSCENC =       545.62548092
  Ewald energy   TEWEN  =    -14981.32895706
  -Hartree energ DENC   =     -7889.40129899
  -exchange      EXHF   =         0.00000000
  -V(xc)+E(xc)   XCENC  =      1175.07507764
  PAW double counting   =     24519.81834899   -24210.02042990
  entropy T*S    EENTRO =        -0.04759303
  eigenvalues    EBANDS =     -2842.84852388
  atomic energy  EATOM  =     23123.78097148
  Solvation  Ediel_sol  =         0.00000000
  ---------------------------------------------------
  free energy    TOTEN  =      -559.34692383 eV

  energy without entropy =     -559.29933080  energy(sigma->0) =     -559.32312732


--------------------------------------------------------------------------------------------------------




--------------------------------------- Iteration      1(   7)  ---------------------------------------


    POTLOK:  cpu time      0.0116: real time      0.0120
    SETDIJ:  cpu time      0.0014: real time      0.0014
     EDDAV:  cpu time      4.6385: real time      4.6579
       DOS:  cpu time      0.0029: real time      0.0030
    CHARGE:  cpu time      0.0431: real time      0.0433
    MIXING:  cpu time      0.0006: real time      0.0006
    --------------------------------------------
      LOOP:  cpu time      4.6982: real time      4.7182

 eigenvalue-minimisations  :  4608
 total energy-change (2. order) : 0.2206881E+02  (-0.9386587E+01)
 number of electron     383.0000048 magnetization 
 augmentation part       27.9513264 magnetization 

 Broyden mixing:
  rms(total) = 0.21340E+01    rms(broyden)= 0.21334E+01
  rms(prec ) = 0.22466E+01
  weight for this iteration     100.00

 eigenvalues of (default mixing * dielectric matrix)
  average eigenvalue GAMMA=   2.2234
  2.2234  2.2234

 Free energy of the ion-electron system (eV)
  ---------------------------------------------------
  alpha Z        PSCENC =       545.62548092
  Ewald energy   TEWEN  =    -14981.32895706
  -Hartree energ DENC   =     -8426.87896094
  -exchange      EXHF   =         0.00000000
  -V(xc)+E(xc)   XCENC  =      1211.47899438
  PAW double counting   =     41765.56550537   -41465.67162711
  entropy T*S    EENTRO =        -0.04551273
  eigenvalues    EBANDS =     -2309.80401238
  atomic energy  EATOM  =     23123.78097148
  Solvation  Ediel_sol  =         0.00000000
  ---------------------------------------------------
  free energy    TOTEN  =      -537.27811808 eV

  energy without entropy =     -537.23260535  energy(sigma->0) =     -537.25536171


--------------------------------------------------------------------------------------------------------




--------------------------------------- Iteration      1(   8)  ---------------------------------------


    POTLOK:  cpu time      0.0118: real time      0.0122
    SETDIJ:  cpu time      0.0014: real time      0.0014
     EDDAV:  cpu time      4.0926: real time      4.1096
       DOS:  cpu time      0.0028: real time      0.0028
    CHARGE:  cpu time      0.0405: real time      0.0407
    MIXING:  cpu time      0.0005: real time      0.0005
    --------------------------------------------
      LOOP:  cpu time      4.1497: real time      4.1672

 eigenvalue-minimisations  :  4224
 total energy-change (2. order) : 0.4280533E+00  (-0.4865498E+00)
 number of electron     383.0000048 magnetization 
 augmentation part       28.4147255 magnetization 

 Broyden mixing:
  rms(total) = 0.95191E+00    rms(broyden)= 0.95188E+00
  rms(prec ) = 0.10655E+01
  weight for this iteration     100.00

 eigenvalues of (default mixing * dielectric matrix)
  average eigenvalue GAMMA=   2.1654
  0.9764  3.2623  2.2575

 Free energy of the ion-electron system (eV)
  ---------------------------------------------------
  alpha Z        PSCENC =       545.62548092
  Ewald energy   TEWEN  =    -14981.32895706
  -Hartree energ DENC   =     -8406.51014076
  -exchange      EXHF   =         0.00000000
  -V(xc)+E(xc)   XCENC  =      1210.33331188
  PAW double counting   =     51315.73676433   -51014.41713852
  entropy T*S    EENTRO =        -0.04645492
  eigenvalues    EBANDS =     -2330.02390208
  atomic energy  EATOM  =     23123.78097148
  Solvation  Ediel_sol  =         0.00000000
  ---------------------------------------------------
  free energy    TOTEN  =      -536.85006473 eV

  energy without entropy =     -536.80360981  energy(sigma->0) =     -536.82683727


--------------------------------------------------------------------------------------------------------




--------------------------------------- Iteration      1(   9)  ---------------------------------------


    POTLOK:  cpu time      0.0107: real time      0.0111
    SETDIJ:  cpu time      0.0014: real time      0.0014
     EDDAV:  cpu time      4.5912: real time      4.6099
       DOS:  cpu time      0.0031: real time      0.0031
    CHARGE:  cpu time      0.0398: real time      0.0400
    MIXING:  cpu time      0.0006: real time      0.0010
    --------------------------------------------
      LOOP:  cpu time      4.6469: real time      4.6666

 eigenvalue-minimisations  :  4608
 total energy-change (2. order) : 0.2360510E+00  (-0.1185805E+00)
 number of electron     383.0000048 magnetization 
 augmentation part       28.3774453 magnetization 

 Broyden mixing:
  rms(total) = 0.44034E+00    rms(broyden)= 0.44030E+00
  rms(prec ) = 0.51219E+00
  weight for this iteration     100.00

 eigenvalues of (default mixing * dielectric matrix)
  average eigenvalue GAMMA=   2.1689
  4.5640  1.9905  1.3851  0.7362

 Free energy of the ion-electron system (eV)
  ---------------------------------------------------
  alpha Z        PSCENC =       545.62548092
  Ewald energy   TEWEN  =    -14981.32895706
  -Hartree energ DENC   =     -8445.97629158
  -exchange      EXHF   =         0.00000000
  -V(xc)+E(xc)   XCENC  =      1213.23129542
  PAW double counting   =     58114.93504273   -57813.93521029
  entropy T*S    EENTRO =        -0.04839463
  eigenvalues    EBANDS =     -2292.89795068
  atomic energy  EATOM  =     23123.78097148
  Solvation  Ediel_sol  =         0.00000000
  ---------------------------------------------------
  free energy    TOTEN  =      -536.61401369 eV

  energy without entropy =     -536.56561905  energy(sigma->0) =     -536.58981637


--------------------------------------------------------------------------------------------------------




--------------------------------------- Iteration      1(  10)  ---------------------------------------


    POTLOK:  cpu time      0.0120: real time      0.0123
    SETDIJ:  cpu time      0.0016: real time      0.0016
     EDDAV:  cpu time      4.5680: real time      4.5868
       DOS:  cpu time      0.0029: real time      0.0029
    CHARGE:  cpu time      0.0404: real time      0.0405
    MIXING:  cpu time      0.0006: real time      0.0006
    --------------------------------------------
      LOOP:  cpu time      4.6253: real time      4.6447

 eigenvalue-minimisations  :  4608
 total energy-change (2. order) : 0.4136772E-01  (-0.3887222E-01)
 number of electron     383.0000048 magnetization 
 augmentation part       28.2347371 magnetization 

 Broyden mixing:
  rms(total) = 0.20380E+00    rms(broyden)= 0.20376E+00
  rms(prec ) = 0.21847E+00
  weight for this iteration     100.00

 eigenvalues of (default mixing * dielectric matrix)
  average eigenvalue GAMMA=   2.1055
  4.9622  1.9811  1.9811  0.8014  0.8014

 Free energy of the ion-electron system (eV)
  ---------------------------------------------------
  alpha Z        PSCENC =       545.62548092
  Ewald energy   TEWEN  =    -14981.32895706
  -Hartree energ DENC   =     -8491.41480006
  -exchange      EXHF   =         0.00000000
  -V(xc)+E(xc)   XCENC  =      1216.58600104
  PAW double counting   =     63814.24077746   -63513.76421948
  entropy T*S    EENTRO =        -0.04764281
  eigenvalues    EBANDS =     -2250.25025746
  atomic energy  EATOM  =     23123.78097148
  Solvation  Ediel_sol  =         0.00000000
  ---------------------------------------------------
  free energy    TOTEN  =      -536.57264597 eV

  energy without entropy =     -536.52500316  energy(sigma->0) =     -536.54882457


--------------------------------------------------------------------------------------------------------




--------------------------------------- Iteration      1(  11)  ---------------------------------------


    POTLOK:  cpu time      0.0106: real time      0.0109
    SETDIJ:  cpu time      0.0015: real time      0.0015
     EDDAV:  cpu time      4.9088: real time      4.9286
       DOS:  cpu time      0.0031: real time      0.0031
    CHARGE:  cpu time      0.0411: real time      0.0413
    MIXING:  cpu time      0.0007: real time      0.0007
    --------------------------------------------
      LOOP:  cpu time      4.9657: real time      4.9860

 eigenvalue-minimisations  :  4992
 total energy-change (2. order) :-0.2490574E-01  (-0.6098407E-02)
 number of electron     383.0000048 magnetization 
 augmentation part       28.2017340 magnetization 

 Broyden mixing:
  rms(total) = 0.17337E+00    rms(broyden)= 0.17336E+00
  rms(prec ) = 0.17956E+00
  weight for this iteration     100.00

 eigenvalues of (default mixing * dielectric matrix)
  average eigenvalue GAMMA=   2.0388
  5.0272  2.5323  2.0867  0.9395  0.9395  0.7076

 Free energy of the ion-electron system (eV)
  ---------------------------------------------------
  alpha Z        PSCENC =       545.62548092
  Ewald energy   TEWEN  =    -14981.32895706
  -Hartree energ DENC   =     -8501.15547705
  -exchange      EXHF   =         0.00000000
  -V(xc)+E(xc)   XCENC  =      1217.30659975
  PAW double counting   =     64198.69371748   -63898.34341224
  entropy T*S    EENTRO =        -0.04783950
  eigenvalues    EBANDS =     -2241.12863550
  atomic energy  EATOM  =     23123.78097148
  Solvation  Ediel_sol  =         0.00000000
  ---------------------------------------------------
  free energy    TOTEN  =      -536.59755172 eV

  energy without entropy =     -536.54971221  energy(sigma->0) =     -536.57363196


--------------------------------------------------------------------------------------------------------




--------------------------------------- Iteration      1(  12)  ---------------------------------------


    POTLOK:  cpu time      0.0129: real time      0.0132
    SETDIJ:  cpu time      0.0015: real time      0.0015
     EDDAV:  cpu time      4.5913: real time      4.6105
       DOS:  cpu time      0.0024: real time      0.0024
    CHARGE:  cpu time      0.0413: real time      0.0415
    MIXING:  cpu time      0.0007: real time      0.0007
    --------------------------------------------
      LOOP:  cpu time      4.6501: real time      4.6698

 eigenvalue-minimisations  :  4608
 total energy-change (2. order) :-0.7545505E-02  (-0.5786696E-03)
 number of electron     383.0000048 magnetization 
 augmentation part       28.2202655 magnetization 

 Broyden mixing:
  rms(total) = 0.10266E+00    rms(broyden)= 0.10266E+00
  rms(prec ) = 0.10696E+00
  weight for this iteration     100.00

 eigenvalues of (default mixing * dielectric matrix)
  average eigenvalue GAMMA=   2.2664
  5.1570  4.6483  1.9923  1.3610  0.9908  0.9908  0.7246

 Free energy of the ion-electron system (eV)
  ---------------------------------------------------
  alpha Z        PSCENC =       545.62548092
  Ewald energy   TEWEN  =    -14981.32895706
  -Hartree energ DENC   =     -8500.77995159
  -exchange      EXHF   =         0.00000000
  -V(xc)+E(xc)   XCENC  =      1217.26910861
  PAW double counting   =     63447.22914884   -63146.87107588
  entropy T*S    EENTRO =        -0.04793645
  eigenvalues    EBANDS =     -2241.48188608
  atomic energy  EATOM  =     23123.78097148
  Solvation  Ediel_sol  =         0.00000000
  ---------------------------------------------------
  free energy    TOTEN  =      -536.60509722 eV

  energy without entropy =     -536.55716077  energy(sigma->0) =     -536.58112899


--------------------------------------------------------------------------------------------------------




--------------------------------------- Iteration      1(  13)  ---------------------------------------


    POTLOK:  cpu time      0.0117: real time      0.0120
    SETDIJ:  cpu time      0.0014: real time      0.0015
     EDDAV:  cpu time      4.6016: real time      4.6203
       DOS:  cpu time      0.0027: real time      0.0027
    CHARGE:  cpu time      0.0398: real time      0.0400
    MIXING:  cpu time      0.0006: real time      0.0006
    --------------------------------------------
      LOOP:  cpu time      4.6579: real time      4.6771

 eigenvalue-minimisations  :  4608
 total energy-change (2. order) :-0.7404863E-02  (-0.1010268E-02)
 number of electron     383.0000048 magnetization 
 augmentation part       28.2366250 magnetization 

 Broyden mixing:
  rms(total) = 0.19485E-01    rms(broyden)= 0.19465E-01
  rms(prec ) = 0.22020E-01
  weight for this iteration     100.00

 eigenvalues of (default mixing * dielectric matrix)
  average eigenvalue GAMMA=   2.1851
  5.3151  4.6180  1.9853  1.7760  1.0791  1.0791  0.7310  0.8970

 Free energy of the ion-electron system (eV)
  ---------------------------------------------------
  alpha Z        PSCENC =       545.62548092
  Ewald energy   TEWEN  =    -14981.32895706
  -Hartree energ DENC   =     -8500.87269720
  -exchange      EXHF   =         0.00000000
  -V(xc)+E(xc)   XCENC  =      1217.24420249
  PAW double counting   =     62159.44390187   -61859.08998435
  entropy T*S    EENTRO =        -0.04802704
  eigenvalues    EBANDS =     -2241.36739320
  atomic energy  EATOM  =     23123.78097148
  Solvation  Ediel_sol  =         0.00000000
  ---------------------------------------------------
  free energy    TOTEN  =      -536.61250208 eV

  energy without entropy =     -536.56447505  energy(sigma->0) =     -536.58848857


--------------------------------------------------------------------------------------------------------




--------------------------------------- Iteration      1(  14)  ---------------------------------------


    POTLOK:  cpu time      0.0104: real time      0.0108
    SETDIJ:  cpu time      0.0014: real time      0.0014
     EDDAV:  cpu time      4.4454: real time      4.4631
       DOS:  cpu time      0.0029: real time      0.0029
    CHARGE:  cpu time      0.0398: real time      0.0400
    MIXING:  cpu time      0.0007: real time      0.0007
    --------------------------------------------
      LOOP:  cpu time      4.5006: real time      4.5188

 eigenvalue-minimisations  :  4512
 total energy-change (2. order) :-0.5337284E-03  (-0.1625146E-03)
 number of electron     383.0000048 magnetization 
 augmentation part       28.2353762 magnetization 

 Broyden mixing:
  rms(total) = 0.16996E-01    rms(broyden)= 0.16995E-01
  rms(prec ) = 0.18193E-01
  weight for this iteration     100.00

 eigenvalues of (default mixing * dielectric matrix)
  average eigenvalue GAMMA=   2.0129
  5.2725  4.5996  1.9354  1.9354  1.0886  1.0886  0.8852  0.7320  0.5789

 Free energy of the ion-electron system (eV)
  ---------------------------------------------------
  alpha Z        PSCENC =       545.62548092
  Ewald energy   TEWEN  =    -14981.32895706
  -Hartree energ DENC   =     -8501.49329838
  -exchange      EXHF   =         0.00000000
  -V(xc)+E(xc)   XCENC  =      1217.28532269
  PAW double counting   =     62180.56250594   -61880.20278452
  entropy T*S    EENTRO =        -0.04804629
  eigenvalues    EBANDS =     -2240.79423059
  atomic energy  EATOM  =     23123.78097148
  Solvation  Ediel_sol  =         0.00000000
  ---------------------------------------------------
  free energy    TOTEN  =      -536.61303581 eV

  energy without entropy =     -536.56498952  energy(sigma->0) =     -536.58901267


--------------------------------------------------------------------------------------------------------




--------------------------------------- Iteration      1(  15)  ---------------------------------------


    POTLOK:  cpu time      0.0107: real time      0.0110
    SETDIJ:  cpu time      0.0015: real time      0.0015
     EDDAV:  cpu time      4.5861: real time      4.6053
       DOS:  cpu time      0.0027: real time      0.0027
    CHARGE:  cpu time      0.0422: real time      0.0424
    MIXING:  cpu time      0.0006: real time      0.0006
    --------------------------------------------
      LOOP:  cpu time      4.6438: real time      4.6636

 eigenvalue-minimisations  :  4608
 total energy-change (2. order) :-0.7261716E-04  (-0.1272303E-04)
 number of electron     383.0000048 magnetization 
 augmentation part       28.2348592 magnetization 

 Broyden mixing:
  rms(total) = 0.13433E-01    rms(broyden)= 0.13433E-01
  rms(prec ) = 0.14535E-01
  weight for this iteration     100.00

 eigenvalues of (default mixing * dielectric matrix)
  average eigenvalue GAMMA=   2.1165
  5.4915  4.7152  1.8842  1.8842  1.7851  1.7851  1.0054  1.0054  0.7322  0.8764

 Free energy of the ion-electron system (eV)
  ---------------------------------------------------
  alpha Z        PSCENC =       545.62548092
  Ewald energy   TEWEN  =    -14981.32895706
  -Hartree energ DENC   =     -8501.53881712
  -exchange      EXHF   =         0.00000000
  -V(xc)+E(xc)   XCENC  =      1217.28874058
  PAW double counting   =     62217.17698525   -61916.81203539
  entropy T*S    EENTRO =        -0.04804837
  eigenvalues    EBANDS =     -2240.75742871
  atomic energy  EATOM  =     23123.78097148
  Solvation  Ediel_sol  =         0.00000000
  ---------------------------------------------------
  free energy    TOTEN  =      -536.61310843 eV

  energy without entropy =     -536.56506006  energy(sigma->0) =     -536.58908425


--------------------------------------------------------------------------------------------------------




--------------------------------------- Iteration      1(  16)  ---------------------------------------


    POTLOK:  cpu time      0.0112: real time      0.0116
    SETDIJ:  cpu time      0.0014: real time      0.0014
     EDDAV:  cpu time      7.4684: real time      7.4963
       DOS:  cpu time      0.0029: real time      0.0030
    CHARGE:  cpu time      0.0411: real time      0.0413
    MIXING:  cpu time      0.0009: real time      0.0009
    --------------------------------------------
      LOOP:  cpu time      7.5260: real time      7.5544

 eigenvalue-minimisations  :  4608
 total energy-change (2. order) :-0.2731396E-03  (-0.2201585E-04)
 number of electron     383.0000048 magnetization 
 augmentation part       28.2346240 magnetization 

 Broyden mixing:
  rms(total) = 0.88584E-02    rms(broyden)= 0.88582E-02
  rms(prec ) = 0.92579E-02
  weight for this iteration     100.00

 eigenvalues of (default mixing * dielectric matrix)
  average eigenvalue GAMMA=   2.1975
  5.2194  4.9661  4.4806  2.0319  1.5606  1.1846  1.1846  0.9794  0.9794  0.7328
  0.8530

 Free energy of the ion-electron system (eV)
  ---------------------------------------------------
  alpha Z        PSCENC =       545.62548092
  Ewald energy   TEWEN  =    -14981.32895706
  -Hartree energ DENC   =     -8501.67522115
  -exchange      EXHF   =         0.00000000
  -V(xc)+E(xc)   XCENC  =      1217.29798361
  PAW double counting   =     62238.51136955   -61938.13286142
  entropy T*S    EENTRO =        -0.04804369
  eigenvalues    EBANDS =     -2240.64410380
  atomic energy  EATOM  =     23123.78097148
  Solvation  Ediel_sol  =         0.00000000
  ---------------------------------------------------
  free energy    TOTEN  =      -536.61338157 eV

  energy without entropy =     -536.56533788  energy(sigma->0) =     -536.58935972


--------------------------------------------------------------------------------------------------------




--------------------------------------- Iteration      1(  17)  ---------------------------------------


    POTLOK:  cpu time      0.0141: real time      0.0145
    SETDIJ:  cpu time      0.0014: real time      0.0014
     EDDAV:  cpu time      4.8295: real time      4.8506
       DOS:  cpu time      0.0033: real time      0.0033
    CHARGE:  cpu time      0.0755: real time      0.0758
    MIXING:  cpu time      0.0011: real time      0.0011
    --------------------------------------------
      LOOP:  cpu time      4.9249: real time      4.9467

 eigenvalue-minimisations  :  4608
 total energy-change (2. order) :-0.7956252E-04  (-0.1253378E-04)
 number of electron     383.0000048 magnetization 
 augmentation part       28.2329618 magnetization 

 Broyden mixing:
  rms(total) = 0.17980E-02    rms(broyden)= 0.17970E-02
  rms(prec ) = 0.22633E-02
  weight for this iteration     100.00

 eigenvalues of (default mixing * dielectric matrix)
  average eigenvalue GAMMA=   2.2131
  5.7591  4.9847  3.9095  2.0301  1.9799  1.9799  1.1730  1.1730  0.7324  0.9795
  0.9795  0.8767

 Free energy of the ion-electron system (eV)
  ---------------------------------------------------
  alpha Z        PSCENC =       545.62548092
  Ewald energy   TEWEN  =    -14981.32895706
  -Hartree energ DENC   =     -8501.87188689
  -exchange      EXHF   =         0.00000000
  -V(xc)+E(xc)   XCENC  =      1217.31184661
  PAW double counting   =     62325.80694204   -62025.41825875
  entropy T*S    EENTRO =        -0.04803807
  eigenvalues    EBANDS =     -2240.47156141
  atomic energy  EATOM  =     23123.78097148
  Solvation  Ediel_sol  =         0.00000000
  ---------------------------------------------------
  free energy    TOTEN  =      -536.61346113 eV

  energy without entropy =     -536.56542306  energy(sigma->0) =     -536.58944210


--------------------------------------------------------------------------------------------------------




--------------------------------------- Iteration      1(  18)  ---------------------------------------


    POTLOK:  cpu time      0.0153: real time      0.0156
    SETDIJ:  cpu time      0.0041: real time      0.0041
     EDDAV:  cpu time      4.3247: real time      4.3427
       DOS:  cpu time      0.0027: real time      0.0027
    CHARGE:  cpu time      0.0406: real time      0.0408
    MIXING:  cpu time      0.0008: real time      0.0008
    --------------------------------------------
      LOOP:  cpu time      4.3882: real time      4.4067

 eigenvalue-minimisations  :  4416
 total energy-change (2. order) :-0.8100156E-05  (-0.4148319E-05)
 number of electron     383.0000048 magnetization 
 augmentation part       28.2332963 magnetization 

 Broyden mixing:
  rms(total) = 0.15240E-02    rms(broyden)= 0.15238E-02
  rms(prec ) = 0.17278E-02
  weight for this iteration     100.00

 eigenvalues of (default mixing * dielectric matrix)
  average eigenvalue GAMMA=   2.1643
  5.7875  5.0205  3.8928  2.5320  1.9655  1.5357  1.5357  1.2769  0.7321  1.0011
  1.0011  0.9274  0.9274

 Free energy of the ion-electron system (eV)
  ---------------------------------------------------
  alpha Z        PSCENC =       545.62548092
  Ewald energy   TEWEN  =    -14981.32895706
  -Hartree energ DENC   =     -8501.89246921
  -exchange      EXHF   =         0.00000000
  -V(xc)+E(xc)   XCENC  =      1217.31234362
  PAW double counting   =     62307.34836627   -62006.96086158
  entropy T*S    EENTRO =        -0.04803728
  eigenvalues    EBANDS =     -2240.45030639
  atomic energy  EATOM  =     23123.78097148
  Solvation  Ediel_sol  =         0.00000000
  ---------------------------------------------------
  free energy    TOTEN  =      -536.61346923 eV

  energy without entropy =     -536.56543195  energy(sigma->0) =     -536.58945059


--------------------------------------------------------------------------------------------------------




--------------------------------------- Iteration      1(  19)  ---------------------------------------


    POTLOK:  cpu time      0.0107: real time      0.0110
    SETDIJ:  cpu time      0.0014: real time      0.0014
     EDDAV:  cpu time      4.2969: real time      4.3141
       DOS:  cpu time      0.0030: real time      0.0030
    CHARGE:  cpu time      0.0418: real time      0.0420
    MIXING:  cpu time      0.0008: real time      0.0008
    --------------------------------------------
      LOOP:  cpu time      4.3546: real time      4.3723

 eigenvalue-minimisations  :  4416
 total energy-change (2. order) :-0.1914974E-05  (-0.1123274E-05)
 number of electron     383.0000048 magnetization 
 augmentation part       28.2331167 magnetization 

 Broyden mixing:
  rms(total) = 0.77243E-03    rms(broyden)= 0.77230E-03
  rms(prec ) = 0.87745E-03
  weight for this iteration     100.00

 eigenvalues of (default mixing * dielectric matrix)
  average eigenvalue GAMMA=   2.1088
  5.8586  5.0779  4.0759  2.2448  1.9355  1.7596  1.7596  1.3230  1.0585  1.0585
  0.7326  0.9011  0.9011  0.8359

 Free energy of the ion-electron system (eV)
  ---------------------------------------------------
  alpha Z        PSCENC =       545.62548092
  Ewald energy   TEWEN  =    -14981.32895706
  -Hartree energ DENC   =     -8501.90847822
  -exchange      EXHF   =         0.00000000
  -V(xc)+E(xc)   XCENC  =      1217.31355581
  PAW double counting   =     62314.93885040   -62014.55116579
  entropy T*S    EENTRO =        -0.04803401
  eigenvalues    EBANDS =     -2240.43569468
  atomic energy  EATOM  =     23123.78097148
  Solvation  Ediel_sol  =         0.00000000
  ---------------------------------------------------
  free energy    TOTEN  =      -536.61347115 eV

  energy without entropy =     -536.56543714  energy(sigma->0) =     -536.58945414


--------------------------------------------------------------------------------------------------------




--------------------------------------- Iteration      1(  20)  ---------------------------------------


    POTLOK:  cpu time      0.0138: real time      0.0142
    SETDIJ:  cpu time      0.0014: real time      0.0014
     EDDAV:  cpu time      4.0636: real time      4.0808
       DOS:  cpu time      0.0024: real time      0.0024
    CHARGE:  cpu time      0.0401: real time      0.0403
    MIXING:  cpu time      0.0010: real time      0.0010
    --------------------------------------------
      LOOP:  cpu time      4.1223: real time      4.1401

 eigenvalue-minimisations  :  4032
 total energy-change (2. order) :-0.1140463E-05  (-0.2335420E-06)
 number of electron     383.0000048 magnetization 
 augmentation part       28.2330005 magnetization 

 Broyden mixing:
  rms(total) = 0.45336E-03    rms(broyden)= 0.45324E-03
  rms(prec ) = 0.52661E-03
  weight for this iteration     100.00

 eigenvalues of (default mixing * dielectric matrix)
  average eigenvalue GAMMA=   2.1769
  6.0185  5.1441  4.2992  2.8031  2.8031  2.0141  1.4254  1.4254  1.1684  0.7325
  1.0430  1.0430  0.9290  0.9290  0.8752

 Free energy of the ion-electron system (eV)
  ---------------------------------------------------
  alpha Z        PSCENC =       545.62548092
  Ewald energy   TEWEN  =    -14981.32895706
  -Hartree energ DENC   =     -8501.92037871
  -exchange      EXHF   =         0.00000000
  -V(xc)+E(xc)   XCENC  =      1217.31429671
  PAW double counting   =     62318.58476594   -62018.19707447
  entropy T*S    EENTRO =        -0.04803289
  eigenvalues    EBANDS =     -2240.42454421
  atomic energy  EATOM  =     23123.78097148
  Solvation  Ediel_sol  =         0.00000000
  ---------------------------------------------------
  free energy    TOTEN  =      -536.61347229 eV

  energy without entropy =     -536.56543940  energy(sigma->0) =     -536.58945584


--------------------------------------------------------------------------------------------------------




--------------------------------------- Iteration      1(  21)  ---------------------------------------


    POTLOK:  cpu time      0.0117: real time      0.0121
    SETDIJ:  cpu time      0.0015: real time      0.0015
[...]
   0.146E+01 0.159E+01 0.674E+00   0.330E+00 -.997E+00 -.352E+01   -.111E+01 -.474E+00 0.153E+01   0.280E-04 0.176E-03 -.294E-04
   -.145E+01 0.225E+00 -.323E+01   0.205E+01 -.384E-02 0.411E+01   -.923E-01 -.110E+00 -.206E+00   -.141E-05 -.104E-03 0.510E-04
   0.167E+01 -.183E+01 0.520E+01   -.292E+01 0.252E+01 -.740E+01   0.295E+00 -.121E+00 0.660E+00   -.266E-04 0.162E-03 0.341E-04
   0.744E+01 -.331E+01 -.208E+01   -.778E+01 0.135E+02 0.138E+02   -.305E+00 -.635E+01 -.719E+01   0.626E-05 0.325E-04 -.311E-04
   0.810E+00 0.328E+01 0.229E+01   -.318E+01 -.302E+01 -.405E+01   0.118E+01 -.271E+00 0.738E+00   0.594E-04 -.149E-03 -.718E-04
   0.514E+01 0.492E+01 -.414E+01   -.625E+01 -.479E+01 0.506E+01   0.136E+00 -.408E+00 -.299E-01   -.514E-04 0.216E-04 0.114E-03
   -.395E+01 -.254E+01 0.737E+01   0.886E+01 0.153E+02 -.138E+02   -.267E+01 -.825E+01 0.347E+01   0.125E-03 0.119E-03 -.728E-04
   0.313E+00 -.594E+01 -.501E+01   0.175E+01 0.557E+01 0.740E+01   -.105E+01 0.711E+00 -.722E+00   -.647E-04 0.174E-03 -.700E-05
   0.744E+01 0.331E+01 0.208E+01   -.778E+01 -.135E+02 -.138E+02   -.305E+00 0.635E+01 0.719E+01   0.626E-05 -.325E-04 0.311E-04
   0.167E+01 0.183E+01 -.520E+01   -.292E+01 -.252E+01 0.740E+01   0.295E+00 0.121E+00 -.660E+00   -.266E-04 -.162E-03 -.341E-04
   -.145E+01 -.225E+00 0.323E+01   0.205E+01 0.384E-02 -.411E+01   -.923E-01 0.110E+00 0.206E+00   -.141E-05 0.104E-03 -.510E-04
   0.146E+01 -.159E+01 -.674E+00   0.330E+00 0.997E+00 0.352E+01   -.111E+01 0.474E+00 -.153E+01   0.280E-04 -.176E-03 0.294E-04
   0.514E+01 -.492E+01 0.414E+01   -.625E+01 0.479E+01 -.506E+01   0.136E+00 0.408E+00 0.299E-01   -.514E-04 -.216E-04 -.114E-03
   0.810E+00 -.328E+01 -.229E+01   -.318E+01 0.302E+01 0.405E+01   0.118E+01 0.271E+00 -.738E+00   0.594E-04 0.149E-03 0.718E-04
   0.401E+02 0.589E+02 0.410E+02   -.480E+02 -.756E+02 -.534E+02   0.775E+01 0.166E+02 0.129E+02   0.446E-04 -.179E-03 0.161E-03
   -.105E+02 0.917E+02 -.341E+02   0.236E+02 -.123E+03 0.519E+02   -.142E+02 0.323E+02 -.194E+02   -.213E-03 -.572E-04 -.762E-04
   0.423E+02 0.577E+02 0.350E+02   -.504E+02 -.738E+02 -.464E+02   0.798E+01 0.157E+02 0.117E+02   0.222E-03 0.174E-03 0.205E-03
   0.407E+02 0.578E+02 0.288E+02   -.489E+02 -.742E+02 -.383E+02   0.787E+01 0.164E+02 0.886E+01   -.137E-03 -.493E-04 -.797E-04
   0.431E+02 0.555E+02 0.359E+02   -.519E+02 -.713E+02 -.471E+02   0.889E+01 0.153E+02 0.114E+02   0.113E-03 -.312E-04 0.142E-03
   0.459E+02 0.506E+02 0.277E+02   -.548E+02 -.636E+02 -.366E+02   0.928E+01 0.110E+02 0.869E+01   0.134E-03 -.316E-03 0.196E-03
   0.443E+02 0.581E+02 0.359E+02   -.533E+02 -.742E+02 -.470E+02   0.909E+01 0.157E+02 0.112E+02   0.319E-05 -.135E-03 0.192E-03
   0.505E+02 0.591E+02 0.273E+02   -.607E+02 -.756E+02 -.369E+02   0.103E+02 0.164E+02 0.921E+01   0.629E-04 0.512E-04 -.260E-03
   -.179E+02 0.725E+02 0.692E+02   0.141E+02 -.996E+02 -.953E+02   0.480E+01 0.289E+02 0.274E+02   -.114E-03 -.202E-03 -.300E-03
   -.695E+02 0.105E+02 0.278E+02   0.872E+02 -.993E+01 -.376E+02   -.173E+02 -.638E+00 0.936E+01   0.726E-04 -.131E-03 -.139E-03
   -.782E+02 -.597E+01 0.369E+02   0.978E+02 0.103E+02 -.479E+02   -.200E+02 -.599E+01 0.105E+02   0.181E-04 -.780E-04 -.219E-04
   -.719E+02 0.587E+01 0.302E+02   0.905E+02 -.484E+01 -.400E+02   -.186E+02 -.134E+01 0.932E+01   -.223E-03 -.946E-04 -.714E-04
   -.670E+02 0.562E+01 0.341E+02   0.844E+02 -.468E+01 -.456E+02   -.168E+02 -.844E+00 0.118E+02   0.148E-03 -.958E-04 -.956E-04
   -.705E+02 0.769E+01 0.308E+02   0.882E+02 -.691E+01 -.407E+02   -.173E+02 -.955E+00 0.945E+01   -.294E-03 0.594E-04 0.354E-04
   -.788E+02 0.112E+02 0.350E+02   0.989E+02 -.110E+02 -.461E+02   -.201E+02 -.106E+00 0.112E+02   0.104E-03 0.231E-03 0.475E-04
   -.724E+02 0.887E+01 0.307E+02   0.910E+02 -.812E+01 -.405E+02   -.186E+02 -.933E+00 0.937E+01   -.136E-03 -.217E-03 0.562E-04
   0.267E+02 -.533E+02 0.463E+02   -.354E+02 0.655E+02 -.603E+02   0.737E+01 -.113E+02 0.156E+02   -.372E-03 -.327E-04 0.235E-03
   0.265E+02 -.579E+02 0.207E+02   -.363E+02 0.703E+02 -.281E+02   0.105E+02 -.109E+02 0.554E+01   0.284E-03 -.108E-03 -.134E-03
   0.226E+02 -.692E+02 0.406E+02   -.295E+02 0.863E+02 -.533E+02   0.485E+01 -.177E+02 0.140E+02   -.292E-03 0.111E-04 0.286E-03
   0.231E+02 -.689E+02 0.242E+02   -.317E+02 0.849E+02 -.333E+02   0.821E+01 -.159E+02 0.856E+01   -.449E-04 0.370E-05 -.968E-04
   0.376E+02 -.740E+02 0.458E+02   -.495E+02 0.909E+02 -.590E+02   0.122E+02 -.170E+02 0.137E+02   -.164E-03 0.435E-05 0.195E-03
   0.350E+02 -.711E+02 0.224E+02   -.461E+02 0.879E+02 -.290E+02   0.125E+02 -.169E+02 0.437E+01   0.408E-03 0.137E-03 -.479E-03
   0.293E+02 -.646E+02 0.373E+02   -.397E+02 0.801E+02 -.487E+02   0.104E+02 -.153E+02 0.116E+02   -.798E-04 0.687E-04 0.602E-04
   0.298E+02 -.648E+02 0.276E+02   -.394E+02 0.803E+02 -.371E+02   0.953E+01 -.152E+02 0.888E+01   0.228E-03 -.186E-03 -.620E-04
   -.105E+02 -.917E+02 0.341E+02   0.236E+02 0.123E+03 -.519E+02   -.142E+02 -.323E+02 0.194E+02   -.213E-03 0.572E-04 0.762E-04
   0.401E+02 -.589E+02 -.410E+02   -.480E+02 0.756E+02 0.534E+02   0.775E+01 -.166E+02 -.129E+02   0.446E-04 0.179E-03 -.161E-03
   0.459E+02 -.506E+02 -.277E+02   -.548E+02 0.636E+02 0.366E+02   0.928E+01 -.110E+02 -.869E+01   0.134E-03 0.316E-03 -.196E-03
   0.431E+02 -.555E+02 -.359E+02   -.519E+02 0.713E+02 0.471E+02   0.889E+01 -.153E+02 -.114E+02   0.113E-03 0.312E-04 -.142E-03
   0.407E+02 -.578E+02 -.288E+02   -.489E+02 0.742E+02 0.383E+02   0.787E+01 -.164E+02 -.886E+01   -.137E-03 0.493E-04 0.797E-04
   0.423E+02 -.577E+02 -.350E+02   -.504E+02 0.738E+02 0.464E+02   0.798E+01 -.157E+02 -.117E+02   0.222E-03 -.174E-03 -.205E-03
   0.505E+02 -.591E+02 -.273E+02   -.607E+02 0.756E+02 0.369E+02   0.103E+02 -.164E+02 -.921E+01   0.629E-04 -.512E-04 0.260E-03
   0.443E+02 -.581E+02 -.359E+02   -.533E+02 0.742E+02 0.470E+02   0.909E+01 -.157E+02 -.112E+02   0.319E-05 0.135E-03 -.192E-03
   0.265E+02 0.579E+02 -.207E+02   -.363E+02 -.703E+02 0.281E+02   0.105E+02 0.109E+02 -.554E+01   0.284E-03 0.108E-03 0.134E-03
   0.267E+02 0.533E+02 -.463E+02   -.354E+02 -.655E+02 0.603E+02   0.737E+01 0.113E+02 -.156E+02   -.372E-03 0.327E-04 -.235E-03
   0.350E+02 0.711E+02 -.224E+02   -.461E+02 -.879E+02 0.290E+02   0.125E+02 0.169E+02 -.437E+01   0.408E-03 -.137E-03 0.479E-03
   0.376E+02 0.740E+02 -.458E+02   -.495E+02 -.909E+02 0.590E+02   0.122E+02 0.170E+02 -.137E+02   -.164E-03 -.435E-05 -.195E-03
   0.231E+02 0.689E+02 -.242E+02   -.317E+02 -.849E+02 0.333E+02   0.821E+01 0.159E+02 -.856E+01   -.449E-04 -.370E-05 0.968E-04
   0.226E+02 0.692E+02 -.406E+02   -.295E+02 -.863E+02 0.533E+02   0.485E+01 0.177E+02 -.140E+02   -.292E-03 -.111E-04 -.286E-03
   0.298E+02 0.648E+02 -.276E+02   -.394E+02 -.803E+02 0.371E+02   0.953E+01 0.152E+02 -.888E+01   0.228E-03 0.186E-03 0.620E-04
   0.293E+02 0.646E+02 -.373E+02   -.397E+02 -.801E+02 0.487E+02   0.104E+02 0.153E+02 -.116E+02   -.798E-04 -.687E-04 -.602E-04
   -.695E+02 -.105E+02 -.278E+02   0.872E+02 0.993E+01 0.376E+02   -.173E+02 0.638E+00 -.936E+01   0.726E-04 0.131E-03 0.139E-03
   -.179E+02 -.725E+02 -.692E+02   0.141E+02 0.996E+02 0.953E+02   0.480E+01 -.289E+02 -.274E+02   -.114E-03 0.202E-03 0.300E-03
   -.705E+02 -.769E+01 -.308E+02   0.882E+02 0.691E+01 0.407E+02   -.173E+02 0.955E+00 -.945E+01   -.294E-03 -.594E-04 -.354E-04
   -.670E+02 -.562E+01 -.341E+02   0.844E+02 0.468E+01 0.456E+02   -.168E+02 0.844E+00 -.118E+02   0.148E-03 0.958E-04 0.956E-04
   -.719E+02 -.587E+01 -.302E+02   0.905E+02 0.484E+01 0.400E+02   -.186E+02 0.134E+01 -.932E+01   -.223E-03 0.946E-04 0.714E-04
   -.782E+02 0.597E+01 -.369E+02   0.978E+02 -.103E+02 0.479E+02   -.200E+02 0.599E+01 -.105E+02   0.181E-04 0.780E-04 0.219E-04
   -.724E+02 -.887E+01 -.307E+02   0.910E+02 0.812E+01 0.405E+02   -.186E+02 0.933E+00 -.937E+01   -.136E-03 0.217E-03 -.562E-04
   -.788E+02 -.112E+02 -.350E+02   0.989E+02 0.110E+02 0.461E+02   -.201E+02 0.106E+00 -.112E+02   0.104E-03 -.231E-03 -.475E-04
 -----------------------------------------------------------------------------------------------
   0.861E+01 -.180E-05 0.751E-05   0.426E-13 0.497E-12 -.711E-14   -.860E+01 -.274E-13 -.551E-13   -.329E-03 0.132E-12 0.173E-12
 
 
 POSITION                                       TOTAL-FORCE (eV/Angst)
 -----------------------------------------------------------------------------------
      2.61028     -0.00000      5.43130        -0.284584     -0.000000     -0.000000
      5.06777      4.25649      0.00000         0.047229      0.084651      1.265015
      5.06777      4.25649      5.43130        -0.020329      0.076545     -0.010629
      5.06777     -4.25649      0.00000         0.047229     -0.084651     -1.265015
      5.06777     -4.25649      5.43130        -0.020329     -0.076545      0.010629
      7.52525      0.00000      0.00000         0.001976     -0.000000     -0.000000
      7.52525      0.00000      5.43130         0.021417     -0.000000     -0.000000
      1.15234      1.99591      3.62087         1.018085     -0.342657     -1.669328
      1.15234      1.99591      9.05217         2.243347     -4.497688      2.966527
      3.60982      6.25240      3.62087         0.672239      0.115965     -1.321432
      3.60982      6.25240      9.05217         0.506221      0.111364      0.671022
      3.60982     -2.26057      3.62087        -0.951990      0.572564     -1.540702
      3.60982     -2.26057      9.05217        -0.651853      3.876744      4.525778
      6.06731      1.99591      3.62087        -1.193079     -0.011201     -1.023794
      6.06731      1.99591      9.05217        -0.965345     -0.281598      0.889360
      1.15234     -1.99591      1.81043         2.243347      4.497688     -2.966527
      1.15234     -1.99591      7.24173         1.018085      0.342657      1.669328
      3.60982      2.26057      1.81043        -0.651853     -3.876744     -4.525778
      3.60982      2.26057      7.24173        -0.951990     -0.572564      1.540702
      3.60982     -6.25240      1.81043         0.506221     -0.111364     -0.671022
      3.60982     -6.25240      7.24173         0.672239     -0.115965      1.321432
      6.06731     -1.99591      1.81043        -0.965345      0.281598     -0.889360
      6.06731     -1.99591      7.24173        -1.193079      0.011201      1.023794
      1.67752      0.61366      4.26298        -0.173370     -0.170878      0.441564
      1.67752      0.61366      9.69428        -1.155277      1.270028     -1.586811
      4.13500      4.87015      4.26298        -0.160832     -0.369216      0.265096
      4.13500      4.87015      9.69428        -0.405290      0.041254     -0.644645
      4.13500     -3.64282      4.26298         0.109040     -0.499837      0.251856
      4.13500     -3.64282      9.69428         0.376987     -2.006802     -0.257247
      6.59249      0.61366      4.26298         0.110849     -0.362128      0.158432
      6.59249      0.61366      9.69428         0.229452     -0.093333     -0.342427
      3.54476      1.14594      0.64211         0.981380      1.819420      1.301193
      3.54476      1.14594      6.07341         0.383089     -0.052411     -0.414169
      6.00224      5.40243      0.64211        -0.386609     -1.662555     -0.540669
      6.00224      5.40243      6.07341         0.011664     -0.308205     -0.531460
      6.00224     -3.11054      0.64211         0.552648      0.101578      0.354565
      6.00224     -3.11054      6.07341         0.420515     -0.170794     -0.441293
      8.45972      1.14594      0.64211        -0.108529      0.148030      0.107639
      8.45972      1.14594      6.07341         0.059924     -0.185492     -0.462583
      2.15017      2.49688      2.45255        -1.340752      0.997397      1.609499
      2.15017      2.49688      7.88385         0.764151      1.457727     -1.868383
      4.60765      6.75336      2.45255        -2.020753     -0.550651      1.374886
      4.60765      6.75336      7.88385        -0.451187      0.084327     -0.494306
      4.60765     -1.75961      2.45255         0.332353     -0.117928      0.504207
      4.60765     -1.75961      7.88385         1.361323     -0.099452     -2.188335
      7.06514      2.49688      2.45255        -0.000244      0.195734      0.182441
      7.06514      2.49688      7.88385        -0.064461      0.252775     -0.562695
      1.67752     -0.61366      1.16832        -1.155277     -1.270028      1.586811
      1.67752     -0.61366      6.59962        -0.173370      0.170878     -0.441564
      4.13500      3.64282      1.16832         0.376987      2.006802      0.257247
      4.13500      3.64282      6.59962         0.109040      0.499837     -0.251856
      4.13500     -4.87015      1.16832        -0.405290     -0.041254      0.644645
      4.13500     -4.87015      6.59962        -0.160832      0.369216     -0.265096
      6.59249     -0.61366      1.16832         0.229452      0.093333      0.342427
      6.59249     -0.61366      6.59962         0.110849      0.362128     -0.158432
      2.15017     -2.49688      2.97876         0.764151     -1.457727      1.868383
      2.15017     -2.49688      8.41006        -1.340752     -0.997397     -1.609499
      4.60765      1.75961      2.97876         1.361323      0.099452      2.188335
      4.60765      1.75961      8.41006         0.332353      0.117928     -0.504207
      4.60765     -6.75336      2.97876        -0.451187     -0.084327      0.494306
      4.60765     -6.75336      8.41006        -2.020753      0.550651     -1.374886
      7.06514     -2.49688      2.97876        -0.064461     -0.252775      0.562695
      7.06514     -2.49688      8.41006        -0.000244     -0.195734     -0.182441
      3.54476     -1.14594      4.78919         0.383089      0.052411      0.414169
      3.54476     -1.14594     10.22049         0.981380     -1.819420     -1.301193
      6.00224      3.11054      4.78919         0.420515      0.170794      0.441293
      6.00224      3.11054     10.22049         0.552648     -0.101578     -0.354565
      6.00224     -5.40243      4.78919         0.011664      0.308205      0.531460
      6.00224     -5.40243     10.22049        -0.386609      1.662555      0.540669
      8.45972     -1.14594      4.78919         0.059924      0.185492      0.462583
      8.45972     -1.14594     10.22049        -0.108529     -0.148030     -0.107639
 -----------------------------------------------------------------------------------
    total drift:                                0.011174     -0.000002      0.000008


--------------------------------------------------------------------------------------------------------



  FREE ENERGIE OF THE ION-ELECTRON SYSTEM (eV)
  ---------------------------------------------------
  free  energy   TOTEN  =      -536.61347357 eV

  energy  without entropy=     -536.56544199  energy(sigma->0) =     -536.58945778
 


--------------------------------------------------------------------------------------------------------


    POTLOK:  cpu time      0.0163: real time      0.0164


--------------------------------------------------------------------------------------------------------


 stress matrix after NEB project (eV)
     60.13529      0.00000      0.00000
      0.00000     59.06921     -0.75945
      0.00000     -0.75945     56.93297
  FORCES: max atom, RMS     5.994725    1.947638
  FORCE total and by dimension   16.411088    4.525778
  Stress total and by dimension  101.724831   60.135289
 writing wavefunctions
     LOOP+:  cpu time    109.5270: real time    110.0386
    4ORBIT:  cpu time      0.0000: real time      0.0000



 total charge

# of ion       s       p       d       tot
------------------------------------------
    1        0.650   1.013   0.000   1.663
    2        0.651   1.015   0.000   1.667
    3        0.651   1.015   0.000   1.666
    4        0.651   1.015   0.000   1.667
    5        0.651   1.015   0.000   1.666
    6        0.648   1.011   0.000   1.659
    7        0.651   1.016   0.000   1.667
    8        0.650   1.013   0.000   1.663
    9        0.677   1.038   0.000   1.715
   10        0.654   1.018   0.000   1.672
   11        0.650   1.013   0.000   1.662
   12        0.649   1.013   0.000   1.662
   13        0.677   1.038   0.000   1.715
   14        0.652   1.017   0.000   1.669
   15        0.649   1.011   0.000   1.660
   16        0.677   1.038   0.000   1.715
   17        0.650   1.013   0.000   1.663
   18        0.677   1.038   0.000   1.715
   19        0.649   1.013   0.000   1.662
   20        0.650   1.013   0.000   1.662
   21        0.654   1.018   0.000   1.672
   22        0.649   1.011   0.000   1.660
   23        0.652   1.017   0.000   1.669
   24        1.551   3.707   0.000   5.257
   25        1.589   3.401   0.000   4.990
   26        1.550   3.711   0.000   5.261
   27        1.549   3.714   0.000   5.262
   28        1.551   3.711   0.000   5.262
   29        1.551   3.714   0.000   5.264
   30        1.550   3.711   0.000   5.261
   31        1.549   3.709   0.000   5.258
   32        1.589   3.399   0.000   4.988
   33        1.549   3.715   0.000   5.264
   34        1.555   3.699   0.000   5.254
   35        1.551   3.712   0.000   5.262
   36        1.549   3.712   0.000   5.261
   37        1.549   3.715   0.000   5.264
   38        1.551   3.704   0.000   5.255
   39        1.550   3.712   0.000   5.262
   40        1.552   3.705   0.000   5.257
   41        1.549   3.716   0.000   5.265
   42        1.558   3.698   0.000   5.256
   43        1.549   3.714   0.000   5.262
   44        1.552   3.697   0.000   5.249
   45        1.555   3.703   0.000   5.257
   46        1.551   3.709   0.000   5.260
   47        1.550   3.714   0.000   5.263
   48        1.589   3.401   0.000   4.990
   49        1.551   3.707   0.000   5.257
   50        1.551   3.714   0.000   5.264
   51        1.551   3.711   0.000   5.262
   52        1.549   3.714   0.000   5.262
   53        1.550   3.711   0.000   5.261
   54        1.549   3.709   0.000   5.258
   55        1.550   3.711   0.000   5.261
   56        1.549   3.716   0.000   5.265
   57        1.552   3.705   0.000   5.257
   58        1.555   3.703   0.000   5.257
   59        1.552   3.697   0.000   5.249
   60        1.549   3.714   0.000   5.262
   61        1.558   3.698   0.000   5.256
   62        1.550   3.714   0.000   5.263
   63        1.551   3.709   0.000   5.260
   64        1.549   3.715   0.000   5.264
   65        1.589   3.399   0.000   4.988
   66        1.549   3.715   0.000   5.264
   67        1.549   3.712   0.000   5.261
   68        1.551   3.712   0.000   5.262
   69        1.555   3.699   0.000   5.254
   70        1.550   3.712   0.000   5.262
   71        1.551   3.704   0.000   5.255
--------------------------------------------------
tot         89.664 200.221   0.000 289.885
 

 total amount of memory used by VASP MPI-rank0   100515. kBytes
=======================================================================

   base      :      30000. kBytes
   nonl-proj :      50996. kBytes
   fftplans  :       1721. kBytes
   grid      :       9701. kBytes
   one-center:        218. kBytes
   wavefun   :       7879. kBytes
 
  
  
 General timing and accounting informations for this job:
 ========================================================
  
                  Total CPU time used (sec):      120.562
                            User time (sec):      117.663
                          System time (sec):        2.899
                         Elapsed time (sec):      122.775
  
                   Maximum memory used (kb):      366852.
                   Average memory used (kb):          N/A
  
                          Minor page faults:       130548
                          Major page faults:           87
                 Voluntary context switches:         3956
