<?xml version="1.0" encoding="ISO-8859-1"?>
<modeling>
 <generator>
  <i name="program" type="string">vasp </i>
  <i name="version" type="string">5.4.4.18Apr17-6-g9f103f2a35  </i>
  <i name="subversion" type="string">(build Jun 19 2019 10:34:07) complex            parallel </i>
  <i name="platform" type="string">LB-5.4 </i>
  <i name="date" type="string">2023 05 15 </i>
  <i name="time" type="string">18:43:41 </i>
 </generator>
 <incar>
  <i type="string" name="SYSTEM"> Si</i>
  <i type="string" name="PREC">normal</i>
  <i type="string" name="ALGO"> Normal</i>
  <i type="int" name="ISPIN">     1</i>
  <i name="AMIX">      0.20000000</i>
  <i type="int" name="NELM">   200</i>
  <i type="int" name="IBRION">     2</i>
  <i name="EDIFF">      0.00001000</i>
  <i name="EDIFFG">     -0.05000000</i>
  <i type="int" name="NSW">   100</i>
  <i type="int" name="ISIF">     2</i>
  <i type="int" name="ISYM">     2</i>
  <i name="ENCUT">    550.00000000</i>
  <i name="NELECT">    212.00000000</i>
  <i type="logical" name="LREAL"> F  </i>
  <i type="int" name="ISMEAR">     0</i>
  <i name="SIGMA">      0.05000000</i>
  <i type="logical" name="LWAVE"> T  </i>
  <i type="logical" name="LCHARG"> T  </i>
  <i type="int" name="LORBIT">    10</i>
  <v type="int" name="KPOINT_BSE">    -1     0     0     0</v>
  <i type="int" name="NELM">   200</i>
 </incar>
 <structure name="primitive_cell" >
  <crystal>
   <varray name="basis" >
    <v>       9.97646553       0.00000000       5.75991507 </v>
    <v>       3.32548851       9.40590192       5.75991507 </v>
    <v>       0.00000000       0.00000000      11.51983014 </v>
   </varray>
   <i name="volume">   1080.99386112 </i>
   <varray name="rec_basis" >
    <v>       0.10023590      -0.03543874       0.00000000 </v>
    <v>       0.00000000       0.10631623       0.00000000 </v>
    <v>      -0.05011795      -0.03543874       0.08680684 </v>
   </varray>
  </crystal>
  <varray name="positions" >
   <v>       0.29166667       0.29166667      -0.37500000 </v>
   <v>       0.04166667       0.37500000      -0.29166667 </v>
   <v>       0.37500000       0.37500000       0.37500000 </v>
   <v>       0.37500000       0.37500000      -0.29166667 </v>
   <v>       0.37500000       0.04166667      -0.29166667 </v>
   <v>      -0.04166667       0.29166667      -0.37500000 </v>
   <v>      -0.04166667       0.29166667      -0.04166667 </v>
   <v>      -0.37500000       0.29166667       0.29166667 </v>
   <v>      -0.37500000       0.29166667      -0.37500000 </v>
   <v>      -0.37500000      -0.04166667      -0.37500000 </v>
   <v>      -0.04166667      -0.37500000      -0.37500000 </v>
   <v>       0.29166667      -0.04166667      -0.37500000 </v>
   <v>       0.29166667      -0.04166667      -0.04166667 </v>
   <v>       0.29166667      -0.37500000       0.29166667 </v>
   <v>       0.29166667      -0.37500000      -0.37500000 </v>
   <v>       0.29166667       0.29166667      -0.04166667 </v>
   <v>      -0.29166667       0.37500000       0.37500000 </v>
   <v>       0.04166667       0.04166667      -0.29166667 </v>
   <v>       0.04166667       0.04166667       0.04166667 </v>
   <v>      -0.29166667       0.04166667       0.37500000 </v>
   <v>      -0.29166667       0.04166667      -0.29166667 </v>
   <v>       0.37500000      -0.29166667       0.37500000 </v>
   <v>       0.04166667       0.37500000       0.37500000 </v>
   <v>       0.04166667       0.37500000       0.04166667 </v>
   <v>       0.04166667      -0.29166667       0.37500000 </v>
   <v>       0.04166667      -0.29166667      -0.29166667 </v>
   <v>       0.37500000       0.04166667       0.37500000 </v>
   <v>       0.37500000       0.04166667       0.04166667 </v>
   <v>      -0.04166667      -0.04166667      -0.04166667 </v>
   <v>      -0.37500000      -0.37500000       0.29166667 </v>
   <v>      -0.37500000      -0.04166667       0.29166667 </v>
   <v>      -0.04166667      -0.37500000       0.29166667 </v>
   <v>      -0.37500000      -0.04166667      -0.04166667 </v>
   <v>      -0.04166667      -0.37500000      -0.04166667 </v>
   <v>      -0.29166667       0.37500000      -0.29166667 </v>
   <v>      -0.29166667       0.37500000       0.04166667 </v>
   <v>      -0.29166667      -0.29166667      -0.29166667 </v>
   <v>       0.37500000      -0.29166667       0.04166667 </v>
   <v>       0.37500000      -0.29166667      -0.29166667 </v>
   <v>       0.37500000       0.37500000       0.04166667 </v>
   <v>      -0.37500000       0.29166667      -0.04166667 </v>
   <v>      -0.04166667       0.29166667       0.29166667 </v>
   <v>      -0.37500000      -0.37500000      -0.37500000 </v>
   <v>      -0.37500000      -0.37500000      -0.04166667 </v>
   <v>      -0.04166667      -0.04166667       0.29166667 </v>
   <v>      -0.04166667      -0.04166667      -0.37500000 </v>
   <v>       0.29166667      -0.37500000      -0.04166667 </v>
   <v>       0.29166667      -0.04166667       0.29166667 </v>
   <v>      -0.29166667       0.04166667       0.04166667 </v>
   <v>       0.04166667       0.04166667       0.37500000 </v>
   <v>      -0.29166667      -0.29166667       0.04166667 </v>
   <v>      -0.29166667      -0.29166667       0.37500000 </v>
   <v>       0.04166667      -0.29166667       0.04166667 </v>
  </varray>
 </structure>
 <varray name="primitive_index" >
  <v type="int" >        1 </v>
  <v type="int" >       32 </v>
  <v type="int" >       40 </v>
  <v type="int" >       41 </v>
  <v type="int" >       38 </v>
  <v type="int" >       19 </v>
  <v type="int" >       20 </v>
  <v type="int" >        9 </v>
  <v type="int" >       10 </v>
  <v type="int" >       16 </v>
  <v type="int" >       22 </v>
  <v type="int" >        7 </v>
  <v type="int" >        8 </v>
  <v type="int" >        3 </v>
  <v type="int" >        4 </v>
  <v type="int" >        2 </v>
  <v type="int" >       49 </v>
  <v type="int" >       29 </v>
  <v type="int" >       27 </v>
  <v type="int" >       46 </v>
  <v type="int" >       47 </v>
  <v type="int" >       43 </v>
  <v type="int" >       31 </v>
  <v type="int" >       30 </v>
  <v type="int" >       34 </v>
  <v type="int" >       35 </v>
  <v type="int" >       37 </v>
  <v type="int" >       36 </v>
  <v type="int" >       26 </v>
  <v type="int" >       12 </v>
  <v type="int" >       15 </v>
  <v type="int" >       21 </v>
  <v type="int" >       17 </v>
  <v type="int" >       23 </v>
  <v type="int" >       50 </v>
  <v type="int" >       48 </v>
  <v type="int" >       53 </v>
  <v type="int" >       42 </v>
  <v type="int" >       44 </v>
  <v type="int" >       39 </v>
  <v type="int" >       11 </v>
  <v type="int" >       18 </v>
  <v type="int" >       13 </v>
  <v type="int" >       14 </v>
  <v type="int" >       24 </v>
  <v type="int" >       25 </v>
  <v type="int" >        5 </v>
  <v type="int" >        6 </v>
  <v type="int" >       45 </v>
  <v type="int" >       28 </v>
  <v type="int" >       51 </v>
  <v type="int" >       52 </v>
  <v type="int" >       33 </v>
 </varray>
 <kpoints>
  <generation param="Gamma">
   <v type="int" name="divisions">       4        4        4 </v>
   <v name="usershift">      0.00000000       0.00000000       0.00000000 </v>
   <v name="genvec1">      0.25000000       0.00000000       0.00000000 </v>
   <v name="genvec2">      0.00000000       0.25000000       0.00000000 </v>
   <v name="genvec3">     -0.00000000      -0.00000000       0.25000000 </v>
   <v name="shift">      0.00000000       0.00000000       0.00000000 </v>
  </generation>
  <varray name="kpointlist" >
   <v>       0.00000000       0.00000000       0.00000000 </v>
   <v>       0.25000000       0.00000000       0.00000000 </v>
   <v>       0.50000000       0.00000000       0.00000000 </v>
   <v>       0.25000000       0.25000000       0.00000000 </v>
   <v>       0.50000000       0.25000000       0.00000000 </v>
   <v>      -0.25000000       0.25000000       0.00000000 </v>
   <v>       0.50000000       0.50000000       0.00000000 </v>
   <v>      -0.25000000       0.50000000       0.25000000 </v>
  </varray>
  <varray name="weights" >
   <v>       0.01562500 </v>
   <v>       0.12500000 </v>
   <v>       0.06250000 </v>
   <v>       0.09375000 </v>
   <v>       0.37500000 </v>
   <v>       0.18750000 </v>
   <v>       0.04687500 </v>
   <v>       0.09375000 </v>
  </varray>
 </kpoints>
 <parameters>
  <separator name="general" >
   <i type="string" name="SYSTEM">Si</i>
   <i type="logical" name="LCOMPAT"> F  </i>
  </separator>
  <separator name="electronic" >
   <i type="string" name="PREC">normal</i>
   <i name="ENMAX">    550.00000000</i>
   <i name="ENAUG">    322.06900000</i>
   <i name="EDIFF">      0.00001000</i>
   <i type="int" name="IALGO">    38</i>
   <i type="int" name="IWAVPR">    11</i>
   <i type="int" name="NBANDS">   144</i>
   <i name="NELECT">    212.00000000</i>
   <i type="int" name="TURBO">     0</i>
   <i type="int" name="IRESTART">     0</i>
   <i type="int" name="NREBOOT">     0</i>
   <i type="int" name="NMIN">     0</i>
   <i name="EREF">      0.00000000</i>
   <separator name="electronic smearing" >
    <i type="int" name="ISMEAR">     0</i>
    <i name="SIGMA">      0.05000000</i>
    <i name="KSPACING">      0.50000000</i>
    <i type="logical" name="KGAMMA"> T  </i>
   </separator>
   <separator name="electronic projectors" >
    <i type="logical" name="LREAL"> F  </i>
    <v name="ROPT">      0.00000000</v>
    <i type="int" name="LMAXPAW">  -100</i>
    <i type="int" name="LMAXMIX">     2</i>
    <i type="logical" name="NLSPLINE"> F  </i>
   </separator>
   <separator name="electronic startup" >
    <i type="int" name="ISTART">     1</i>
    <i type="int" name="ICHARG">     0</i>
    <i type="int" name="INIWAV">     1</i>
   </separator>
   <separator name="electronic spin" >
    <i type="int" name="ISPIN">     1</i>
    <i type="logical" name="LNONCOLLINEAR"> F  </i>
    <v name="MAGMOM">      1.00000000      1.00000000      1.00000000      1.00000000      1.00000000      1.00000000      1.00000000      1.00000000      1.00000000      1.00000000      1.00000000      1.00000000      1.00000000      1.00000000      1.00000000      1.00000000      1.00000000      1.00000000      1.00000000      1.00000000
      1.00000000      1.00000000      1.00000000      1.00000000      1.00000000      1.00000000      1.00000000      1.00000000      1.00000000      1.00000000      1.00000000      1.00000000      1.00000000      1.00000000      1.00000000      1.00000000      1.00000000      1.00000000      1.00000000      1.00000000
      1.00000000      1.00000000      1.00000000      1.00000000      1.00000000      1.00000000      1.00000000      1.00000000      1.00000000      1.00000000      1.00000000      1.00000000      1.00000000</v>
    <i name="NUPDOWN">     -1.00000000</i>
    <i type="logical" name="LSORBIT"> F  </i>
    <v name="SAXIS">      0.00000000      0.00000000      1.00000000</v>
    <i type="logical" name="LSPIRAL"> F  </i>
    <v name="QSPIRAL">      0.00000000      0.00000000      0.00000000</v>
    <i type="logical" name="LZEROZ"> F  </i>
   </separator>
   <separator name="electronic exchange-correlation" >
    <i type="logical" name="LASPH"> F  </i>
    <i type="logical" name="LMETAGGA"> F  </i>
   </separator>
   <separator name="electronic convergence" >
    <i type="int" name="NELM">   200</i>
    <i type="int" name="NELMDL">     0</i>
    <i type="int" name="NELMIN">     2</i>
    <i name="ENINI">    550.00000000</i>
    <separator name="electronic convergence detail" >
     <i type="logical" name="LDIAG"> T  </i>
     <i type="logical" name="LSUBROT"> F  </i>
     <i name="WEIMIN">      0.00100000</i>
     <i name="EBREAK">      0.00000002</i>
     <i name="DEPER">      0.30000000</i>
     <i type="int" name="NRMM">     4</i>
     <i name="TIME">      0.40000000</i>
    </separator>
   </separator>
   <separator name="electronic mixer" >
    <i name="AMIX">      0.20000000</i>
    <i name="BMIX">      1.00000000</i>
    <i name="AMIN">      0.10000000</i>
    <i name="AMIX_MAG">      0.80000000</i>
    <i name="BMIX_MAG">      1.00000000</i>
    <separator name="electronic mixer details" >
     <i type="int" name="IMIX">     4</i>
     <i type="logical" name="MIXFIRST"> F  </i>
     <i type="int" name="MAXMIX">   -45</i>
     <i name="WC">    100.00000000</i>
     <i type="int" name="INIMIX">     1</i>
     <i type="int" name="MIXPRE">     1</i>
     <i type="int" name="MREMOVE">     5</i>
    </separator>
   </separator>
   <separator name="electronic dipolcorrection" >
    <i type="logical" name="LDIPOL"> F  </i>
    <i type="logical" name="LMONO"> F  </i>
    <i type="int" name="IDIPOL">     0</i>
    <i name="EPSILON">      1.00000000</i>
    <v name="DIPOL">   -100.00000000   -100.00000000   -100.00000000</v>
    <i name="EFIELD">      0.00000000</i>
   </separator>
  </separator>
  <separator name="grids" >
   <i type="int" name="NGX">    70</i>
   <i type="int" name="NGY">    70</i>
   <i type="int" name="NGZ">    70</i>
   <i type="int" name="NGXF">   140</i>
   <i type="int" name="NGYF">   140</i>
   <i type="int" name="NGZF">   140</i>
   <i type="logical" name="ADDGRID"> F  </i>
  </separator>
  <separator name="ionic" >
   <i type="int" name="NSW">   100</i>
   <i type="int" name="IBRION">     2</i>
   <i type="int" name="MDALGO">     0</i>
   <i type="int" name="ISIF">     2</i>
   <i name="PSTRESS">      0.00000000</i>
   <i name="EDIFFG">     -0.05000000</i>
   <i type="int" name="NFREE">     1</i>
   <i name="POTIM">      0.50000000</i>
   <i name="SMASS">     -3.00000000</i>
   <i name="SCALEE">      1.00000000</i>
  </separator>
  <separator name="ionic md" >
   <i name="TEBEG">      0.00010000</i>
   <i name="TEEND">      0.00010000</i>
   <i type="int" name="NBLOCK">     1</i>
   <i type="int" name="KBLOCK">   100</i>
   <i type="int" name="NPACO">   256</i>
   <i name="APACO">     16.00000000</i>
  </separator>
  <separator name="symmetry" >
   <i type="int" name="ISYM">     2</i>
   <i name="SYMPREC">      0.00001000</i>
  </separator>
  <separator name="dos" >
   <i type="int" name="LORBIT">    10</i>
   <v name="RWIGS">     -1.00000000</v>
   <i type="int" name="NEDOS">   301</i>
   <i name="EMIN">     10.00000000</i>
   <i name="EMAX">    -10.00000000</i>
   <i name="EFERMI">      0.00000000</i>
  </separator>
  <separator name="writing" >
   <i type="int" name="NWRITE">     2</i>
   <i type="logical" name="LWAVE"> T  </i>
   <i type="logical" name="LDOWNSAMPLE"> F  </i>
   <i type="logical" name="LCHARG"> T  </i>
   <i type="logical" name="LPARD"> F  </i>
   <i type="logical" name="LVTOT"> F  </i>
   <i type="logical" name="LVHAR"> F  </i>
   <i type="logical" name="LELF"> F  </i>
   <i type="logical" name="LOPTICS"> F  </i>
   <v name="STM">      0.00000000      0.00000000      0.00000000      0.00000000      0.00000000      0.00000000      0.00000000</v>
  </separator>
  <separator name="performance" >
   <i type="int" name="NPAR">    24</i>
   <i type="int" name="NSIM">     4</i>
   <i type="int" name="NBLK">    -1</i>
   <i type="logical" name="LPLANE"> T  </i>
   <i type="logical" name="LSCALAPACK"> T  </i>
   <i type="logical" name="LSCAAWARE"> F  </i>
   <i type="logical" name="LSCALU"> F  </i>
   <i type="logical" name="LASYNC"> F  </i>
   <i type="logical" name="LORBITALREAL"> F  </i>
  </separator>
  <separator name="miscellaneous" >
   <i type="int" name="IDIOT">     3</i>
   <i type="int" name="ISPECIAL">     0</i>
   <i type="logical" name="LMUSIC"> F  </i>
   <v name="POMASS">     28.08500000</v>
   <v name="DARWINR">      0.00000000</v>
   <v name="DARWINV">      1.00000000</v>
   <i type="logical" name="LCORR"> T  </i>
  </separator>
  <i type="logical" name="GGA_COMPAT"> T  </i>
  <i type="logical" name="LBERRY"> F  </i>
  <i type="int" name="ICORELEVEL">     0</i>
  <i type="logical" name="LDAU"> F  </i>
  <i type="int" name="I_CONSTRAINED_M">     0</i>
  <separator name="electronic exchange-correlation" >
   <i type="string" name="GGA">--</i>
   <i type="int" name="VOSKOWN">     0</i>
   <i type="logical" name="LHFCALC"> F  </i>
   <i type="string" name="PRECFOCK"></i>
   <i type="logical" name="LSYMGRAD"> F  </i>
   <i type="logical" name="LHFONE"> F  </i>
   <i type="logical" name="LRHFCALC"> F  </i>
   <i type="logical" name="LTHOMAS"> F  </i>
   <i type="logical" name="LMODELHF"> F  </i>
   <i name="ENCUT4O">     -1.00000000</i>
   <i type="int" name="EXXOEP">     0</i>
   <i type="int" name="FOURORBIT">     0</i>
   <i name="AEXX">      0.00000000</i>
   <i name="HFALPHA">      0.00000000</i>
   <i name="MCALPHA">      0.00000000</i>
   <i name="ALDAX">      1.00000000</i>
   <i name="AGGAX">      1.00000000</i>
   <i name="ALDAC">      1.00000000</i>
   <i name="AGGAC">      1.00000000</i>
   <i type="int" name="NKREDX">     1</i>
   <i type="int" name="NKREDY">     1</i>
   <i type="int" name="NKREDZ">     1</i>
   <i type="logical" name="SHIFTRED"> F  </i>
   <i type="logical" name="ODDONLY"> F  </i>
   <i type="logical" name="EVENONLY"> F  </i>
   <i type="int" name="LMAXFOCK">     0</i>
   <i type="int" name="NMAXFOCKAE">     0</i>
   <i type="logical" name="LFOCKAEDFT"> F  </i>
   <i name="HFSCREEN">      0.00000000</i>
   <i name="HFSCREENC">      0.00000000</i>
   <i type="int" name="NBANDSGWLOW">     0</i>
  </separator>
  <separator name="vdW DFT" >
   <i type="logical" name="LUSE_VDW"> F  </i>
   <i name="Zab_VDW">     -0.84910000</i>
   <i name="PARAM1">      0.12340000</i>
   <i name="PARAM2">      1.00000000</i>
   <i name="PARAM3">      0.00000000</i>
  </separator>
  <separator name="model GW" >
   <i type="int" name="MODEL_GW">     0</i>
   <i name="MODEL_EPS0">     12.23766635</i>
   <i name="MODEL_ALPHA">      1.00000000</i>
  </separator>
  <separator name="linear response parameters" >
   <i type="logical" name="LEPSILON"> F  </i>
   <i type="logical" name="LRPA"> F  </i>
   <i type="logical" name="LNABLA"> F  </i>
   <i type="logical" name="LVEL"> F  </i>
   <i type="int" name="KINTER">     0</i>
   <i name="CSHIFT">      0.10000000</i>
   <i name="OMEGAMAX">     -1.00000000</i>
   <i name="DEG_THRESHOLD">      0.00200000</i>
   <i name="RTIME">     -0.10000000</i>
   <i name="WPLASMAI">      0.00000000</i>
   <v name="DFIELD">      0.00000000      0.00000000      0.00000000</v>
   <v name="WPLASMA">      0.00000000      0.00000000      0.00000000      0.00000000      0.00000000      0.00000000      0.00000000      0.00000000      0.00000000</v>
  </separator>
  <separator name="orbital magnetization" >
   <i type="logical" name="NUCIND"> F  </i>
   <v name="MAGPOS">      0.00000000      0.00000000      0.00000000</v>
   <i type="logical" name="LNICSALL"> T  </i>
   <i type="logical" name="ORBITALMAG"> F  </i>
   <i type="logical" name="LMAGBLOCH"> F  </i>
   <i type="logical" name="LCHIMAG"> F  </i>
   <i type="logical" name="LGAUGE"> T  </i>
   <i type="int" name="MAGATOM">     0</i>
   <v name="MAGDIPOL">      0.00000000      0.00000000      0.00000000</v>
   <v name="AVECCONST">      0.00000000      0.00000000      0.00000000</v>
  </separator>
  <separator name="response functions" >
   <i type="logical" name="LADDER"> F  </i>
   <i type="logical" name="LRPAFORCE"> F  </i>
   <i type="logical" name="LFXC"> F  </i>
   <i type="logical" name="LHARTREE"> T  </i>
   <i type="int" name="IBSE">     0</i>
   <v type="int" name="KPOINT">    -1     0     0     0</v>
   <i type="logical" name="LTCTE"> F  </i>
   <i type="logical" name="LTETE"> F  </i>
   <i type="logical" name="LTRIPLET"> F  </i>
   <i type="logical" name="LFXCEPS"> F  </i>
   <i type="logical" name="LFXHEG"> F  </i>
   <i type="int" name="NATURALO">     2</i>
   <i type="logical" name="L2ORDER"> F  </i>
   <i type="logical" name="LMP2LT"> F  </i>
   <i type="logical" name="LUSEW"> F  </i>
   <i name="ENCUTGW">     -2.00000000</i>
   <i name="ENCUTGWSOFT">     -2.00000000</i>
   <i name="ENCUTLF">     -1.00000000</i>
   <i type="int" name="LMAXMP2">    -1</i>
   <i name="SCISSOR">      0.00000000</i>
   <i type="int" name="NOMEGA">     0</i>
   <i type="int" name="NOMEGAR">     0</i>
   <i type="int" name="NBANDSGW">    -1</i>
   <i type="int" name="NBANDSO">    -1</i>
   <i type="int" name="NBANDSV">    -1</i>
   <i type="int" name="NELM">   200</i>
   <i type="int" name="NELMHF">     1</i>
   <i type="int" name="DIM">     3</i>
   <i type="int" name="ANTIRES">     0</i>
   <i name="OMEGAMAX">    -30.00000000</i>
   <i name="OMEGAMIN">    -30.00000000</i>
   <i name="OMEGATL">   -200.00000000</i>
   <i type="int" name="OMEGAGRID">   140</i>
   <i name="CSHIFT">     -0.10000000</i>
   <i type="logical" name="SELFENERGY"> F  </i>
   <i type="logical" name="LSPECTRAL"> F  </i>
   <i type="logical" name="LSPECTRALGW"> F  </i>
   <i type="logical" name="LSINGLES"> F  </i>
   <i type="logical" name="LFERMIGW"> F  </i>
   <i type="logical" name="ODDONLYGW"> F  </i>
   <i type="logical" name="EVENONLYGW"> F  </i>
   <i type="int" name="NKREDLFX">     1</i>
   <i type="int" name="NKREDLFY">     1</i>
   <i type="int" name="NKREDLFZ">     1</i>
   <i type="int" name="MAXMEM">  2800</i>
   <i type="int" name="TELESCOPE">     0</i>
   <i type="int" name="TAUPAR">     1</i>
   <i type="int" name="OMEGAPAR">    -1</i>
   <i name="LAMBDA">      1.00000000</i>
  </separator>
  <separator name="External order field" >
   <i name="OFIELD_KAPPA">      0.00000000</i>
   <v name="OFIELD_K">      0.00000000      0.00000000      0.00000000</v>
   <i name="OFIELD_Q6_NEAR">      0.00000000</i>
   <i name="OFIELD_Q6_FAR">      0.00000000</i>
   <i name="OFIELD_A">      0.00000000</i>
  </separator>
 </parameters>
 <atominfo>
  <atoms>      53 </atoms>
  <types>       1 </types>
  <array name="atoms" >
   <dimension dim="1">ion</dimension>
   <field type="string">element</field>
   <field type="int">atomtype</field>
   <set>
    <rc><c>Si</c><c>   1</c></rc>
    <rc><c>Si</c><c>   1</c></rc>
    <rc><c>Si</c><c>   1</c></rc>
    <rc><c>Si</c><c>   1</c></rc>
    <rc><c>Si</c><c>   1</c></rc>
    <rc><c>Si</c><c>   1</c></rc>
    <rc><c>Si</c><c>   1</c></rc>
    <rc><c>Si</c><c>   1</c></rc>
    <rc><c>Si</c><c>   1</c></rc>
    <rc><c>Si</c><c>   1</c></rc>
    <rc><c>Si</c><c>   1</c></rc>
    <rc><c>Si</c><c>   1</c></rc>
    <rc><c>Si</c><c>   1</c></rc>
    <rc><c>Si</c><c>   1</c></rc>
    <rc><c>Si</c><c>   1</c></rc>
    <rc><c>Si</c><c>   1</c></rc>
    <rc><c>Si</c><c>   1</c></rc>
    <rc><c>Si</c><c>   1</c></rc>
    <rc><c>Si</c><c>   1</c></rc>
    <rc><c>Si</c><c>   1</c></rc>
    <rc><c>Si</c><c>   1</c></rc>
    <rc><c>Si</c><c>   1</c></rc>
    <rc><c>Si</c><c>   1</c></rc>
    <rc><c>Si</c><c>   1</c></rc>
    <rc><c>Si</c><c>   1</c></rc>
    <rc><c>Si</c><c>   1</c></rc>
    <rc><c>Si</c><c>   1</c></rc>
    <rc><c>Si</c><c>   1</c></rc>
    <rc><c>Si</c><c>   1</c></rc>
    <rc><c>Si</c><c>   1</c></rc>
    <rc><c>Si</c><c>   1</c></rc>
    <rc><c>Si</c><c>   1</c></rc>
    <rc><c>Si</c><c>   1</c></rc>
    <rc><c>Si</c><c>   1</c></rc>
    <rc><c>Si</c><c>   1</c></rc>
    <rc><c>Si</c><c>   1</c></rc>
    <rc><c>Si</c><c>   1</c></rc>
    <rc><c>Si</c><c>   1</c></rc>
    <rc><c>Si</c><c>   1</c></rc>
    <rc><c>Si</c><c>   1</c></rc>
    <rc><c>Si</c><c>   1</c></rc>
    <rc><c>Si</c><c>   1</c></rc>
    <rc><c>Si</c><c>   1</c></rc>
    <rc><c>Si</c><c>   1</c></rc>
    <rc><c>Si</c><c>   1</c></rc>
    <rc><c>Si</c><c>   1</c></rc>
    <rc><c>Si</c><c>   1</c></rc>
    <rc><c>Si</c><c>   1</c></rc>
    <rc><c>Si</c><c>   1</c></rc>
    <rc><c>Si</c><c>   1</c></rc>
    <rc><c>Si</c><c>   1</c></rc>
    <rc><c>Si</c><c>   1</c></rc>
    <rc><c>Si</c><c>   1</c></rc>
   </set>
  </array>
  <array name="atomtypes" >
   <dimension dim="1">type</dimension>
   <field type="int">atomspertype</field>
   <field type="string">element</field>
   <field>mass</field>
   <field>valence</field>
   <field type="string">pseudopotential</field>
   <set>
    <rc><c>  53</c><c>Si</c><c>     28.08500000</c><c>      4.00000000</c><c>  PAW_PBE Si 05Jan2001                  </c></rc>
   </set>
  </array>
 </atominfo>
 <structure name="initialpos" >
  <crystal>
   <varray name="basis" >
    <v>       9.97646553       0.00000000       5.75991507 </v>
    <v>       3.32548851       9.40590192       5.75991507 </v>
    <v>       0.00000000       0.00000000      11.51983014 </v>
   </varray>
   <i name="volume">   1080.99386112 </i>
   <varray name="rec_basis" >
    <v>       0.10023590      -0.03543874       0.00000000 </v>
    <v>       0.00000000       0.10631623       0.00000000 </v>
    <v>      -0.05011795      -0.03543874       0.08680684 </v>
   </varray>
  </crystal>
  <varray name="positions" >
   <v>       0.29166667       0.29166667       0.62500000 </v>
   <v>       0.29166667       0.29166667       0.95833333 </v>
   <v>       0.29166667       0.62500000       0.29166667 </v>
   <v>       0.29166667       0.62500000       0.62500000 </v>
   <v>       0.29166667       0.62500000       0.95833333 </v>
   <v>       0.29166667       0.95833333       0.29166667 </v>
   <v>       0.29166667       0.95833333       0.62500000 </v>
   <v>       0.29166667       0.95833333       0.95833333 </v>
   <v>       0.62500000       0.29166667       0.29166667 </v>
   <v>       0.62500000       0.29166667       0.62500000 </v>
   <v>       0.62500000       0.29166667       0.95833333 </v>
   <v>       0.62500000       0.62500000       0.29166667 </v>
   <v>       0.62500000       0.62500000       0.62500000 </v>
   <v>       0.62500000       0.62500000       0.95833333 </v>
   <v>       0.62500000       0.95833333       0.29166667 </v>
   <v>       0.62500000       0.95833333       0.62500000 </v>
   <v>       0.62500000       0.95833333       0.95833333 </v>
   <v>       0.95833333       0.29166667       0.29166667 </v>
   <v>       0.95833333       0.29166667       0.62500000 </v>
   <v>       0.95833333       0.29166667       0.95833333 </v>
   <v>       0.95833333       0.62500000       0.29166667 </v>
   <v>       0.95833333       0.62500000       0.62500000 </v>
   <v>       0.95833333       0.62500000       0.95833333 </v>
   <v>       0.95833333       0.95833333       0.29166667 </v>
   <v>       0.95833333       0.95833333       0.62500000 </v>
   <v>       0.95833333       0.95833333       0.95833333 </v>
   <v>       0.04166667       0.04166667       0.04166667 </v>
   <v>       0.04166667       0.04166667       0.37500000 </v>
   <v>       0.04166667       0.04166667       0.70833333 </v>
   <v>       0.04166667       0.37500000       0.04166667 </v>
   <v>       0.04166667       0.37500000       0.37500000 </v>
   <v>       0.04166667       0.37500000       0.70833333 </v>
   <v>       0.04166667       0.70833333       0.04166667 </v>
   <v>       0.04166667       0.70833333       0.37500000 </v>
   <v>       0.04166667       0.70833333       0.70833333 </v>
   <v>       0.37500000       0.04166667       0.04166667 </v>
   <v>       0.37500000       0.04166667       0.37500000 </v>
   <v>       0.37500000       0.04166667       0.70833333 </v>
   <v>       0.37500000       0.37500000       0.04166667 </v>
   <v>       0.37500000       0.37500000       0.37500000 </v>
   <v>       0.37500000       0.37500000       0.70833333 </v>
   <v>       0.37500000       0.70833333       0.04166667 </v>
   <v>       0.37500000       0.70833333       0.37500000 </v>
   <v>       0.37500000       0.70833333       0.70833333 </v>
   <v>       0.70833333       0.04166667       0.04166667 </v>
   <v>       0.70833333       0.04166667       0.37500000 </v>
   <v>       0.70833333       0.04166667       0.70833333 </v>
   <v>       0.70833333       0.37500000       0.04166667 </v>
   <v>       0.70833333       0.37500000       0.37500000 </v>
   <v>       0.70833333       0.37500000       0.70833333 </v>
   <v>       0.70833333       0.70833333       0.04166667 </v>
   <v>       0.70833333       0.70833333       0.37500000 </v>
   <v>       0.70833333       0.70833333       0.70833333 </v>
  </varray>
 </structure>
 <calculation>
  <scstep>
   <time name="dav">    2.99    3.02</time>
   <time name="total">    3.40    3.45</time>
   <energy>
    <i name="alphaZ">     87.47481167 </i>
    <i name="ewald">  -5974.52528800 </i>
    <i name="hartreedc">   -435.52396047 </i>
    <i name="XCdc">   -478.16314106 </i>
    <i name="pawpsdc">  22429.47209519 </i>
    <i name="pawaedc"> -21502.72515270 </i>
    <i name="eentropy">     -0.00245927 </i>
    <i name="bandstr">    127.48632972 </i>
    <i name="atom">   5462.52286525 </i>
    <i name="e_fr_energy">   -283.98389968 </i>
    <i name="e_wo_entrp">   -283.98144041 </i>
    <i name="e_0_energy">   -283.98267005 </i>
   </energy>
  </scstep>
  <scstep>
   <time name="dav">    3.27    3.60</time>
   <time name="total">    3.86    4.19</time>
   <energy>
    <i name="alphaZ">     87.47481167 </i>
    <i name="ewald">  -5974.52528800 </i>
    <i name="hartreedc">   -435.52412372 </i>
    <i name="XCdc">   -478.16313982 </i>
    <i name="pawpsdc">  22429.51870895 </i>
    <i name="pawaedc"> -21502.77175013 </i>
    <i name="eentropy">     -0.00245926 </i>
    <i name="bandstr">    127.48647547 </i>
    <i name="atom">   5462.52286525 </i>
    <i name="e_fr_energy">   -283.98389958 </i>
    <i name="e_wo_entrp">   -283.98144033 </i>
    <i name="e_0_energy">   -283.98266996 </i>
   </energy>
  </scstep>
  <structure>
   <crystal>
    <varray name="basis" >
     <v>       9.97646553       0.00000000       5.75991507 </v>
     <v>       3.32548851       9.40590192       5.75991507 </v>
     <v>       0.00000000       0.00000000      11.51983014 </v>
    </varray>
    <i name="volume">   1080.99386112 </i>
    <varray name="rec_basis" >
     <v>       0.10023590      -0.03543874       0.00000000 </v>
     <v>       0.00000000       0.10631623       0.00000000 </v>
     <v>      -0.05011795      -0.03543874       0.08680684 </v>
    </varray>
   </crystal>
   <varray name="positions" >
    <v>       0.29166667       0.29166667       0.62500000 </v>
    <v>       0.29166667       0.29166667       0.95833333 </v>
    <v>       0.29166667       0.62500000       0.29166667 </v>
    <v>       0.29166667       0.62500000       0.62500000 </v>
    <v>       0.29166667       0.62500000       0.95833333 </v>
    <v>       0.29166667       0.95833333       0.29166667 </v>
    <v>       0.29166667       0.95833333       0.62500000 </v>
    <v>       0.29166667       0.95833333       0.95833333 </v>
    <v>       0.62500000       0.29166667       0.29166667 </v>
    <v>       0.62500000       0.29166667       0.62500000 </v>
    <v>       0.62500000       0.29166667       0.95833333 </v>
    <v>       0.62500000       0.62500000       0.29166667 </v>
    <v>       0.62500000       0.62500000       0.62500000 </v>
    <v>       0.62500000       0.62500000       0.95833333 </v>
    <v>       0.62500000       0.95833333       0.29166667 </v>
    <v>       0.62500000       0.95833333       0.62500000 </v>
    <v>       0.62500000       0.95833333       0.95833333 </v>
    <v>       0.95833333       0.29166667       0.29166667 </v>
    <v>       0.95833333       0.29166667       0.62500000 </v>
    <v>       0.95833333       0.29166667       0.95833333 </v>
    <v>       0.95833333       0.62500000       0.29166667 </v>
    <v>       0.95833333       0.62500000       0.62500000 </v>
    <v>       0.95833333       0.62500000       0.95833333 </v>
    <v>       0.95833333       0.95833333       0.29166667 </v>
    <v>       0.95833333       0.95833333       0.62500000 </v>
    <v>       0.95833333       0.95833333       0.95833333 </v>
    <v>       0.04166667       0.04166667       0.04166667 </v>
    <v>       0.04166667       0.04166667       0.37500000 </v>
    <v>       0.04166667       0.04166667       0.70833333 </v>
    <v>       0.04166667       0.37500000       0.04166667 </v>
    <v>       0.04166667       0.37500000       0.37500000 </v>
    <v>       0.04166667       0.37500000       0.70833333 </v>
    <v>       0.04166667       0.70833333       0.04166667 </v>
    <v>       0.04166667       0.70833333       0.37500000 </v>
    <v>       0.04166667       0.70833333       0.70833333 </v>
    <v>       0.37500000       0.04166667       0.04166667 </v>
    <v>       0.37500000       0.04166667       0.37500000 </v>
    <v>       0.37500000       0.04166667       0.70833333 </v>
    <v>       0.37500000       0.37500000       0.04166667 </v>
    <v>       0.37500000       0.37500000       0.37500000 </v>
    <v>       0.37500000       0.37500000       0.70833333 </v>
    <v>       0.37500000       0.70833333       0.04166667 </v>
    <v>       0.37500000       0.70833333       0.37500000 </v>
    <v>       0.37500000       0.70833333       0.70833333 </v>
    <v>       0.70833333       0.04166667       0.04166667 </v>
    <v>       0.70833333       0.04166667       0.37500000 </v>
    <v>       0.70833333       0.04166667       0.70833333 </v>
    <v>       0.70833333       0.37500000       0.04166667 </v>
    <v>       0.70833333       0.37500000       0.37500000 </v>
    <v>       0.70833333       0.37500000       0.70833333 </v>
    <v>       0.70833333       0.70833333       0.04166667 </v>
    <v>       0.70833333       0.70833333       0.37500000 </v>
    <v>       0.70833333       0.70833333       0.70833333 </v>
   </varray>
  </structure>
  <varray name="forces" >
   <v>      -0.04806573      -0.03398760      -0.29289412 </v>
   <v>      -0.04806573      -0.03398760       0.29289412 </v>
   <v>      -0.10858411      -0.20515944      -0.18807320 </v>
   <v>      -0.02171953       0.00767901       0.00000000 </v>
   <v>      -0.10858411      -0.20515944       0.18807320 </v>
   <v>       0.06051839       0.27313465       0.10482092 </v>
   <v>       0.06051839       0.27313465      -0.10482092 </v>
   <v>       0.01110543      -0.00392636       0.00000000 </v>
   <v>      -0.22962088      -0.03398760      -0.18807320 </v>
   <v>      -0.00000000      -0.02303704       0.00000000 </v>
   <v>      -0.22962088      -0.03398760       0.18807320 </v>
   <v>       0.01085976       0.00767901      -0.01880966 </v>
   <v>       0.01085976       0.00767901       0.01880966 </v>
   <v>      -0.01997716      -0.01412598       0.00000000 </v>
   <v>      -0.12103677       0.27313465      -0.00000000 </v>
   <v>      -0.00998858       0.01412598      -0.01730073 </v>
   <v>      -0.00998858       0.01412598       0.01730073 </v>
   <v>       0.27768661      -0.03398760       0.10482092 </v>
   <v>       0.27768661      -0.03398760      -0.10482092 </v>
   <v>      -0.00000000       0.01177909      -0.00000000 </v>
   <v>       0.21716823      -0.20515944      -0.00000000 </v>
   <v>       0.00998858      -0.01412598      -0.01730073 </v>
   <v>       0.00998858      -0.01412598       0.01730073 </v>
   <v>      -0.00555271      -0.00392636       0.00961758 </v>
   <v>       0.01997716       0.01412598       0.00000000 </v>
   <v>      -0.00555271      -0.00392636      -0.00961758 </v>
   <v>      -0.00000000       0.00000000       0.00000000 </v>
   <v>      -0.02086022      -0.01475041      -0.01691019 </v>
   <v>      -0.02086022      -0.01475041       0.01691019 </v>
   <v>      -0.01531166       0.00094329      -0.02652058 </v>
   <v>       0.21486330      -0.07596565      -0.00000000 </v>
   <v>      -0.01531166       0.00094329       0.02652058 </v>
   <v>      -0.00554856       0.02855752      -0.00961039 </v>
   <v>      -0.00554856       0.02855752       0.00961039 </v>
   <v>      -0.02987060       0.01056085       0.00000000 </v>
   <v>      -0.00421454      -0.01475041      -0.02652058 </v>
   <v>      -0.00000000       0.22789694      -0.00000000 </v>
   <v>      -0.00421454      -0.01475041       0.02652058 </v>
   <v>      -0.10743165      -0.07596565       0.18607707 </v>
   <v>      -0.10743165      -0.07596565      -0.18607707 </v>
   <v>       0.13674807       0.09669549       0.00000000 </v>
   <v>       0.01109712       0.02855752       0.00000000 </v>
   <v>       0.06837404      -0.09669549       0.11842730 </v>
   <v>       0.06837404      -0.09669549      -0.11842730 </v>
   <v>       0.02507477      -0.01475041      -0.00961039 </v>
   <v>       0.02507477      -0.01475041       0.00961039 </v>
   <v>      -0.00000000      -0.03168256       0.00000000 </v>
   <v>       0.03062333       0.00094329       0.00000000 </v>
   <v>      -0.06837404       0.09669549       0.11842730 </v>
   <v>      -0.06837404       0.09669549      -0.11842730 </v>
   <v>       0.01493530       0.01056085      -0.02586870 </v>
   <v>      -0.13674807      -0.09669549       0.00000000 </v>
   <v>       0.01493530       0.01056085       0.02586870 </v>
  </varray>
  <varray name="stress" >
   <v>      13.99511290       0.00000000       0.00000000 </v>
   <v>       0.00000000      13.99511294      -0.00000000 </v>
   <v>       0.00000000      -0.00000000      13.99511295 </v>
  </varray>
  <energy>
   <i name="e_fr_energy">   -283.98389958 </i>
   <i name="e_wo_entrp">   -283.98266996 </i>
   <i name="e_0_energy">     -0.00245926 </i>
  </energy>
  <time name="totalsc">   19.24   19.82</time>
 </calculation>
 <calculation>
  <scstep>
   <time name="dav">    3.71    3.74</time>
   <time name="total">    3.97    4.01</time>
   <energy>
    <i name="alphaZ">     87.47481167 </i>
    <i name="ewald">  -5977.97698687 </i>
    <i name="hartreedc">   -432.47987007 </i>
    <i name="XCdc">   -478.20201442 </i>
    <i name="pawpsdc">  22429.61824263 </i>
    <i name="pawaedc"> -21502.87125759 </i>
    <i name="eentropy">     -0.00243155 </i>
    <i name="bandstr">    127.88808502 </i>
    <i name="atom">   5462.52286525 </i>
    <i name="e_fr_energy">   -284.02855593 </i>
    <i name="e_wo_entrp">   -284.02612438 </i>
    <i name="e_0_energy">   -284.02734016 </i>
   </energy>
  </scstep>
  <scstep>
   <time name="dav">    4.17    4.20</time>
   <time name="total">    4.42    4.46</time>
   <energy>
    <i name="e_fr_energy">   -284.03341735 </i>
    <i name="e_wo_entrp">   -284.03098552 </i>
    <i name="e_0_energy">   -284.03220144 </i>
   </energy>
  </scstep>
  <scstep>
   <time name="dav">    3.85    3.88</time>
   <time name="total">    4.11    4.14</time>
   <energy>
    <i name="e_fr_energy">   -284.03280727 </i>
    <i name="e_wo_entrp">   -284.03037496 </i>
    <i name="e_0_energy">   -284.03159112 </i>
   </energy>
  </scstep>
  <scstep>
   <time name="dav">    3.80    3.83</time>
   <time name="total">    4.06    4.10</time>
   <energy>
    <i name="e_fr_energy">   -284.03257481 </i>
    <i name="e_wo_entrp">   -284.03014204 </i>
    <i name="e_0_energy">   -284.03135843 </i>
   </energy>
  </scstep>
  <scstep>
   <time name="dav">    3.89    3.92</time>
   <time name="total">    4.15    4.18</time>
   <energy>
    <i name="e_fr_energy">   -284.03259405 </i>
    <i name="e_wo_entrp">   -284.03016131 </i>
    <i name="e_0_energy">   -284.03137768 </i>
   </energy>
  </scstep>
  <scstep>
   <time name="dav">    3.98    4.01</time>
   <time name="total">    4.24    4.27</time>
   <energy>
    <i name="e_fr_energy">   -284.03260899 </i>
    <i name="e_wo_entrp">   -284.03017626 </i>
    <i name="e_0_energy">   -284.03139262 </i>
   </energy>
  </scstep>
  <scstep>
   <time name="dav">    2.80    2.83</time>
   <time name="total">    2.90    2.92</time>
   <energy>
    <i name="alphaZ">     87.47481167 </i>
    <i name="ewald">  -5977.97698687 </i>
    <i name="hartreedc">   -432.36487766 </i>
    <i name="XCdc">   -478.21166177 </i>
    <i name="pawpsdc">  22405.66198768 </i>
    <i name="pawaedc"> -21478.90399440 </i>
    <i name="eentropy">     -0.00243270 </i>
    <i name="bandstr">    127.76768423 </i>
    <i name="atom">   5462.52286525 </i>
    <i name="e_fr_energy">   -284.03260457 </i>
    <i name="e_wo_entrp">   -284.03017187 </i>
    <i name="e_0_energy">   -284.03138822 </i>
   </energy>
  </scstep>
  <structure>
   <crystal>
    <varray name="basis" >
     <v>       9.97646553       0.00000000       5.75991507 </v>
     <v>       3.32548851       9.40590192       5.75991507 </v>
     <v>       0.00000000       0.00000000      11.51983014 </v>
    </varray>
    <i name="volume">   1080.99386112 </i>
    <varray name="rec_basis" >
     <v>       0.10023590      -0.03543874       0.00000000 </v>
     <v>       0.00000000       0.10631623       0.00000000 </v>
     <v>      -0.05011795      -0.03543874       0.08680684 </v>
    </varray>
   </crystal>
   <varray name="positions" >
    <v>       0.29149235       0.29149235       0.62394774 </v>
    <v>       0.29149235       0.29149235       0.95973423 </v>
    <v>       0.29149235       0.62394774       0.29149235 </v>
    <v>       0.29154851       0.62503939       0.62503939 </v>
    <v>       0.29149235       0.62394774       0.95973423 </v>
    <v>       0.29149235       0.95973423       0.29149235 </v>
    <v>       0.29149235       0.95973423       0.62394774 </v>
    <v>       0.29172708       0.95831320       0.95831320 </v>
    <v>       0.62394774       0.29149235       0.29149235 </v>
    <v>       0.62503939       0.29154851       0.62503939 </v>
    <v>       0.62394774       0.29149235       0.95973423 </v>
    <v>       0.62503939       0.62503939       0.29154851 </v>
    <v>       0.62503939       0.62503939       0.62503939 </v>
    <v>       0.62492755       0.62492755       0.95840579 </v>
    <v>       0.62394774       0.95973423       0.29149235 </v>
    <v>       0.62492755       0.95840579       0.62492755 </v>
    <v>       0.62492755       0.95840579       0.95840579 </v>
    <v>       0.95973423       0.29149235       0.29149235 </v>
    <v>       0.95973423       0.29149235       0.62394774 </v>
    <v>       0.95831320       0.29172708       0.95831320 </v>
    <v>       0.95973423       0.62394774       0.29149235 </v>
    <v>       0.95840579       0.62492755       0.62492755 </v>
    <v>       0.95840579       0.62492755       0.95840579 </v>
    <v>       0.95831320       0.95831320       0.29172708 </v>
    <v>       0.95840579       0.95840579       0.62492755 </v>
    <v>       0.95831320       0.95831320       0.95831320 </v>
    <v>       0.04166667       0.04166667       0.04166667 </v>
    <v>       0.04159101       0.04159101       0.37500484 </v>
    <v>       0.04159101       0.04159101       0.70847980 </v>
    <v>       0.04159101       0.37500484       0.04159101 </v>
    <v>       0.04283554       0.37461037       0.37461037 </v>
    <v>       0.04159101       0.37500484       0.70847980 </v>
    <v>       0.04159101       0.70847980       0.04159101 </v>
    <v>       0.04159101       0.70847980       0.37500484 </v>
    <v>       0.04150417       0.70838750       0.70838750 </v>
    <v>       0.37500484       0.04159101       0.04159101 </v>
    <v>       0.37461037       0.04283554       0.37461037 </v>
    <v>       0.37500484       0.04159101       0.70847980 </v>
    <v>       0.37461037       0.37461037       0.04283554 </v>
    <v>       0.37461037       0.37461037       0.37461037 </v>
    <v>       0.37549595       0.37549595       0.70783738 </v>
    <v>       0.37500484       0.70847980       0.04159101 </v>
    <v>       0.37549595       0.70783738       0.37549595 </v>
    <v>       0.37549595       0.70783738       0.70783738 </v>
    <v>       0.70847980       0.04159101       0.04159101 </v>
    <v>       0.70847980       0.04159101       0.37500484 </v>
    <v>       0.70838750       0.04150417       0.70838750 </v>
    <v>       0.70847980       0.37500484       0.04159101 </v>
    <v>       0.70783738       0.37549595       0.37549595 </v>
    <v>       0.70783738       0.37549595       0.70783738 </v>
    <v>       0.70838750       0.70838750       0.04150417 </v>
    <v>       0.70783738       0.70783738       0.37549595 </v>
    <v>       0.70838750       0.70838750       0.70838750 </v>
   </varray>
  </structure>
  <varray name="forces" >
   <v>       0.01097687       0.00776182      -0.09703912 </v>
   <v>       0.01097687       0.00776182       0.09703912 </v>
   <v>      -0.02252435      -0.08699393      -0.03901331 </v>
   <v>      -0.02356370       0.00833103      -0.00000000 </v>
   <v>      -0.02252435      -0.08699393       0.03901331 </v>
   <v>       0.03350122       0.07147029       0.05802581 </v>
   <v>       0.03350122       0.07147029      -0.05802581 </v>
   <v>      -0.01441403       0.00509613       0.00000000 </v>
   <v>      -0.08952678       0.00776182      -0.03901331 </v>
   <v>       0.00000000      -0.02499308       0.00000000 </v>
   <v>      -0.08952678       0.00776182       0.03901331 </v>
   <v>       0.01178185       0.00833103      -0.02040677 </v>
   <v>       0.01178185       0.00833103       0.02040677 </v>
   <v>      -0.00790568      -0.00559016      -0.00000000 </v>
   <v>      -0.06700243       0.07147029      -0.00000000 </v>
   <v>      -0.00395284       0.00559016      -0.00684652 </v>
   <v>      -0.00395284       0.00559016       0.00684652 </v>
   <v>       0.07854991       0.00776182       0.05802581 </v>
   <v>       0.07854991       0.00776182      -0.05802581 </v>
   <v>       0.00000000      -0.01528839      -0.00000000 </v>
   <v>       0.04504869      -0.08699393      -0.00000000 </v>
   <v>       0.00395284      -0.00559016      -0.00684652 </v>
   <v>       0.00395284      -0.00559016       0.00684652 </v>
   <v>       0.00720701       0.00509613      -0.01248291 </v>
   <v>       0.00790568       0.00559016      -0.00000000 </v>
   <v>       0.00720701       0.00509613       0.01248291 </v>
   <v>       0.00000000       0.00000000      -0.00000000 </v>
   <v>       0.00282094       0.00199471       0.00072929 </v>
   <v>       0.00282094       0.00199471      -0.00072929 </v>
   <v>       0.00162100      -0.00139925       0.00280765 </v>
   <v>       0.26141098      -0.09242274       0.00000000 </v>
   <v>       0.00162100      -0.00139925      -0.00280765 </v>
   <v>       0.00119994      -0.00259017       0.00207836 </v>
   <v>       0.00119994      -0.00259017      -0.00207836 </v>
   <v>      -0.02003215       0.00708243      -0.00000000 </v>
   <v>      -0.00077889       0.00199471       0.00280765 </v>
   <v>      -0.00000000       0.27726822      -0.00000000 </v>
   <v>      -0.00077889       0.00199471      -0.00280765 </v>
   <v>      -0.13070549      -0.09242274       0.22638855 </v>
   <v>      -0.13070549      -0.09242274      -0.22638855 </v>
   <v>      -0.02997333      -0.02119434       0.00000000 </v>
   <v>      -0.00239989      -0.00259017      -0.00000000 </v>
   <v>      -0.01498666       0.02119434      -0.02595766 </v>
   <v>      -0.01498666       0.02119434       0.02595766 </v>
   <v>      -0.00204205       0.00199471       0.00207836 </v>
   <v>      -0.00204205       0.00199471      -0.00207836 </v>
   <v>       0.00000000      -0.02124730      -0.00000000 </v>
   <v>      -0.00324199      -0.00139925       0.00000000 </v>
   <v>       0.01498666      -0.02119434      -0.02595766 </v>
   <v>       0.01498666      -0.02119434       0.02595766 </v>
   <v>       0.01001607       0.00708243      -0.01734835 </v>
   <v>       0.02997333       0.02119434      -0.00000000 </v>
   <v>       0.01001607       0.00708243       0.01734835 </v>
  </varray>
  <varray name="stress" >
   <v>      13.52405266      -0.00000000      -0.00000000 </v>
   <v>       0.00000000      13.52405270      -0.00000000 </v>
   <v>      -0.00000000      -0.00000000      13.52405271 </v>
  </varray>
  <energy>
   <i name="e_fr_energy">   -284.03260457 </i>
   <i name="e_wo_entrp">   -284.03138822 </i>
   <i name="e_0_energy">     -0.00243270 </i>
  </energy>
  <time name="totalsc">   36.33   36.67</time>
 </calculation>
 <calculation>
  <scstep>
   <time name="dav">    3.91    3.95</time>
   <time name="total">    4.30    4.35</time>
   <energy>
    <i name="alphaZ">     87.47481167 </i>
    <i name="ewald">  -5979.91330757 </i>
    <i name="hartreedc">   -430.63245826 </i>
    <i name="XCdc">   -478.23448961 </i>
    <i name="pawpsdc">  22404.53426852 </i>
    <i name="pawaedc"> -21477.77622969 </i>
    <i name="eentropy">     -0.00241715 </i>
    <i name="bandstr">    127.98742810 </i>
    <i name="atom">   5462.52286525 </i>
    <i name="e_fr_energy">   -284.03952874 </i>
    <i name="e_wo_entrp">   -284.03711159 </i>
    <i name="e_0_energy">   -284.03832017 </i>
   </energy>
  </scstep>
  <scstep>
   <time name="dav">    4.23    4.26</time>
   <time name="total">    4.49    4.53</time>
   <energy>
    <i name="e_fr_energy">   -284.04130183 </i>
    <i name="e_wo_entrp">   -284.03888448 </i>
    <i name="e_0_energy">   -284.04009315 </i>
   </energy>
  </scstep>
  <scstep>
   <time name="dav">    3.85    3.88</time>
   <time name="total">    4.11    4.15</time>
   <energy>
    <i name="e_fr_energy">   -284.04108685 </i>
    <i name="e_wo_entrp">   -284.03866921 </i>
    <i name="e_0_energy">   -284.03987803 </i>
   </energy>
  </scstep>
  <scstep>
   <time name="dav">    3.85    3.88</time>
   <time name="total">    4.10    4.14</time>
   <energy>
    <i name="e_fr_energy">   -284.04100906 </i>
    <i name="e_wo_entrp">   -284.03859117 </i>
    <i name="e_0_energy">   -284.03980011 </i>
   </energy>
  </scstep>
  <scstep>
   <time name="dav">    4.00    4.04</time>
   <time name="total">    4.26    4.30</time>
   <energy>
    <i name="e_fr_energy">   -284.04101679 </i>
    <i name="e_wo_entrp">   -284.03859897 </i>
    <i name="e_0_energy">   -284.03980788 </i>
   </energy>
  </scstep>
  <scstep>
   <time name="dav">    3.20    3.23</time>
   <time name="total">    3.52    3.55</time>
   <energy>
    <i name="alphaZ">     87.47481167 </i>
    <i name="ewald">  -5979.91330757 </i>
    <i name="hartreedc">   -430.56554589 </i>
    <i name="XCdc">   -478.23973189 </i>
    <i name="pawpsdc">  22392.16211788 </i>
    <i name="pawaedc"> -21465.39873814 </i>
    <i name="eentropy">     -0.00241781 </i>
    <i name="bandstr">    127.91892458 </i>
    <i name="atom">   5462.52286525 </i>
    <i name="e_fr_energy">   -284.04102194 </i>
    <i name="e_wo_entrp">   -284.03860412 </i>
    <i name="e_0_energy">   -284.03981303 </i>
   </energy>
  </scstep>
  <structure>
   <crystal>
    <varray name="basis" >
     <v>       9.97646553       0.00000000       5.75991507 </v>
     <v>       3.32548851       9.40590192       5.75991507 </v>
     <v>       0.00000000       0.00000000      11.51983014 </v>
    </varray>
    <i name="volume">   1080.99386112 </i>
    <varray name="rec_basis" >
     <v>       0.10023590      -0.03543874       0.00000000 </v>
     <v>       0.00000000       0.10631623       0.00000000 </v>
     <v>      -0.05011795      -0.03543874       0.08680684 </v>
    </varray>
   </crystal>
   <varray name="positions" >
    <v>       0.29138739       0.29138739       0.62331420 </v>
    <v>       0.29138739       0.29138739       0.96057768 </v>
    <v>       0.29138739       0.62331420       0.29138739 </v>
    <v>       0.29147737       0.62506310       0.62506310 </v>
    <v>       0.29138739       0.62331420       0.96057768 </v>
    <v>       0.29138739       0.96057768       0.29138739 </v>
    <v>       0.29138739       0.96057768       0.62331420 </v>
    <v>       0.29176346       0.95830107       0.95830107 </v>
    <v>       0.62331420       0.29138739       0.29138739 </v>
    <v>       0.62506310       0.29147737       0.62506310 </v>
    <v>       0.62331420       0.29138739       0.96057768 </v>
    <v>       0.62506310       0.62506310       0.29147737 </v>
    <v>       0.62506310       0.62506310       0.62506310 </v>
    <v>       0.62488393       0.62488393       0.95844941 </v>
    <v>       0.62331420       0.96057768       0.29138739 </v>
    <v>       0.62488393       0.95844941       0.62488393 </v>
    <v>       0.62488393       0.95844941       0.95844941 </v>
    <v>       0.96057768       0.29138739       0.29138739 </v>
    <v>       0.96057768       0.29138739       0.62331420 </v>
    <v>       0.95830107       0.29176346       0.95830107 </v>
    <v>       0.96057768       0.62331420       0.29138739 </v>
    <v>       0.95844941       0.62488393       0.62488393 </v>
    <v>       0.95844941       0.62488393       0.95844941 </v>
    <v>       0.95830107       0.95830107       0.29176346 </v>
    <v>       0.95844941       0.95844941       0.62488393 </v>
    <v>       0.95830107       0.95830107       0.95830107 </v>
    <v>       0.04166667       0.04166667       0.04166667 </v>
    <v>       0.04154546       0.04154546       0.37500775 </v>
    <v>       0.04154546       0.04154546       0.70856799 </v>
    <v>       0.04154546       0.37500775       0.04154546 </v>
    <v>       0.04353930       0.37437579       0.37437579 </v>
    <v>       0.04154546       0.37500775       0.70856799 </v>
    <v>       0.04154546       0.70856799       0.04154546 </v>
    <v>       0.04154546       0.70856799       0.37500775 </v>
    <v>       0.04140633       0.70842011       0.70842011 </v>
    <v>       0.37500775       0.04154546       0.04154546 </v>
    <v>       0.37437579       0.04353930       0.37437579 </v>
    <v>       0.37500775       0.04154546       0.70856799 </v>
    <v>       0.37437579       0.37437579       0.04353930 </v>
    <v>       0.37437579       0.37437579       0.37437579 </v>
    <v>       0.37579455       0.37579455       0.70753879 </v>
    <v>       0.37500775       0.70856799       0.04154546 </v>
    <v>       0.37579455       0.70753879       0.37579455 </v>
    <v>       0.37579455       0.70753879       0.70753879 </v>
    <v>       0.70856799       0.04154546       0.04154546 </v>
    <v>       0.70856799       0.04154546       0.37500775 </v>
    <v>       0.70842011       0.04140633       0.70842011 </v>
    <v>       0.70856799       0.37500775       0.04154546 </v>
    <v>       0.70753879       0.37579455       0.37579455 </v>
    <v>       0.70753879       0.37579455       0.70753879 </v>
    <v>       0.70842011       0.70842011       0.04140633 </v>
    <v>       0.70753879       0.70753879       0.37579455 </v>
    <v>       0.70842011       0.70842011       0.70842011 </v>
   </varray>
  </structure>
  <varray name="forces" >
   <v>       0.04350292       0.03076121       0.01668686 </v>
   <v>       0.04350292       0.03076121      -0.01668686 </v>
   <v>       0.02656854      -0.01713645       0.04601806 </v>
   <v>      -0.02429347       0.00858904      -0.00000000 </v>
   <v>       0.02656854      -0.01713645      -0.04601806 </v>
   <v>       0.01693438      -0.04438597       0.02933120 </v>
   <v>       0.01693438      -0.04438597      -0.02933120 </v>
   <v>      -0.02990845       0.01057424      -0.00000000 </v>
   <v>      -0.00730022       0.03076121       0.04601806 </v>
   <v>       0.00000000      -0.02576712      -0.00000000 </v>
   <v>      -0.00730022       0.03076121      -0.04601806 </v>
   <v>       0.01214674       0.00858904      -0.02103877 </v>
   <v>       0.01214674       0.00858904       0.02103877 </v>
   <v>      -0.00047228      -0.00033395      -0.00000000 </v>
   <v>      -0.03386876      -0.04438597      -0.00000000 </v>
   <v>      -0.00023614       0.00033395      -0.00040900 </v>
   <v>      -0.00023614       0.00033395       0.00040900 </v>
   <v>      -0.03620270       0.03076121       0.02933120 </v>
   <v>      -0.03620270       0.03076121      -0.02933120 </v>
   <v>       0.00000000      -0.03172271      -0.00000000 </v>
   <v>      -0.05313708      -0.01713645      -0.00000000 </v>
   <v>       0.00023614      -0.00033395      -0.00040900 </v>
   <v>       0.00023614      -0.00033395       0.00040900 </v>
   <v>       0.01495423       0.01057424      -0.02590148 </v>
   <v>       0.00047228       0.00033395      -0.00000000 </v>
   <v>       0.01495423       0.01057424       0.02590148 </v>
   <v>       0.00000000      -0.00000000      -0.00000000 </v>
   <v>       0.01740619       0.01230803       0.01134049 </v>
   <v>       0.01740619       0.01230803      -0.01134049 </v>
   <v>       0.01197681      -0.00304856       0.02074445 </v>
   <v>       0.29050370      -0.10270857       0.00000000 </v>
   <v>       0.01197681      -0.00304856      -0.02074445 </v>
   <v>       0.00542938      -0.02156751       0.00940395 </v>
   <v>       0.00542938      -0.02156751      -0.00940395 </v>
   <v>      -0.01441215       0.00509546      -0.00000000 </v>
   <v>       0.00111806       0.01230803       0.02074445 </v>
   <v>      -0.00000000       0.30812571       0.00000000 </v>
   <v>       0.00111806       0.01230803      -0.02074445 </v>
   <v>      -0.14525185      -0.10270857       0.25158359 </v>
   <v>      -0.14525185      -0.10270857      -0.25158359 </v>
   <v>      -0.12509757      -0.08845734      -0.00000000 </v>
   <v>      -0.01085875      -0.02156751      -0.00000000 </v>
   <v>      -0.06254878       0.08845734      -0.10833767 </v>
   <v>      -0.06254878       0.08845734       0.10833767 </v>
   <v>      -0.01852425       0.01230803       0.00940395 </v>
   <v>      -0.01852425       0.01230803      -0.00940395 </v>
   <v>       0.00000000      -0.01528639      -0.00000000 </v>
   <v>      -0.02395363      -0.00304856      -0.00000000 </v>
   <v>       0.06254878      -0.08845734      -0.10833767 </v>
   <v>       0.06254878      -0.08845734       0.10833767 </v>
   <v>       0.00720608       0.00509546      -0.01248129 </v>
   <v>       0.12509757       0.08845734      -0.00000000 </v>
   <v>       0.00720608       0.00509546       0.01248129 </v>
  </varray>
  <varray name="stress" >
   <v>      13.29368437       0.00000000       0.00000000 </v>
   <v>       0.00000000      13.29368441       0.00000000 </v>
   <v>       0.00000000       0.00000000      13.29368442 </v>
  </varray>
  <energy>
   <i name="e_fr_energy">   -284.04102194 </i>
   <i name="e_wo_entrp">   -284.03981303 </i>
   <i name="e_0_energy">     -0.00241781 </i>
  </energy>
  <time name="totalsc">   32.93   33.24</time>
 </calculation>
 <calculation>
  <scstep>
   <time name="dav">    3.84    3.88</time>
   <time name="total">    4.73    4.79</time>
   <energy>
    <i name="alphaZ">     87.47481167 </i>
    <i name="ewald">  -5983.85464413 </i>
    <i name="hartreedc">   -427.39430508 </i>
    <i name="XCdc">   -478.30876033 </i>
    <i name="pawpsdc">  22391.42091133 </i>
    <i name="pawaedc"> -21464.65744763 </i>
    <i name="eentropy">     -0.00242288 </i>
    <i name="bandstr">    128.73188541 </i>
    <i name="atom">   5462.52286525 </i>
    <i name="e_fr_energy">   -284.06710640 </i>
    <i name="e_wo_entrp">   -284.06468352 </i>
    <i name="e_0_energy">   -284.06589496 </i>
   </energy>
  </scstep>
  <scstep>
   <time name="dav">    4.49    4.54</time>
   <time name="total">    5.59    5.65</time>
   <energy>
    <i name="e_fr_energy">   -284.06910835 </i>
    <i name="e_wo_entrp">   -284.06668545 </i>
    <i name="e_0_energy">   -284.06789690 </i>
   </energy>
  </scstep>
  <scstep>
   <time name="dav">    3.96    3.99</time>
   <time name="total">    4.33    4.37</time>
   <energy>
    <i name="e_fr_energy">   -284.06899530 </i>
    <i name="e_wo_entrp">   -284.06657224 </i>
    <i name="e_0_energy">   -284.06778377 </i>
   </energy>
  </scstep>
  <scstep>
   <time name="dav">    4.01    4.05</time>
   <time name="total">    4.28    4.32</time>
   <energy>
    <i name="e_fr_energy">   -284.06886644 </i>
    <i name="e_wo_entrp">   -284.06644321 </i>
    <i name="e_0_energy">   -284.06765483 </i>
   </energy>
  </scstep>
  <scstep>
   <time name="dav">    4.10    4.15</time>
   <time name="total">    4.36    4.41</time>
   <energy>
    <i name="e_fr_energy">   -284.06886923 </i>
    <i name="e_wo_entrp">   -284.06644612 </i>
    <i name="e_0_energy">   -284.06765767 </i>
   </energy>
  </scstep>
  <scstep>
   <time name="dav">    3.20    3.23</time>
   <time name="total">    3.29    3.32</time>
   <energy>
    <i name="alphaZ">     87.47481167 </i>
    <i name="ewald">  -5983.85464413 </i>
    <i name="hartreedc">   -427.29360001 </i>
    <i name="XCdc">   -478.33029246 </i>
    <i name="pawpsdc">  22344.56475397 </i>
    <i name="pawaedc"> -21417.77880837 </i>
    <i name="eentropy">     -0.00242300 </i>
    <i name="bandstr">    128.62847016 </i>
    <i name="atom">   5462.52286525 </i>
    <i name="e_fr_energy">   -284.06886692 </i>
    <i name="e_wo_entrp">   -284.06644391 </i>
    <i name="e_0_energy">   -284.06765542 </i>
   </energy>
  </scstep>
  <structure>
   <crystal>
    <varray name="basis" >
     <v>       9.97646553       0.00000000       5.75991507 </v>
     <v>       3.32548851       9.40590192       5.75991507 </v>
     <v>       0.00000000       0.00000000      11.51983014 </v>
    </varray>
    <i name="volume">   1080.99386112 </i>
    <varray name="rec_basis" >
     <v>       0.10023590      -0.03543874       0.00000000 </v>
     <v>       0.00000000       0.10631623       0.00000000 </v>
     <v>      -0.05011795      -0.03543874       0.08680684 </v>
    </varray>
   </crystal>
   <varray name="positions" >
    <v>       0.29149129       0.29149129       0.62277586 </v>
    <v>       0.29149129       0.29149129       0.96090822 </v>
    <v>       0.29149129       0.62277586       0.29149129 </v>
    <v>       0.29127991       0.62512892       0.62512892 </v>
    <v>       0.29149129       0.62277586       0.96090822 </v>
    <v>       0.29149129       0.96090822       0.29149129 </v>
    <v>       0.29149129       0.96090822       0.62277586 </v>
    <v>       0.29160641       0.95835342       0.95835342 </v>
    <v>       0.62277586       0.29149129       0.29149129 </v>
    <v>       0.62512892       0.29127991       0.62512892 </v>
    <v>       0.62277586       0.29149129       0.96090822 </v>
    <v>       0.62512892       0.62512892       0.29127991 </v>
    <v>       0.62512892       0.62512892       0.62512892 </v>
    <v>       0.62485172       0.62485172       0.95848161 </v>
    <v>       0.62277586       0.96090822       0.29149129 </v>
    <v>       0.62485172       0.95848161       0.62485172 </v>
    <v>       0.62485172       0.95848161       0.95848161 </v>
    <v>       0.96090822       0.29149129       0.29149129 </v>
    <v>       0.96090822       0.29149129       0.62277586 </v>
    <v>       0.95835342       0.29160641       0.95835342 </v>
    <v>       0.96090822       0.62277586       0.29149129 </v>
    <v>       0.95848161       0.62485172       0.62485172 </v>
    <v>       0.95848161       0.62485172       0.95848161 </v>
    <v>       0.95835342       0.95835342       0.29160641 </v>
    <v>       0.95848161       0.95848161       0.62485172 </v>
    <v>       0.95835342       0.95835342       0.95835342 </v>
    <v>       0.04166667       0.04166667       0.04166667 </v>
    <v>       0.04158457       0.04158457       0.37499225 </v>
    <v>       0.04158457       0.04158457       0.70850528 </v>
    <v>       0.04158457       0.37499225       0.04158457 </v>
    <v>       0.04579858       0.37362270       0.37362270 </v>
    <v>       0.04158457       0.37499225       0.70850528 </v>
    <v>       0.04158457       0.70850528       0.04158457 </v>
    <v>       0.04158457       0.70850528       0.37499225 </v>
    <v>       0.04125056       0.70847204       0.70847204 </v>
    <v>       0.37499225       0.04158457       0.04158457 </v>
    <v>       0.37362270       0.04579858       0.37362270 </v>
    <v>       0.37499225       0.04158457       0.70850528 </v>
    <v>       0.37362270       0.37362270       0.04579858 </v>
    <v>       0.37362270       0.37362270       0.37362270 </v>
    <v>       0.37549354       0.37549354       0.70783980 </v>
    <v>       0.37499225       0.70850528       0.04158457 </v>
    <v>       0.37549354       0.70783980       0.37549354 </v>
    <v>       0.37549354       0.70783980       0.70783980 </v>
    <v>       0.70850528       0.04158457       0.04158457 </v>
    <v>       0.70850528       0.04158457       0.37499225 </v>
    <v>       0.70847204       0.04125056       0.70847204 </v>
    <v>       0.70850528       0.37499225       0.04158457 </v>
    <v>       0.70783980       0.37549354       0.37549354 </v>
    <v>       0.70783980       0.37549354       0.70783980 </v>
    <v>       0.70847204       0.70847204       0.04125056 </v>
    <v>       0.70783980       0.70783980       0.37549354 </v>
    <v>       0.70847204       0.70847204       0.70847204 </v>
   </varray>
  </structure>
  <varray name="forces" >
   <v>       0.02388643       0.01689026       0.02612508 </v>
   <v>       0.02388643       0.01689026      -0.02612508 </v>
   <v>       0.01948488       0.00444078       0.03374880 </v>
   <v>       0.00578306      -0.00204462      -0.00000000 </v>
   <v>       0.01948488       0.00444078      -0.03374880 </v>
   <v>       0.00440156      -0.03822130       0.00762372 </v>
   <v>       0.00440156      -0.03822130      -0.00762372 </v>
   <v>      -0.00916351       0.00323979      -0.00000000 </v>
   <v>       0.01068176       0.01689026       0.03374880 </v>
   <v>       0.00000000       0.00613386      -0.00000000 </v>
   <v>       0.01068176       0.01689026      -0.03374880 </v>
   <v>      -0.00289153      -0.00204462       0.00500828 </v>
   <v>      -0.00289153      -0.00204462      -0.00500828 </v>
   <v>       0.00486100       0.00343724      -0.00000000 </v>
   <v>      -0.00880311      -0.03822130      -0.00000000 </v>
   <v>       0.00243050      -0.00343724       0.00420975 </v>
   <v>       0.00243050      -0.00343724      -0.00420975 </v>
   <v>      -0.03456820       0.01689026       0.00762372 </v>
   <v>      -0.03456820       0.01689026      -0.00762372 </v>
   <v>       0.00000000      -0.00971937      -0.00000000 </v>
   <v>      -0.03896975       0.00444078      -0.00000000 </v>
   <v>      -0.00243050       0.00343724       0.00420975 </v>
   <v>      -0.00243050       0.00343724      -0.00420975 </v>
   <v>       0.00458176       0.00323979      -0.00793583 </v>
   <v>      -0.00486100      -0.00343724      -0.00000000 </v>
   <v>       0.00458176       0.00323979       0.00793583 </v>
   <v>       0.00000000       0.00000000      -0.00000000 </v>
   <v>       0.02184897       0.01544956       0.00340020 </v>
   <v>       0.02184897       0.01544956      -0.00340020 </v>
   <v>       0.01190604      -0.01267330       0.02062186 </v>
   <v>       0.24991111      -0.08835692      -0.00000000 </v>
   <v>       0.01190604      -0.01267330      -0.02062186 </v>
   <v>       0.00994293      -0.01822581       0.01722166 </v>
   <v>       0.00994293      -0.01822581      -0.01722166 </v>
   <v>      -0.00644027       0.00227698      -0.00000000 </v>
   <v>      -0.00797983       0.01544956       0.02062186 </v>
   <v>       0.00000000       0.26507077       0.00000000 </v>
   <v>      -0.00797983       0.01544956      -0.02062186 </v>
   <v>      -0.12495556      -0.08835692       0.21642937 </v>
   <v>      -0.12495556      -0.08835692      -0.21642937 </v>
   <v>      -0.06798291      -0.04807117      -0.00000000 </v>
   <v>      -0.01988586      -0.01822581      -0.00000000 </v>
   <v>      -0.03399145       0.04807117      -0.05887492 </v>
   <v>      -0.03399145       0.04807117       0.05887492 </v>
   <v>      -0.01386914       0.01544956       0.01722166 </v>
   <v>      -0.01386914       0.01544956      -0.01722166 </v>
   <v>       0.00000000      -0.00683093      -0.00000000 </v>
   <v>      -0.02381208      -0.01267330      -0.00000000 </v>
   <v>       0.03399145      -0.04807117      -0.05887492 </v>
   <v>       0.03399145      -0.04807117       0.05887492 </v>
   <v>       0.00322013       0.00227698      -0.00557743 </v>
   <v>       0.06798291       0.04807117      -0.00000000 </v>
   <v>       0.00322013       0.00227698       0.00557743 </v>
  </varray>
  <varray name="stress" >
   <v>      12.50920445       0.00000000      -0.00000000 </v>
   <v>       0.00000000      12.50920449      -0.00000000 </v>
   <v>       0.00000000       0.00000000      12.50920450 </v>
  </varray>
  <energy>
   <i name="e_fr_energy">   -284.06886692 </i>
   <i name="e_wo_entrp">   -284.06765542 </i>
   <i name="e_0_energy">     -0.00242300 </i>
  </energy>
  <time name="totalsc">   34.66   35.02</time>
 </calculation>
 <calculation>
  <scstep>
   <time name="dav">    3.54    3.57</time>
   <time name="total">    3.80    3.83</time>
   <energy>
    <i name="alphaZ">     87.47481167 </i>
    <i name="ewald">  -5994.99153380 </i>
    <i name="hartreedc">   -418.47886279 </i>
    <i name="XCdc">   -478.53454508 </i>
    <i name="pawpsdc">  22342.07471738 </i>
    <i name="pawaedc"> -21415.28820929 </i>
    <i name="eentropy">     -0.00248009 </i>
    <i name="bandstr">    131.13008690 </i>
    <i name="atom">   5462.52286525 </i>
    <i name="e_fr_energy">   -284.09314985 </i>
    <i name="e_wo_entrp">   -284.09066977 </i>
    <i name="e_0_energy">   -284.09190981 </i>
   </energy>
  </scstep>
  <scstep>
   <time name="dav">    3.95    3.98</time>
   <time name="total">    4.21    4.24</time>
   <energy>
    <i name="e_fr_energy">   -284.11145245 </i>
    <i name="e_wo_entrp">   -284.10897120 </i>
    <i name="e_0_energy">   -284.11021183 </i>
   </energy>
  </scstep>
  <scstep>
   <time name="dav">    3.91    3.94</time>
   <time name="total">    4.17    4.20</time>
   <energy>
    <i name="e_fr_energy">   -284.11040832 </i>
    <i name="e_wo_entrp">   -284.10792634 </i>
    <i name="e_0_energy">   -284.10916733 </i>
   </energy>
  </scstep>
  <scstep>
   <time name="dav">    4.15    4.19</time>
   <time name="total">    4.69    4.73</time>
   <energy>
    <i name="e_fr_energy">   -284.10921496 </i>
    <i name="e_wo_entrp">   -284.10673239 </i>
    <i name="e_0_energy">   -284.10797368 </i>
   </energy>
  </scstep>
  <scstep>
   <time name="dav">    4.08    4.11</time>
   <time name="total">    4.38    4.42</time>
   <energy>
    <i name="e_fr_energy">   -284.10924467 </i>
    <i name="e_wo_entrp">   -284.10676241 </i>
    <i name="e_0_energy">   -284.10800354 </i>
   </energy>
  </scstep>
  <scstep>
   <time name="dav">    4.03    4.06</time>
   <time name="total">    4.29    4.33</time>
   <energy>
    <i name="e_fr_energy">   -284.10923961 </i>
    <i name="e_wo_entrp">   -284.10675779 </i>
    <i name="e_0_energy">   -284.10799870 </i>
   </energy>
  </scstep>
  <scstep>
   <time name="dav">    4.15    4.18</time>
   <time name="total">    4.24    4.28</time>
   <energy>
    <i name="alphaZ">     87.47481167 </i>
    <i name="ewald">  -5994.99153380 </i>
    <i name="hartreedc">   -418.10268144 </i>
    <i name="XCdc">   -478.61262745 </i>
    <i name="pawpsdc">  22187.26259761 </i>
    <i name="pawaedc"> -21260.40209344 </i>
    <i name="eentropy">     -0.00248171 </i>
    <i name="bandstr">    130.74190412 </i>
    <i name="atom">   5462.52286525 </i>
    <i name="e_fr_energy">   -284.10923919 </i>
    <i name="e_wo_entrp">   -284.10675748 </i>
    <i name="e_0_energy">   -284.10799834 </i>
   </energy>
  </scstep>
  <structure>
   <crystal>
    <varray name="basis" >
     <v>       9.97646553       0.00000000       5.75991507 </v>
     <v>       3.32548851       9.40590192       5.75991507 </v>
     <v>       0.00000000       0.00000000      11.51983014 </v>
    </varray>
    <i name="volume">   1080.99386112 </i>
    <varray name="rec_basis" >
     <v>       0.10023590      -0.03543874       0.00000000 </v>
     <v>       0.00000000       0.10631623       0.00000000 </v>
     <v>      -0.05011795      -0.03543874       0.08680684 </v>
    </varray>
   </crystal>
   <varray name="positions" >
    <v>       0.29180300       0.29180300       0.62116085 </v>
    <v>       0.29180300       0.29180300       0.96189982 </v>
    <v>       0.29180300       0.62116085       0.29180300 </v>
    <v>       0.29068751       0.62532638       0.62532638 </v>
    <v>       0.29180300       0.62116085       0.96189982 </v>
    <v>       0.29180300       0.96189982       0.29180300 </v>
    <v>       0.29180300       0.96189982       0.62116085 </v>
    <v>       0.29113528       0.95851046       0.95851046 </v>
    <v>       0.62116085       0.29180300       0.29180300 </v>
    <v>       0.62532638       0.29068751       0.62532638 </v>
    <v>       0.62116085       0.29180300       0.96189982 </v>
    <v>       0.62532638       0.62532638       0.29068751 </v>
    <v>       0.62532638       0.62532638       0.62532638 </v>
    <v>       0.62475511       0.62475511       0.95857823 </v>
    <v>       0.62116085       0.96189982       0.29180300 </v>
    <v>       0.62475511       0.95857823       0.62475511 </v>
    <v>       0.62475511       0.95857823       0.95857823 </v>
    <v>       0.96189982       0.29180300       0.29180300 </v>
    <v>       0.96189982       0.29180300       0.62116085 </v>
    <v>       0.95851046       0.29113528       0.95851046 </v>
    <v>       0.96189982       0.62116085       0.29180300 </v>
    <v>       0.95857823       0.62475511       0.62475511 </v>
    <v>       0.95857823       0.62475511       0.95857823 </v>
    <v>       0.95851046       0.95851046       0.29113528 </v>
    <v>       0.95857823       0.95857823       0.62475511 </v>
    <v>       0.95851046       0.95851046       0.95851046 </v>
    <v>       0.04166667       0.04166667       0.04166667 </v>
    <v>       0.04170188       0.04170188       0.37494577 </v>
    <v>       0.04170188       0.04170188       0.70831714 </v>
    <v>       0.04170188       0.37494577       0.04170188 </v>
    <v>       0.05257642       0.37136341       0.37136341 </v>
    <v>       0.04170188       0.37494577       0.70831714 </v>
    <v>       0.04170188       0.70831714       0.04170188 </v>
    <v>       0.04170188       0.70831714       0.37494577 </v>
    <v>       0.04078324       0.70862781       0.70862781 </v>
    <v>       0.37494577       0.04170188       0.04170188 </v>
    <v>       0.37136341       0.05257642       0.37136341 </v>
    <v>       0.37494577       0.04170188       0.70831714 </v>
    <v>       0.37136341       0.37136341       0.05257642 </v>
    <v>       0.37136341       0.37136341       0.37136341 </v>
    <v>       0.37459050       0.37459050       0.70874283 </v>
    <v>       0.37494577       0.70831714       0.04170188 </v>
    <v>       0.37459050       0.70874283       0.37459050 </v>
    <v>       0.37459050       0.70874283       0.70874283 </v>
    <v>       0.70831714       0.04170188       0.04170188 </v>
    <v>       0.70831714       0.04170188       0.37494577 </v>
    <v>       0.70862781       0.04078324       0.70862781 </v>
    <v>       0.70831714       0.37494577       0.04170188 </v>
    <v>       0.70874283       0.37459050       0.37459050 </v>
    <v>       0.70874283       0.37459050       0.70874283 </v>
    <v>       0.70862781       0.70862781       0.04078324 </v>
    <v>       0.70874283       0.70874283       0.37459050 </v>
    <v>       0.70862781       0.70862781       0.70862781 </v>
   </varray>
  </structure>
  <varray name="forces" >
   <v>      -0.03454879      -0.02442968       0.05080193 </v>
   <v>      -0.03454879      -0.02442968      -0.05080193 </v>
   <v>      -0.00260914       0.06590928      -0.00451916 </v>
   <v>       0.09067047      -0.03205685      -0.00000000 </v>
   <v>      -0.00260914       0.06590928       0.00451916 </v>
   <v>      -0.03193965      -0.01704992      -0.05532109 </v>
   <v>      -0.03193965      -0.01704992       0.05532109 </v>
   <v>       0.05289763      -0.01870214      -0.00000000 </v>
   <v>       0.06127015      -0.02442968      -0.00451916 </v>
   <v>      -0.00000000       0.09617055      -0.00000000 </v>
   <v>       0.06127015      -0.02442968       0.00451916 </v>
   <v>      -0.04533523      -0.03205685       0.07852293 </v>
   <v>      -0.04533523      -0.03205685      -0.07852293 </v>
   <v>       0.02103561       0.01487442      -0.00000000 </v>
   <v>       0.06387929      -0.01704992      -0.00000000 </v>
   <v>       0.01051780      -0.01487442       0.01821737 </v>
   <v>       0.01051780      -0.01487442      -0.01821737 </v>
   <v>      -0.02672136      -0.02442968      -0.05532109 </v>
   <v>      -0.02672136      -0.02442968       0.05532109 </v>
   <v>      -0.00000000       0.05610641      -0.00000000 </v>
   <v>       0.00521828       0.06590928      -0.00000000 </v>
   <v>      -0.01051780       0.01487442       0.01821737 </v>
   <v>      -0.01051780       0.01487442      -0.01821737 </v>
   <v>      -0.02644881      -0.01870214       0.04581069 </v>
   <v>      -0.02103561      -0.01487442      -0.00000000 </v>
   <v>      -0.02644881      -0.01870214      -0.04581069 </v>
   <v>      -0.00000000       0.00000000      -0.00000000 </v>
   <v>       0.03641019       0.02574589      -0.01926177 </v>
   <v>       0.03641019       0.02574589       0.01926177 </v>
   <v>       0.01264470      -0.04147306       0.02190126 </v>
   <v>       0.12322437      -0.04356639      -0.00000000 </v>
   <v>       0.01264470      -0.04147306      -0.02190126 </v>
   <v>       0.02376549      -0.01001872       0.04116303 </v>
   <v>       0.02376549      -0.01001872      -0.04116303 </v>
   <v>       0.01716471      -0.00606864      -0.00000000 </v>
   <v>      -0.03488628       0.02574589       0.02190126 </v>
   <v>      -0.00000000       0.13069918      -0.00000000 </v>
   <v>      -0.03488628       0.02574589      -0.02190126 </v>
   <v>      -0.06161219      -0.04356639       0.10671544 </v>
   <v>      -0.06161219      -0.04356639      -0.10671544 </v>
   <v>       0.09880262       0.06986400      -0.00000000 </v>
   <v>      -0.04753097      -0.01001872      -0.00000000 </v>
   <v>       0.04940131      -0.06986400       0.08556558 </v>
   <v>       0.04940131      -0.06986400      -0.08556558 </v>
   <v>      -0.00152391       0.02574589       0.04116303 </v>
   <v>      -0.00152391       0.02574589      -0.04116303 </v>
   <v>      -0.00000000       0.01820592      -0.00000000 </v>
   <v>      -0.02528940      -0.04147306      -0.00000000 </v>
   <v>      -0.04940131       0.06986400       0.08556558 </v>
   <v>      -0.04940131       0.06986400      -0.08556558 </v>
   <v>      -0.00858235      -0.00606864       0.01486507 </v>
   <v>      -0.09880262      -0.06986400      -0.00000000 </v>
   <v>      -0.00858235      -0.00606864      -0.01486507 </v>
  </varray>
  <varray name="stress" >
   <v>      10.06291290       0.00000000       0.00000000 </v>
   <v>       0.00000000      10.06291293       0.00000000 </v>
   <v>       0.00000000       0.00000000      10.06291293 </v>
  </varray>
  <energy>
   <i name="e_fr_energy">   -284.10923919 </i>
   <i name="e_wo_entrp">   -284.10799834 </i>
   <i name="e_0_energy">     -0.00248171 </i>
  </energy>
  <time name="totalsc">   37.89   38.22</time>
 </calculation>
 <calculation>
  <scstep>
   <time name="dav">    3.43    3.45</time>
   <time name="total">    3.68    3.72</time>
   <energy>
    <i name="alphaZ">     87.47481167 </i>
    <i name="ewald">  -5998.71491531 </i>
    <i name="hartreedc">   -415.28212249 </i>
    <i name="XCdc">   -478.69272869 </i>
    <i name="pawpsdc">  22184.95793165 </i>
    <i name="pawaedc"> -21258.09811625 </i>
    <i name="eentropy">     -0.00256015 </i>
    <i name="bandstr">    131.71569786 </i>
    <i name="atom">   5462.52286525 </i>
    <i name="e_fr_energy">   -284.11913646 </i>
    <i name="e_wo_entrp">   -284.11657631 </i>
    <i name="e_0_energy">   -284.11785638 </i>
   </energy>
  </scstep>
  <scstep>
   <time name="dav">    4.13    4.18</time>
   <time name="total">    4.44    4.49</time>
   <energy>
[...]
        <r>  0.0009  0.0040  0.0000 </r>
        <r>  0.0005  0.0022  0.0000 </r>
        <r>  0.0005  0.0034  0.0000 </r>
        <r>  0.0009  0.0040  0.0000 </r>
        <r>  0.0000  0.0065  0.0000 </r>
        <r>  0.0001  0.0000  0.0000 </r>
        <r>  0.0005  0.0034  0.0000 </r>
        <r>  0.0000  0.0065  0.0000 </r>
        <r>  0.0005  0.0034  0.0000 </r>
       </set>
       <set comment="band 138">
        <r>  0.0030  0.0031  0.0000 </r>
        <r>  0.0030  0.0031  0.0000 </r>
        <r>  0.0000  0.0001  0.0000 </r>
        <r>  0.0018  0.0064  0.0000 </r>
        <r>  0.0030  0.0031  0.0000 </r>
        <r>  0.0000  0.0001  0.0000 </r>
        <r>  0.0030  0.0031  0.0000 </r>
        <r>  0.0016  0.0016  0.0000 </r>
        <r>  0.0030  0.0031  0.0000 </r>
        <r>  0.0018  0.0064  0.0000 </r>
        <r>  0.0000  0.0001  0.0000 </r>
        <r>  0.0018  0.0064  0.0000 </r>
        <r>  0.0018  0.0064  0.0000 </r>
        <r>  0.0000  0.0009  0.0000 </r>
        <r>  0.0030  0.0031  0.0000 </r>
        <r>  0.0039  0.0005  0.0000 </r>
        <r>  0.0000  0.0009  0.0000 </r>
        <r>  0.0030  0.0031  0.0000 </r>
        <r>  0.0000  0.0001  0.0000 </r>
        <r>  0.0016  0.0016  0.0000 </r>
        <r>  0.0030  0.0031  0.0000 </r>
        <r>  0.0000  0.0009  0.0000 </r>
        <r>  0.0039  0.0005  0.0000 </r>
        <r>  0.0016  0.0016  0.0000 </r>
        <r>  0.0000  0.0009  0.0000 </r>
        <r>  0.0016  0.0016  0.0000 </r>
        <r>  0.0000  0.0000  0.0000 </r>
        <r>  0.0004  0.0013  0.0000 </r>
        <r>  0.0004  0.0013  0.0000 </r>
        <r>  0.0019  0.0041  0.0000 </r>
        <r>  0.0000  0.0017  0.0000 </r>
        <r>  0.0004  0.0013  0.0000 </r>
        <r>  0.0019  0.0041  0.0000 </r>
        <r>  0.0004  0.0013  0.0000 </r>
        <r>  0.0010  0.0028  0.0000 </r>
        <r>  0.0004  0.0013  0.0000 </r>
        <r>  0.0000  0.0017  0.0000 </r>
        <r>  0.0019  0.0041  0.0000 </r>
        <r>  0.0000  0.0017  0.0000 </r>
        <r>  0.0000  0.0017  0.0000 </r>
        <r>  0.0004  0.0120  0.0000 </r>
        <r>  0.0004  0.0013  0.0000 </r>
        <r>  0.0000  0.0024  0.0000 </r>
        <r>  0.0004  0.0120  0.0000 </r>
        <r>  0.0004  0.0013  0.0000 </r>
        <r>  0.0019  0.0041  0.0000 </r>
        <r>  0.0010  0.0028  0.0000 </r>
        <r>  0.0004  0.0013  0.0000 </r>
        <r>  0.0004  0.0120  0.0000 </r>
        <r>  0.0000  0.0024  0.0000 </r>
        <r>  0.0010  0.0028  0.0000 </r>
        <r>  0.0004  0.0120  0.0000 </r>
        <r>  0.0010  0.0028  0.0000 </r>
       </set>
       <set comment="band 139">
        <r>  0.0001  0.0029  0.0000 </r>
        <r>  0.0001  0.0029  0.0000 </r>
        <r>  0.0002  0.0051  0.0000 </r>
        <r>  0.0003  0.0071  0.0000 </r>
        <r>  0.0001  0.0029  0.0000 </r>
        <r>  0.0002  0.0051  0.0000 </r>
        <r>  0.0001  0.0029  0.0000 </r>
        <r>  0.0008  0.0066  0.0000 </r>
        <r>  0.0001  0.0029  0.0000 </r>
        <r>  0.0003  0.0071  0.0000 </r>
        <r>  0.0002  0.0051  0.0000 </r>
        <r>  0.0003  0.0071  0.0000 </r>
        <r>  0.0003  0.0071  0.0000 </r>
        <r>  0.0002  0.0031  0.0000 </r>
        <r>  0.0001  0.0029  0.0000 </r>
        <r>  0.0000  0.0001  0.0000 </r>
        <r>  0.0002  0.0031  0.0000 </r>
        <r>  0.0001  0.0029  0.0000 </r>
        <r>  0.0002  0.0051  0.0000 </r>
        <r>  0.0008  0.0066  0.0000 </r>
        <r>  0.0001  0.0029  0.0000 </r>
        <r>  0.0002  0.0031  0.0000 </r>
        <r>  0.0000  0.0001  0.0000 </r>
        <r>  0.0008  0.0066  0.0000 </r>
        <r>  0.0002  0.0031  0.0000 </r>
        <r>  0.0008  0.0066  0.0000 </r>
        <r>  0.0000  0.0002  0.0000 </r>
        <r>  0.0006  0.0032  0.0000 </r>
        <r>  0.0006  0.0032  0.0000 </r>
        <r>  0.0003  0.0043  0.0000 </r>
        <r>  0.0007  0.0025  0.0000 </r>
        <r>  0.0006  0.0032  0.0000 </r>
        <r>  0.0003  0.0043  0.0000 </r>
        <r>  0.0006  0.0032  0.0000 </r>
        <r>  0.0006  0.0013  0.0000 </r>
        <r>  0.0006  0.0032  0.0000 </r>
        <r>  0.0007  0.0025  0.0000 </r>
        <r>  0.0003  0.0043  0.0000 </r>
        <r>  0.0007  0.0025  0.0000 </r>
        <r>  0.0007  0.0025  0.0000 </r>
        <r>  0.0030  0.0023  0.0000 </r>
        <r>  0.0006  0.0032  0.0000 </r>
        <r>  0.0000  0.0001  0.0000 </r>
        <r>  0.0030  0.0023  0.0000 </r>
        <r>  0.0006  0.0032  0.0000 </r>
        <r>  0.0003  0.0043  0.0000 </r>
        <r>  0.0006  0.0013  0.0000 </r>
        <r>  0.0006  0.0032  0.0000 </r>
        <r>  0.0030  0.0023  0.0000 </r>
        <r>  0.0000  0.0001  0.0000 </r>
        <r>  0.0006  0.0013  0.0000 </r>
        <r>  0.0030  0.0023  0.0000 </r>
        <r>  0.0006  0.0013  0.0000 </r>
       </set>
       <set comment="band 140">
        <r>  0.0003  0.0087  0.0000 </r>
        <r>  0.0003  0.0087  0.0000 </r>
        <r>  0.0007  0.0032  0.0000 </r>
        <r>  0.0008  0.0030  0.0000 </r>
        <r>  0.0003  0.0087  0.0000 </r>
        <r>  0.0007  0.0032  0.0000 </r>
        <r>  0.0003  0.0087  0.0000 </r>
        <r>  0.0011  0.0032  0.0000 </r>
        <r>  0.0003  0.0087  0.0000 </r>
        <r>  0.0008  0.0030  0.0000 </r>
        <r>  0.0007  0.0032  0.0000 </r>
        <r>  0.0008  0.0030  0.0000 </r>
        <r>  0.0008  0.0030  0.0000 </r>
        <r>  0.0003  0.0077  0.0000 </r>
        <r>  0.0003  0.0087  0.0000 </r>
        <r>  0.0000  0.0002  0.0000 </r>
        <r>  0.0003  0.0077  0.0000 </r>
        <r>  0.0003  0.0087  0.0000 </r>
        <r>  0.0007  0.0032  0.0000 </r>
        <r>  0.0011  0.0032  0.0000 </r>
        <r>  0.0003  0.0087  0.0000 </r>
        <r>  0.0003  0.0077  0.0000 </r>
        <r>  0.0000  0.0002  0.0000 </r>
        <r>  0.0011  0.0032  0.0000 </r>
        <r>  0.0003  0.0077  0.0000 </r>
        <r>  0.0011  0.0032  0.0000 </r>
        <r>  0.0040  0.0000  0.0000 </r>
        <r>  0.0003  0.0058  0.0000 </r>
        <r>  0.0003  0.0058  0.0000 </r>
        <r>  0.0008  0.0020  0.0000 </r>
        <r>  0.0008  0.0033  0.0000 </r>
        <r>  0.0003  0.0058  0.0000 </r>
        <r>  0.0008  0.0020  0.0000 </r>
        <r>  0.0003  0.0058  0.0000 </r>
        <r>  0.0012  0.0024  0.0000 </r>
        <r>  0.0003  0.0058  0.0000 </r>
        <r>  0.0008  0.0033  0.0000 </r>
        <r>  0.0008  0.0020  0.0000 </r>
        <r>  0.0008  0.0033  0.0000 </r>
        <r>  0.0008  0.0033  0.0000 </r>
        <r>  0.0002  0.0063  0.0000 </r>
        <r>  0.0003  0.0058  0.0000 </r>
        <r>  0.0048  0.0000  0.0000 </r>
        <r>  0.0002  0.0063  0.0000 </r>
        <r>  0.0003  0.0058  0.0000 </r>
        <r>  0.0008  0.0020  0.0000 </r>
        <r>  0.0012  0.0024  0.0000 </r>
        <r>  0.0003  0.0058  0.0000 </r>
        <r>  0.0002  0.0063  0.0000 </r>
        <r>  0.0048  0.0000  0.0000 </r>
        <r>  0.0012  0.0024  0.0000 </r>
        <r>  0.0002  0.0063  0.0000 </r>
        <r>  0.0012  0.0024  0.0000 </r>
       </set>
       <set comment="band 141">
        <r>  0.0004  0.0022  0.0000 </r>
        <r>  0.0004  0.0022  0.0000 </r>
        <r>  0.0001  0.0049  0.0000 </r>
        <r>  0.0001  0.0074  0.0000 </r>
        <r>  0.0004  0.0022  0.0000 </r>
        <r>  0.0001  0.0049  0.0000 </r>
        <r>  0.0004  0.0022  0.0000 </r>
        <r>  0.0005  0.0054  0.0000 </r>
        <r>  0.0004  0.0022  0.0000 </r>
        <r>  0.0001  0.0074  0.0000 </r>
        <r>  0.0001  0.0049  0.0000 </r>
        <r>  0.0001  0.0074  0.0000 </r>
        <r>  0.0001  0.0074  0.0000 </r>
        <r>  0.0010  0.0025  0.0000 </r>
        <r>  0.0004  0.0022  0.0000 </r>
        <r>  0.0001  0.0012  0.0000 </r>
        <r>  0.0010  0.0025  0.0000 </r>
        <r>  0.0004  0.0022  0.0000 </r>
        <r>  0.0001  0.0049  0.0000 </r>
        <r>  0.0005  0.0054  0.0000 </r>
        <r>  0.0004  0.0022  0.0000 </r>
        <r>  0.0010  0.0025  0.0000 </r>
        <r>  0.0001  0.0012  0.0000 </r>
        <r>  0.0005  0.0054  0.0000 </r>
        <r>  0.0010  0.0025  0.0000 </r>
        <r>  0.0005  0.0054  0.0000 </r>
        <r>  0.0000  0.0134  0.0000 </r>
        <r>  0.0000  0.0019  0.0000 </r>
        <r>  0.0000  0.0019  0.0000 </r>
        <r>  0.0011  0.0026  0.0000 </r>
        <r>  0.0024  0.0023  0.0000 </r>
        <r>  0.0000  0.0019  0.0000 </r>
        <r>  0.0011  0.0026  0.0000 </r>
        <r>  0.0000  0.0019  0.0000 </r>
        <r>  0.0025  0.0026  0.0000 </r>
        <r>  0.0000  0.0019  0.0000 </r>
        <r>  0.0024  0.0023  0.0000 </r>
        <r>  0.0011  0.0026  0.0000 </r>
        <r>  0.0024  0.0023  0.0000 </r>
        <r>  0.0024  0.0023  0.0000 </r>
        <r>  0.0002  0.0017  0.0000 </r>
        <r>  0.0000  0.0019  0.0000 </r>
        <r>  0.0000  0.0057  0.0000 </r>
        <r>  0.0002  0.0017  0.0000 </r>
        <r>  0.0000  0.0019  0.0000 </r>
        <r>  0.0011  0.0026  0.0000 </r>
        <r>  0.0025  0.0026  0.0000 </r>
        <r>  0.0000  0.0019  0.0000 </r>
        <r>  0.0002  0.0017  0.0000 </r>
        <r>  0.0000  0.0057  0.0000 </r>
        <r>  0.0025  0.0026  0.0000 </r>
        <r>  0.0002  0.0017  0.0000 </r>
        <r>  0.0025  0.0026  0.0000 </r>
       </set>
       <set comment="band 142">
        <r>  0.0017  0.0014  0.0000 </r>
        <r>  0.0017  0.0014  0.0000 </r>
        <r>  0.0027  0.0010  0.0000 </r>
        <r>  0.0071  0.0006  0.0000 </r>
        <r>  0.0017  0.0014  0.0000 </r>
        <r>  0.0027  0.0010  0.0000 </r>
        <r>  0.0017  0.0014  0.0000 </r>
        <r>  0.0023  0.0010  0.0000 </r>
        <r>  0.0017  0.0014  0.0000 </r>
        <r>  0.0071  0.0006  0.0000 </r>
        <r>  0.0027  0.0010  0.0000 </r>
        <r>  0.0071  0.0006  0.0000 </r>
        <r>  0.0071  0.0006  0.0000 </r>
        <r>  0.0023  0.0018  0.0000 </r>
        <r>  0.0017  0.0014  0.0000 </r>
        <r>  0.0000  0.0007  0.0000 </r>
        <r>  0.0023  0.0018  0.0000 </r>
        <r>  0.0017  0.0014  0.0000 </r>
        <r>  0.0027  0.0010  0.0000 </r>
        <r>  0.0023  0.0010  0.0000 </r>
        <r>  0.0017  0.0014  0.0000 </r>
        <r>  0.0023  0.0018  0.0000 </r>
        <r>  0.0000  0.0007  0.0000 </r>
        <r>  0.0023  0.0010  0.0000 </r>
        <r>  0.0023  0.0018  0.0000 </r>
        <r>  0.0023  0.0010  0.0000 </r>
        <r>  0.0000  0.0098  0.0000 </r>
        <r>  0.0000  0.0055  0.0000 </r>
        <r>  0.0000  0.0055  0.0000 </r>
        <r>  0.0000  0.0062  0.0000 </r>
        <r>  0.0000  0.0093  0.0000 </r>
        <r>  0.0000  0.0055  0.0000 </r>
        <r>  0.0000  0.0062  0.0000 </r>
        <r>  0.0000  0.0055  0.0000 </r>
        <r>  0.0001  0.0119  0.0000 </r>
        <r>  0.0000  0.0055  0.0000 </r>
        <r>  0.0000  0.0093  0.0000 </r>
        <r>  0.0000  0.0062  0.0000 </r>
        <r>  0.0000  0.0093  0.0000 </r>
        <r>  0.0000  0.0093  0.0000 </r>
        <r>  0.0010  0.0025  0.0000 </r>
        <r>  0.0000  0.0055  0.0000 </r>
        <r>  0.0001  0.0085  0.0000 </r>
        <r>  0.0010  0.0025  0.0000 </r>
        <r>  0.0000  0.0055  0.0000 </r>
        <r>  0.0000  0.0062  0.0000 </r>
        <r>  0.0001  0.0118  0.0000 </r>
        <r>  0.0000  0.0055  0.0000 </r>
        <r>  0.0010  0.0025  0.0000 </r>
        <r>  0.0001  0.0085  0.0000 </r>
        <r>  0.0001  0.0119  0.0000 </r>
        <r>  0.0010  0.0025  0.0000 </r>
        <r>  0.0001  0.0119  0.0000 </r>
       </set>
       <set comment="band 143">
        <r>  0.0011  0.0055  0.0000 </r>
        <r>  0.0011  0.0055  0.0000 </r>
        <r>  0.0002  0.0066  0.0000 </r>
        <r>  0.0000  0.0025  0.0000 </r>
        <r>  0.0011  0.0055  0.0000 </r>
        <r>  0.0002  0.0066  0.0000 </r>
        <r>  0.0011  0.0055  0.0000 </r>
        <r>  0.0000  0.0105  0.0000 </r>
        <r>  0.0011  0.0055  0.0000 </r>
        <r>  0.0000  0.0025  0.0000 </r>
        <r>  0.0002  0.0066  0.0000 </r>
        <r>  0.0000  0.0025  0.0000 </r>
        <r>  0.0000  0.0025  0.0000 </r>
        <r>  0.0001  0.0105  0.0000 </r>
        <r>  0.0011  0.0055  0.0000 </r>
        <r>  0.0000  0.0000  0.0000 </r>
        <r>  0.0001  0.0105  0.0000 </r>
        <r>  0.0011  0.0055  0.0000 </r>
        <r>  0.0002  0.0066  0.0000 </r>
        <r>  0.0000  0.0105  0.0000 </r>
        <r>  0.0011  0.0055  0.0000 </r>
        <r>  0.0001  0.0105  0.0000 </r>
        <r>  0.0000  0.0000  0.0000 </r>
        <r>  0.0000  0.0105  0.0000 </r>
        <r>  0.0001  0.0105  0.0000 </r>
        <r>  0.0000  0.0105  0.0000 </r>
        <r>  0.0000  0.0008  0.0000 </r>
        <r>  0.0021  0.0035  0.0000 </r>
        <r>  0.0021  0.0035  0.0000 </r>
        <r>  0.0010  0.0007  0.0000 </r>
        <r>  0.0041  0.0031  0.0000 </r>
        <r>  0.0021  0.0035  0.0000 </r>
        <r>  0.0010  0.0007  0.0000 </r>
        <r>  0.0021  0.0035  0.0000 </r>
        <r>  0.0035  0.0011  0.0000 </r>
        <r>  0.0021  0.0035  0.0000 </r>
        <r>  0.0041  0.0031  0.0000 </r>
        <r>  0.0010  0.0007  0.0000 </r>
        <r>  0.0041  0.0031  0.0000 </r>
        <r>  0.0041  0.0031  0.0000 </r>
        <r>  0.0013  0.0002  0.0000 </r>
        <r>  0.0021  0.0035  0.0000 </r>
        <r>  0.0000  0.0004  0.0000 </r>
        <r>  0.0013  0.0002  0.0000 </r>
        <r>  0.0021  0.0035  0.0000 </r>
        <r>  0.0010  0.0007  0.0000 </r>
        <r>  0.0035  0.0011  0.0000 </r>
        <r>  0.0021  0.0035  0.0000 </r>
        <r>  0.0013  0.0002  0.0000 </r>
        <r>  0.0000  0.0004  0.0000 </r>
        <r>  0.0035  0.0011  0.0000 </r>
        <r>  0.0013  0.0002  0.0000 </r>
        <r>  0.0035  0.0011  0.0000 </r>
       </set>
       <set comment="band 144">
        <r>  0.0054  0.0011  0.0000 </r>
        <r>  0.0054  0.0011  0.0000 </r>
        <r>  0.0003  0.0024  0.0000 </r>
        <r>  0.0000  0.0013  0.0000 </r>
        <r>  0.0054  0.0011  0.0000 </r>
        <r>  0.0003  0.0024  0.0000 </r>
        <r>  0.0054  0.0011  0.0000 </r>
        <r>  0.0000  0.0006  0.0000 </r>
        <r>  0.0054  0.0011  0.0000 </r>
        <r>  0.0000  0.0013  0.0000 </r>
        <r>  0.0003  0.0024  0.0000 </r>
        <r>  0.0000  0.0013  0.0000 </r>
        <r>  0.0000  0.0013  0.0000 </r>
        <r>  0.0068  0.0009  0.0000 </r>
        <r>  0.0054  0.0011  0.0000 </r>
        <r>  0.0000  0.0015  0.0000 </r>
        <r>  0.0068  0.0009  0.0000 </r>
        <r>  0.0054  0.0011  0.0000 </r>
        <r>  0.0003  0.0024  0.0000 </r>
        <r>  0.0000  0.0006  0.0000 </r>
        <r>  0.0054  0.0011  0.0000 </r>
        <r>  0.0068  0.0009  0.0000 </r>
        <r>  0.0000  0.0015  0.0000 </r>
        <r>  0.0000  0.0006  0.0000 </r>
        <r>  0.0068  0.0009  0.0000 </r>
        <r>  0.0000  0.0006  0.0000 </r>
        <r>  0.0000  0.0143  0.0000 </r>
        <r>  0.0003  0.0035  0.0000 </r>
        <r>  0.0003  0.0035  0.0000 </r>
        <r>  0.0007  0.0075  0.0000 </r>
        <r>  0.0000  0.0053  0.0000 </r>
        <r>  0.0003  0.0035  0.0000 </r>
        <r>  0.0007  0.0075  0.0000 </r>
        <r>  0.0003  0.0035  0.0000 </r>
        <r>  0.0001  0.0103  0.0000 </r>
        <r>  0.0003  0.0035  0.0000 </r>
        <r>  0.0000  0.0053  0.0000 </r>
        <r>  0.0007  0.0075  0.0000 </r>
        <r>  0.0000  0.0053  0.0000 </r>
        <r>  0.0000  0.0053  0.0000 </r>
        <r>  0.0009  0.0041  0.0000 </r>
        <r>  0.0003  0.0035  0.0000 </r>
        <r>  0.0000  0.0169  0.0000 </r>
        <r>  0.0009  0.0041  0.0000 </r>
        <r>  0.0003  0.0035  0.0000 </r>
        <r>  0.0007  0.0075  0.0000 </r>
        <r>  0.0001  0.0103  0.0000 </r>
        <r>  0.0003  0.0035  0.0000 </r>
        <r>  0.0009  0.0041  0.0000 </r>
        <r>  0.0000  0.0169  0.0000 </r>
        <r>  0.0001  0.0103  0.0000 </r>
        <r>  0.0009  0.0041  0.0000 </r>
        <r>  0.0001  0.0103  0.0000 </r>
       </set>
      </set>
     </set>
    </set>
   </array>
  </projected>
 </calculation>
 <structure name="finalpos" >
  <crystal>
   <varray name="basis" >
    <v>       9.97646553       0.00000000       5.75991507 </v>
    <v>       3.32548851       9.40590192       5.75991507 </v>
    <v>       0.00000000       0.00000000      11.51983014 </v>
   </varray>
   <i name="volume">   1080.99386112 </i>
   <varray name="rec_basis" >
    <v>       0.10023590      -0.03543874       0.00000000 </v>
    <v>       0.00000000       0.10631623       0.00000000 </v>
    <v>      -0.05011795      -0.03543874       0.08680684 </v>
   </varray>
  </crystal>
  <varray name="positions" >
   <v>       0.29181966       0.29181966       0.62119227 </v>
   <v>       0.29181966       0.29181966       0.96183508 </v>
   <v>       0.29181966       0.62119227       0.29181966 </v>
   <v>       0.29149370       0.62505766       0.62505766 </v>
   <v>       0.29181966       0.62119227       0.96183508 </v>
   <v>       0.29181966       0.96183508       0.29181966 </v>
   <v>       0.29181966       0.96183508       0.62119227 </v>
   <v>       0.29165725       0.95833647       0.95833647 </v>
   <v>       0.62119227       0.29181966       0.29181966 </v>
   <v>       0.62505766       0.29149370       0.62505766 </v>
   <v>       0.62119227       0.29181966       0.96183508 </v>
   <v>       0.62505766       0.62505766       0.29149370 </v>
   <v>       0.62505766       0.62505766       0.62505766 </v>
   <v>       0.62466502       0.62466502       0.95866831 </v>
   <v>       0.62119227       0.96183508       0.29181966 </v>
   <v>       0.62466502       0.95866831       0.62466502 </v>
   <v>       0.62466502       0.95866831       0.95866831 </v>
   <v>       0.96183508       0.29181966       0.29181966 </v>
   <v>       0.96183508       0.29181966       0.62119227 </v>
   <v>       0.95833647       0.29165725       0.95833647 </v>
   <v>       0.96183508       0.62119227       0.29181966 </v>
   <v>       0.95866831       0.62466502       0.62466502 </v>
   <v>       0.95866831       0.62466502       0.95866831 </v>
   <v>       0.95833647       0.95833647       0.29165725 </v>
   <v>       0.95866831       0.95866831       0.62466502 </v>
   <v>       0.95833647       0.95833647       0.95833647 </v>
   <v>       0.04166667       0.04166667       0.04166667 </v>
   <v>       0.04184342       0.04184342       0.37466618 </v>
   <v>       0.04184342       0.04184342       0.70831364 </v>
   <v>       0.04184342       0.37466618       0.04184342 </v>
   <v>       0.05685438       0.36993743       0.36993743 </v>
   <v>       0.04184342       0.37466618       0.70831364 </v>
   <v>       0.04184342       0.70831364       0.04184342 </v>
   <v>       0.04184342       0.70831364       0.37466618 </v>
   <v>       0.04142815       0.70841284       0.70841284 </v>
   <v>       0.37466618       0.04184342       0.04184342 </v>
   <v>       0.36993743       0.05685438       0.36993743 </v>
   <v>       0.37466618       0.04184342       0.70831364 </v>
   <v>       0.36993743       0.36993743       0.05685438 </v>
   <v>       0.36993743       0.36993743       0.36993743 </v>
   <v>       0.37526452       0.37526452       0.70806881 </v>
   <v>       0.37466618       0.70831364       0.04184342 </v>
   <v>       0.37526452       0.70806881       0.37526452 </v>
   <v>       0.37526452       0.70806881       0.70806881 </v>
   <v>       0.70831364       0.04184342       0.04184342 </v>
   <v>       0.70831364       0.04184342       0.37466618 </v>
   <v>       0.70841284       0.04142815       0.70841284 </v>
   <v>       0.70831364       0.37466618       0.04184342 </v>
   <v>       0.70806881       0.37526452       0.37526452 </v>
   <v>       0.70806881       0.37526452       0.70806881 </v>
   <v>       0.70841284       0.70841284       0.04142815 </v>
   <v>       0.70806881       0.70806881       0.37526452 </v>
   <v>       0.70841284       0.70841284       0.70841284 </v>
  </varray>
 </structure>
</modeling>
