 vasp.5.4.4.18Apr17-6-g9f103f2a35 (build Jun 19 2019 10:34:07) complex          
  
 executed on               LB-5.4 date 2023.05.15  18:32:34
 running on   96 total cores
 distrk:  each k-point on   24 cores,    4 groups
 distr:  one band on NCORES_PER_BAND=   1 cores,   24 groups


--------------------------------------------------------------------------------------------------------


 INCAR:
 POTCAR:    PAW_PBE Si 05Jan2001                  

 ----------------------------------------------------------------------------- 
|                                                                             |
|           W    W    AA    RRRRR   N    N  II  N    N   GGGG   !!!           |
|           W    W   A  A   R    R  NN   N  II  NN   N  G    G  !!!           |
|           W    W  A    A  R    R  N N  N  II  N N  N  G       !!!           |
|           W WW W  AAAAAA  RRRRR   N  N N  II  N  N N  G  GGG   !            |
|           WW  WW  A    A  R   R   N   NN  II  N   NN  G    G                |
|           W    W  A    A  R    R  N    N  II  N    N   GGGG   !!!           |
|                                                                             |
|      For optimal performance we recommend to set                            |
|        NCORE= 4 - approx SQRT( number of cores)                             |
|      NCORE specifies how many cores store one orbital (NPAR=cpu/NCORE).     |
|      This setting can  greatly improve the performance of VASP for DFT.     |
|      The default,   NCORE=1            might be grossly inefficient         |
|      on modern multi-core architectures or massively parallel machines.     |
|      Do your own testing !!!!                                               |
|      Unfortunately you need to use the default for GW and RPA calculations. |
|      (for HF NCORE is supported but not extensively tested yet)             |
|                                                                             |
 ----------------------------------------------------------------------------- 


 ----------------------------------------------------------------------------- 
|                                                                             |
|           W    W    AA    RRRRR   N    N  II  N    N   GGGG   !!!           |
|           W    W   A  A   R    R  NN   N  II  NN   N  G    G  !!!           |
|           W    W  A    A  R    R  N N  N  II  N N  N  G       !!!           |
|           W WW W  AAAAAA  RRRRR   N  N N  II  N  N N  G  GGG   !            |
|           WW  WW  A    A  R   R   N   NN  II  N   NN  G    G                |
|           W    W  A    A  R    R  N    N  II  N    N   GGGG   !!!           |
|                                                                             |
|      You have enabled k-point parallelism (KPAR>1).                         |
|      This developmental code was originally  written by Paul Kent at ORNL,  |
|      and carefully double checked in Vienna.                                |
|      GW as well as linear response parallelism added by Martijn Marsman     |
|      and Georg Kresse.                                                      |
|      Carefully verify results versus KPAR=1.                                |
|      Report problems to Paul Kent and Vienna.                               |
|                                                                             |
 ----------------------------------------------------------------------------- 

 POTCAR:    PAW_PBE Si 05Jan2001                  
   VRHFIN =Si: s2p2                                                             
   LEXCH  = PE                                                                  
   EATOM  =   103.0669 eV,    7.5752 Ry                                         
                                                                                
   TITEL  = PAW_PBE Si 05Jan2001                                                
   LULTRA =        F    use ultrasoft PP ?                                      
   IUNSCR =        1    unscreen: 0-lin 1-nonlin 2-no                           
   RPACOR =    1.500    partial core radius                                     
   POMASS =   28.085; ZVAL   =    4.000    mass and valenz                      
   RCORE  =    1.900    outmost cutoff radius                                   
   RWIGS  =    2.480; RWIGS  =    1.312    wigner-seitz radius (au A)           
   ENMAX  =  245.345; ENMIN  =  184.009 eV                                      
   ICORE  =        2    local potential                                         
   LCOR   =        T    correct aug charges                                     
   LPAW   =        T    paw PP                                                  
   EAUG   =  322.069                                                            
   DEXC   =    0.000                                                            
   RMAX   =    1.950    core radius for proj-oper                               
   RAUG   =    1.300    factor for augmentation sphere                          
   RDEP   =    1.993    radius for radial grids                                 
   RDEPT  =    1.837    core radius for aug-charge                              
                                                                                
   Atomic configuration                                                         
    6 entries                                                                   
     n  l   j            E        occ.                                          
     1  0  0.50     -1785.8828   2.0000                                         
     2  0  0.50      -139.4969   2.0000                                         
     2  1  1.50       -95.5546   6.0000                                         
     3  0  0.50       -10.8127   2.0000                                         
     3  1  0.50        -4.0811   2.0000                                         
     3  2  1.50        -4.0817   0.0000                                         
   Description                                                                  
     l       E           TYP  RCUT    TYP  RCUT                                 
     0    -10.8127223     23  1.900                                             
     0     -7.6451159     23  1.900                                             
     1     -4.0811372     23  1.900                                             
     1      2.4879257     23  1.900                                             
     2     -4.0817478      7  1.900                                             
  local pseudopotential read in
  partial core-charges read in
  partial kinetic energy density read in
  atomic valenz-charges read in
  non local Contribution for L=           0  read in
    real space projection operators read in
  non local Contribution for L=           0  read in
    real space projection operators read in
  non local Contribution for L=           1  read in
    real space projection operators read in
  non local Contribution for L=           1  read in
    real space projection operators read in
    PAW grid and wavefunctions read in
 
   number of l-projection  operators is LMAX  =           4
   number of lm-projection operators is LMMAX =           8
 

 ----------------------------------------------------------------------------- 
|                                                                             |
|  ADVICE TO THIS USER RUNNING 'VASP/VAMP'   (HEAR YOUR MASTER'S VOICE ...):  |
|                                                                             |
|      You have a (more or less) 'large supercell' and for larger cells       |
|      it might be more efficient to use real space projection opertators     |
|      So try LREAL= Auto  in the INCAR   file.                               |
|      Mind:          For very  accurate calculation you might also keep the  |
|      reciprocal projection scheme          (i.e. LREAL=.FALSE.)             |
|                                                                             |
 ----------------------------------------------------------------------------- 

  PAW_PBE Si 05Jan2001                  :
 energy of atom  1       EATOM= -103.0669
 kinetic energy error for atom=    0.0004 (will be added to EATOM!!)
 
 
 POSCAR: Si55                                    
  positions in direct lattice
  No initial velocities read in
 exchange correlation table for  LEXCH =        8
   RHO(1)=    0.500       N(1)  =     2000
   RHO(2)=  100.500       N(2)  =     4000
 


--------------------------------------------------------------------------------------------------------


 ion  position               nearest neighbor table
   1  0.292  0.292  0.292-  32 2.35  40 2.35  41 2.35  38 2.35
   2  0.292  0.292  0.625-  33 2.35  41 2.35  42 2.35  39 2.35
   3  0.292  0.292  0.958-  31 2.35  40 2.35  42 2.35  37 2.35
   4  0.292  0.625  0.292-  35 2.35  43 2.35  44 2.35  41 2.35
   5  0.292  0.625  0.625-  36 2.35  44 2.35  45 2.35  42 2.35
   6  0.292  0.625  0.958-  34 2.35  43 2.35  45 2.35  40 2.35
   7  0.292  0.958  0.292-  29 2.35  37 2.35  38 2.35  44 2.35
   8  0.292  0.958  0.625-  30 2.35  38 2.35  39 2.35  45 2.35
   9  0.292  0.958  0.958-  28 2.35  37 2.35  39 2.35  43 2.35
  10  0.625  0.292  0.292-  41 2.35  49 2.35  50 2.35  47 2.35
  11  0.625  0.292  0.625-  55 2.25  42 2.35  50 2.35  51 2.35  48 2.35
  12  0.625  0.292  0.958-  40 2.35  49 2.35  51 2.35  46 2.35
  13  0.625  0.625  0.292-  55 2.25  44 2.35  52 2.35  53 2.35  50 2.35
  14  0.625  0.625  0.625-  55 2.25  45 2.35  53 2.35  54 2.35  51 2.35
  15  0.625  0.625  0.958-  43 2.35  52 2.35  54 2.35  49 2.35
  16  0.625  0.958  0.292-  38 2.35  46 2.35  47 2.35  53 2.35
  17  0.625  0.958  0.625-  39 2.35  47 2.35  48 2.35  54 2.35
  18  0.625  0.958  0.958-  37 2.35  46 2.35  48 2.35  52 2.35
  19  0.958  0.292  0.292-  50 2.35  32 2.35  31 2.35  29 2.35
  20  0.958  0.292  0.625-  51 2.35  33 2.35  32 2.35  30 2.35
  21  0.958  0.292  0.958-  49 2.35  31 2.35  33 2.35  28 2.35
  22  0.958  0.625  0.292-  53 2.35  35 2.35  34 2.35  32 2.35
  23  0.958  0.625  0.625-  54 2.35  36 2.35  35 2.35  33 2.35
  24  0.958  0.625  0.958-  52 2.35  34 2.35  36 2.35  31 2.35
  25  0.958  0.958  0.292-  47 2.35  29 2.35  28 2.35  35 2.35
  26  0.958  0.958  0.625-  48 2.35  30 2.35  29 2.35  36 2.35
  27  0.958  0.958  0.958-  46 2.35  28 2.35  30 2.35  34 2.35
  28  0.042  0.042  0.042-   9 2.35  27 2.35  25 2.35  21 2.35
  29  0.042  0.042  0.375-   7 2.35  25 2.35  26 2.35  19 2.35
  30  0.042  0.042  0.708-   8 2.35  26 2.35  27 2.35  20 2.35
  31  0.042  0.375  0.042-   3 2.35  21 2.35  19 2.35  24 2.35
  32  0.042  0.375  0.375-   1 2.35  19 2.35  20 2.35  22 2.35
  33  0.042  0.375  0.708-   2 2.35  20 2.35  21 2.35  23 2.35
  34  0.042  0.708  0.042-   6 2.35  24 2.35  22 2.35  27 2.35
  35  0.042  0.708  0.375-   4 2.35  22 2.35  23 2.35  25 2.35
  36  0.042  0.708  0.708-   5 2.35  23 2.35  24 2.35  26 2.35
  37  0.375  0.042  0.042-  18 2.35   9 2.35   7 2.35   3 2.35
  38  0.375  0.042  0.375-  16 2.35   8 2.35   7 2.35   1 2.35
  39  0.375  0.042  0.708-  17 2.35   9 2.35   8 2.35   2 2.35
  40  0.375  0.375  0.042-  12 2.35   3 2.35   1 2.35   6 2.35
  41  0.375  0.375  0.375-  10 2.35   2 2.35   1 2.35   4 2.35
  42  0.375  0.375  0.708-  11 2.35   3 2.35   2 2.35   5 2.35
  43  0.375  0.708  0.042-  15 2.35   6 2.35   4 2.35   9 2.35
  44  0.375  0.708  0.375-  13 2.35   5 2.35   4 2.35   7 2.35
  45  0.375  0.708  0.708-  14 2.35   6 2.35   5 2.35   8 2.35
  46  0.708  0.042  0.042-  27 2.35  18 2.35  16 2.35  12 2.35
  47  0.708  0.042  0.375-  25 2.35  17 2.35  16 2.35  10 2.35
  48  0.708  0.042  0.708-  26 2.35  18 2.35  17 2.35  11 2.35
  49  0.708  0.375  0.042-  21 2.35  12 2.35  10 2.35  15 2.35
  50  0.708  0.375  0.375-  55 2.25  19 2.35  11 2.35  10 2.35  13 2.35
  51  0.708  0.375  0.708-  55 2.25  20 2.35  12 2.35  11 2.35  14 2.35
  52  0.708  0.708  0.042-  24 2.35  15 2.35  13 2.35  18 2.35
  53  0.708  0.708  0.375-  55 2.25  22 2.35  14 2.35  13 2.35  16 2.35
  54  0.708  0.708  0.708-  23 2.35  15 2.35  14 2.35  17 2.35
  55  0.667  0.500  0.500-  50 2.25  11 2.25  13 2.25  53 2.25  14 2.25  51 2.25
 
  LATTYP: Found a face centered cubic cell.
 ALAT       =    16.2915000202
  
  Lattice vectors:
  
 A1 = (   9.9764655300,   0.0000000000,   5.7599150700)
 A2 = (   3.3254885100,   9.4059019200,   5.7599150700)
 A3 = (   0.0000000000,   0.0000000000,  11.5198301400)


Analysis of symmetry for initial positions (statically):
=====================================================================
 Subroutine PRICEL returns:
 Original cell was already a primitive cell.
 

 Routine SETGRP: Setting up the symmetry group for a 
 face centered cubic supercell.


 Subroutine GETGRP returns: Found 12 space group operations
 (whereof  2 operations were pure point group operations)
 out of a pool of 48 trial point group operations.


The static configuration has the point symmetry C_1h.
 The point group associated with its full space group is D_3d.


Analysis of symmetry for dynamics (positions and initial velocities):
=====================================================================
 Subroutine PRICEL returns:
 Original cell was already a primitive cell.
 

 Routine SETGRP: Setting up the symmetry group for a 
 face centered cubic supercell.


 Subroutine GETGRP returns: Found 12 space group operations
 (whereof  2 operations were pure point group operations)
 out of a pool of 48 trial point group operations.


The dynamic configuration has the point symmetry C_1h.
 The point group associated with its full space group is D_3d.


 Subroutine INISYM returns: Found 12 space group operations
 (whereof  2 operations are pure point group operations),
 and found     1 'primitive' translations

 
 
 KPOINTS: Automatic kpoint scheme                 

Automatic generation of k-mesh.
Space group operators:
 irot       det(A)        alpha          n_x          n_y          n_z        tau_x        tau_y        tau_z
    1     1.000000     0.000000     1.000000     0.000000     0.000000     0.000000     0.000000     0.000000
    2    -1.000000   180.000000     0.288675     0.816497    -0.500000     0.000000     0.000000     0.000000
    3    -1.000000     0.000000     1.000000     0.000000     0.000000     0.333333     0.000000     0.000000
    4     1.000000   120.000000     0.942809    -0.333333     0.000000     0.000000     0.000000     0.166667
    5    -1.000000   120.000000     0.942809    -0.333333     0.000000     0.333333     0.000000     0.833333
    6     1.000000   180.000000     0.288675     0.816497     0.500000     0.333333     0.833333    -0.000000
    7    -1.000000   180.000000     0.288675     0.816497     0.500000    -0.000000     0.166667     0.000000
    8     1.000000   180.000000     0.000000    -0.000000     1.000000     0.333333     0.000000     0.833333
    9    -1.000000   180.000000     0.000000    -0.000000     1.000000     0.000000     0.000000     0.166667
   10     1.000000   120.000000    -0.942809     0.333333     0.000000     0.000000     0.166667    -0.000000
   11    -1.000000   120.000000    -0.942809     0.333333     0.000000     0.333333     0.833333    -0.000000
   12     1.000000   180.000000     0.288675     0.816497    -0.500000     0.333333     0.000000     0.000000
 
 Subroutine IBZKPT returns following result:
 ===========================================
 
 Found     13 irreducible k-points:
 
 Following reciprocal coordinates:
            Coordinates               Weight
  0.000000  0.000000  0.000000      1.000000
  0.250000  0.000000  0.000000      2.000000
  0.500000  0.000000  0.000000      1.000000
  0.000000  0.250000  0.000000      6.000000
  0.250000  0.250000  0.000000      6.000000
  0.500000  0.250000  0.000000      6.000000
 -0.250000  0.250000  0.000000      6.000000
  0.000000  0.500000  0.000000      3.000000
  0.250000  0.500000  0.000000      6.000000
  0.500000  0.500000  0.000000      3.000000
  0.000000  0.500000  0.250000     12.000000
  0.250000  0.500000  0.250000      6.000000
 -0.250000  0.500000  0.250000      6.000000
 
 Following cartesian coordinates:
            Coordinates               Weight
  0.000000  0.000000  0.000000      1.000000
  0.025059 -0.008860  0.000000      2.000000
  0.050118 -0.017719  0.000000      1.000000
  0.000000  0.026579  0.000000      6.000000
  0.025059  0.017719  0.000000      6.000000
  0.050118  0.008860  0.000000      6.000000
 -0.025059  0.035439  0.000000      6.000000
  0.000000  0.053158  0.000000      3.000000
  0.025059  0.044298  0.000000      6.000000
  0.050118  0.035439  0.000000      3.000000
 -0.012529  0.044298  0.021702     12.000000
  0.012529  0.035439  0.021702      6.000000
 -0.037588  0.053158  0.021702      6.000000
 


--------------------------------------------------------------------------------------------------------




 Dimension of arrays:
   k-points           NKPTS =     13   k-points in BZ     NKDIM =     13   number of bands    NBANDS=    144
   number of dos      NEDOS =    301   number of ions     NIONS =     55
   non local maximal  LDIM  =      4   non local SUM 2l+1 LMDIM =      8
   total plane-waves  NPLWV = 343000
   max r-space proj   IRMAX =      1   max aug-charges    IRDMAX=  10807
   dimension x,y,z NGX =    70 NGY =   70 NGZ =   70
   dimension x,y,z NGXF=   140 NGYF=  140 NGZF=  140
   support grid    NGXF=   140 NGYF=  140 NGZF=  140
   ions per type =              55
   NGX,Y,Z   is equivalent  to a cutoff of  10.10, 10.10, 10.10 a.u.
   NGXF,Y,Z  is equivalent  to a cutoff of  20.20, 20.20, 20.20 a.u.

 SYSTEM =  Si                                      
 POSCAR =  Si55                                    

 Startparameter for this run:
   NWRITE =      2    write-flag & timer
   PREC   = normal    normal or accurate (medium, high low for compatibility)
   ISTART =      0    job   : 0-new  1-cont  2-samecut
   ICHARG =      2    charge: 1-file 2-atom 10-const
   ISPIN  =      1    spin polarized calculation?
   LNONCOLLINEAR =      F non collinear calculations
   LSORBIT =      F    spin-orbit coupling
   INIWAV =      1    electr: 0-lowe 1-rand  2-diag
   LASPH  =      F    aspherical Exc in radial PAW
   METAGGA=      F    non-selfconsistent MetaGGA calc.

 Electronic Relaxation 1
   ENCUT  =  550.0 eV  40.42 Ry    6.36 a.u.  22.03 22.03 22.03*2*pi/ulx,y,z
   ENINI  =  550.0     initial cutoff
   ENAUG  =  322.1 eV  augmentation charge cutoff
   NELM   =    200;   NELMIN=  2; NELMDL= -5     # of ELM steps 
   EDIFF  = 0.1E-05   stopping-criterion for ELM
   LREAL  =      F    real-space projection
   NLSPLINE    = F    spline interpolate recip. space projectors
   LCOMPAT=      F    compatible to vasp.4.4
   GGA_COMPAT  = T    GGA compatible to vasp.4.4-vasp.4.6
   LMAXPAW     = -100 max onsite density
   LMAXMIX     =    2 max onsite mixed and CHGCAR
   VOSKOWN=      0    Vosko Wilk Nusair interpolation
   ROPT   =    0.00000
 Ionic relaxation
   EDIFFG = -.5E-01   stopping-criterion for IOM
   NSW    =      0    number of steps for IOM
   NBLOCK =      1;   KBLOCK =      1    inner block; outer block 
   IBRION =     -1    ionic relax: 0-MD 1-quasi-New 2-CG
   NFREE  =      1    steps in history (QN), initial steepest desc. (CG)
   ISIF   =      2    stress and relaxation
   IWAVPR =     10    prediction:  0-non 1-charg 2-wave 3-comb
   ISYM   =      2    0-nonsym 1-usesym 2-fastsym
   LCORR  =      T    Harris-Foulkes like correction to forces

   POTIM  = 0.5000    time-step for ionic-motion
   TEIN   =    0.0    initial temperature
   TEBEG  =    0.0;   TEEND  =   0.0 temperature during run
   SMASS  =  -3.00    Nose mass-parameter (am)
   estimated Nose-frequenzy (Omega)   =  0.10E-29 period in steps =****** mass=  -0.303E-26a.u.
   SCALEE = 1.0000    scale energy and forces
   NPACO  =    256;   APACO  = 16.0  distance and # of slots for P.C.
   PSTRESS=    0.0 pullay stress

  Mass of Ions in am
   POMASS =  28.09
  Ionic Valenz
   ZVAL   =   4.00
  Atomic Wigner-Seitz radii
   RWIGS  =  -1.00
  virtual crystal weights 
   VCA    =   1.00
   NELECT =     219.0000    total number of electrons
   NUPDOWN=      -1.0000    fix difference up-down

 DOS related values:
   EMIN   =  10.00;   EMAX   =-10.00  energy-range for DOS
   EFERMI =   0.00
   ISMEAR =     0;   SIGMA  =   0.05  broadening in eV -4-tet -1-fermi 0-gaus

 Electronic relaxation 2 (details)
   IALGO  =     38    algorithm
   LDIAG  =      T    sub-space diagonalisation (order eigenvalues)
   LSUBROT=      F    optimize rotation matrix (better conditioning)
   TURBO    =      0    0=normal 1=particle mesh
   IRESTART =      0    0=no restart 2=restart with 2 vectors
   NREBOOT  =      0    no. of reboots
   NMIN     =      0    reboot dimension
   EREF     =   0.00    reference energy to select bands
   IMIX   =      4    mixing-type and parameters
     AMIX     =   0.20;   BMIX     =  1.00
     AMIX_MAG =   0.80;   BMIX_MAG =  1.00
     AMIN     =   0.10
     WC   =   100.;   INIMIX=   1;  MIXPRE=   1;  MAXMIX= -45

 Intra band minimization:
   WEIMIN = 0.0000     energy-eigenvalue tresh-hold
   EBREAK =  0.17E-08  absolut break condition
   DEPER  =   0.30     relativ break condition  

   TIME   =   0.40     timestep for ELM

  volume/ion in A,a.u.               =      19.65       132.63
  Fermi-wavevector in a.u.,A,eV,Ry     =   0.961498  1.816968 12.578297  0.924479
  Thomas-Fermi vector in A             =   2.090875
 
 Write flags
   LWAVE        =      T    write WAVECAR
   LDOWNSAMPLE  =      F    k-point downsampling of WAVECAR
   LCHARG       =      T    write CHGCAR
   LVTOT        =      F    write LOCPOT, total local potential
   LVHAR        =      F    write LOCPOT, Hartree potential only
   LELF         =      F    write electronic localiz. function (ELF)
   LORBIT       =     10    0 simple, 1 ext, 2 COOP (PROOUT), +10 PAW based schemes


 Dipole corrections
   LMONO  =      F    monopole corrections only (constant potential shift)
   LDIPOL =      F    correct potential (dipole corrections)
   IDIPOL =      0    1-x, 2-y, 3-z, 4-all directions 
   EPSILON=  1.0000000 bulk dielectric constant

 Exchange correlation treatment:
   GGA     =    --    GGA type
   LEXCH   =     8    internal setting for exchange type
   VOSKOWN=      0    Vosko Wilk Nusair interpolation
   LHFCALC =     F    Hartree Fock is set to
   LHFONE  =     F    Hartree Fock one center treatment
   AEXX    =    0.0000 exact exchange contribution

 Linear response parameters
   LEPSILON=     F    determine dielectric tensor
   LRPA    =     F    only Hartree local field effects (RPA)
   LNABLA  =     F    use nabla operator in PAW spheres
   LVEL    =     F    velocity operator in full k-point grid
   LINTERFAST=   F  fast interpolation
   KINTER  =     0    interpolate to denser k-point grid
   CSHIFT  =0.1000    complex shift for real part using Kramers Kronig
   OMEGAMAX=  -1.0    maximum frequency
   DEG_THRESHOLD= 0.2000000E-02 threshold for treating states as degnerate
   RTIME   =   -0.100 relaxation time in fs
  (WPLASMAI=    0.000 imaginary part of plasma frequency in eV, 0.658/RTIME)
   DFIELD  = 0.0000000 0.0000000 0.0000000 field for delta impulse in time
 
 Orbital magnetization related:
   ORBITALMAG=     F  switch on orbital magnetization
   LCHIMAG   =     F  perturbation theory with respect to B field
   DQ        =  0.001000  dq finite difference perturbation B field
   LLRAUG    =     F  two centre corrections for induced B field



--------------------------------------------------------------------------------------------------------


 Static calculation
 charge density and potential will be updated during run
 non-spin polarized calculation
 Variant of blocked Davidson
 Davidson routine will perform the subspace rotation
 perform sub-space diagonalisation
    after iterative eigenvector-optimisation
 modified Broyden-mixing scheme, WC =      100.0
 initial mixing is a Kerker type mixing with AMIX =  0.2000 and BMIX =      1.0000
 Hartree-type preconditioning will be used
 using additional bands           34
 reciprocal scheme for non local part
 use partial core corrections
 calculate Harris-corrections to forces 
   (improved forces if not selfconsistent)
 use gradient corrections 
 use of overlap-Matrix (Vanderbilt PP)
 Gauss-broadening in eV      SIGMA  =   0.05


--------------------------------------------------------------------------------------------------------


  energy-cutoff  :      550.00
  volume of cell :     1080.99
      direct lattice vectors                 reciprocal lattice vectors
     9.976465530  0.000000000  5.759915070     0.100235900 -0.035438742  0.000000000
     3.325488510  9.405901920  5.759915070     0.000000000  0.106316227  0.000000000
     0.000000000  0.000000000 11.519830140    -0.050117950 -0.035438742  0.086806836

  length of vectors
    11.519830124 11.519830136 11.519830140     0.106316227  0.106316227  0.106316227


 
 k-points in units of 2pi/SCALE and weight: Automatic kpoint scheme                 
   0.00000000  0.00000000  0.00000000       0.016
   0.02505897 -0.00885969  0.00000000       0.031
   0.05011795 -0.01771937  0.00000000       0.016
   0.00000000  0.02657906  0.00000000       0.094
   0.02505897  0.01771937  0.00000000       0.094
   0.05011795  0.00885969  0.00000000       0.094
  -0.02505897  0.03543874  0.00000000       0.094
   0.00000000  0.05315811  0.00000000       0.047
   0.02505897  0.04429843  0.00000000       0.094
   0.05011795  0.03543874  0.00000000       0.047
  -0.01252949  0.04429843  0.02170171       0.188
   0.01252949  0.03543874  0.02170171       0.094
  -0.03758846  0.05315811  0.02170171       0.094
 
 k-points in reciprocal lattice and weights: Automatic kpoint scheme                 
   0.00000000  0.00000000  0.00000000       0.016
   0.25000000  0.00000000  0.00000000       0.031
   0.50000000  0.00000000  0.00000000       0.016
   0.00000000  0.25000000  0.00000000       0.094
   0.25000000  0.25000000  0.00000000       0.094
   0.50000000  0.25000000  0.00000000       0.094
  -0.25000000  0.25000000  0.00000000       0.094
   0.00000000  0.50000000  0.00000000       0.047
   0.25000000  0.50000000  0.00000000       0.094
   0.50000000  0.50000000  0.00000000       0.047
   0.00000000  0.50000000  0.25000000       0.188
   0.25000000  0.50000000  0.25000000       0.094
  -0.25000000  0.50000000  0.25000000       0.094
 
 position of ions in fractional coordinates (direct lattice) 
   0.29166667  0.29166667  0.29166667
   0.29166667  0.29166667  0.62500000
   0.29166667  0.29166667  0.95833333
   0.29166667  0.62500000  0.29166667
   0.29166667  0.62500000  0.62500000
   0.29166667  0.62500000  0.95833333
   0.29166667  0.95833333  0.29166667
   0.29166667  0.95833333  0.62500000
   0.29166667  0.95833333  0.95833333
   0.62500000  0.29166667  0.29166667
   0.62500000  0.29166667  0.62500000
   0.62500000  0.29166667  0.95833333
   0.62500000  0.62500000  0.29166667
   0.62500000  0.62500000  0.62500000
   0.62500000  0.62500000  0.95833333
   0.62500000  0.95833333  0.29166667
   0.62500000  0.95833333  0.62500000
   0.62500000  0.95833333  0.95833333
   0.95833333  0.29166667  0.29166667
   0.95833333  0.29166667  0.62500000
   0.95833333  0.29166667  0.95833333
   0.95833333  0.62500000  0.29166667
   0.95833333  0.62500000  0.62500000
   0.95833333  0.62500000  0.95833333
   0.95833333  0.95833333  0.29166667
   0.95833333  0.95833333  0.62500000
   0.95833333  0.95833333  0.95833333
   0.04166667  0.04166667  0.04166667
   0.04166667  0.04166667  0.37500000
   0.04166667  0.04166667  0.70833333
   0.04166667  0.37500000  0.04166667
   0.04166667  0.37500000  0.37500000
   0.04166667  0.37500000  0.70833333
   0.04166667  0.70833333  0.04166667
   0.04166667  0.70833333  0.37500000
   0.04166667  0.70833333  0.70833333
   0.37500000  0.04166667  0.04166667
   0.37500000  0.04166667  0.37500000
   0.37500000  0.04166667  0.70833333
   0.37500000  0.37500000  0.04166667
   0.37500000  0.37500000  0.37500000
   0.37500000  0.37500000  0.70833333
   0.37500000  0.70833333  0.04166667
   0.37500000  0.70833333  0.37500000
   0.37500000  0.70833333  0.70833333
   0.70833333  0.04166667  0.04166667
   0.70833333  0.04166667  0.37500000
   0.70833333  0.04166667  0.70833333
   0.70833333  0.37500000  0.04166667
   0.70833333  0.37500000  0.37500000
   0.70833333  0.37500000  0.70833333
   0.70833333  0.70833333  0.04166667
   0.70833333  0.70833333  0.37500000
   0.70833333  0.70833333  0.70833333
   0.66666667  0.50000000  0.50000000
 
 position of ions in cartesian coordinates  (Angst):
   3.87973659  2.74338806  6.71990091
   3.87973659  2.74338806 10.55984429
   3.87973659  2.74338806 14.39978767
   4.98823276  5.87868870  8.63987260
   4.98823276  5.87868870 12.47981598
   4.98823276  5.87868870 16.31975937
   6.09672893  9.01398934 10.55984429
   6.09672893  9.01398934 14.39978767
   6.09672893  9.01398934 18.23973106
   7.20522510  2.74338806  8.63987260
   7.20522510  2.74338806 12.47981598
   7.20522510  2.74338806 16.31975937
   8.31372128  5.87868870 10.55984429
   8.31372128  5.87868870 14.39978767
   8.31372128  5.87868870 18.23973106
   9.42221745  9.01398934 12.47981598
   9.42221745  9.01398934 16.31975937
   9.42221745  9.01398934 20.15970275
  10.53071362  2.74338806 10.55984429
  10.53071362  2.74338806 14.39978767
  10.53071362  2.74338806 18.23973106
  11.63920979  5.87868870 12.47981598
  11.63920979  5.87868870 16.31975937
  11.63920979  5.87868870 20.15970275
  12.74770596  9.01398934 14.39978767
  12.74770596  9.01398934 18.23973106
  12.74770596  9.01398934 22.07967444
   0.55424808  0.39191258  0.95998584
   0.55424808  0.39191258  4.79992922
   0.55424808  0.39191258  8.63987260
   1.66274425  3.52721322  2.87995753
   1.66274425  3.52721322  6.71990091
   1.66274425  3.52721322 10.55984430
   2.77124042  6.66251386  4.79992922
   2.77124042  6.66251386  8.63987261
   2.77124042  6.66251386 12.47981599
   3.87973659  0.39191258  2.87995753
   3.87973659  0.39191258  6.71990091
   3.87973659  0.39191258 10.55984430
   4.98823277  3.52721322  4.79992922
   4.98823277  3.52721322  8.63987261
   4.98823277  3.52721322 12.47981599
   6.09672894  6.66251386  6.71990091
   6.09672894  6.66251386 10.55984430
   6.09672894  6.66251386 14.39978768
   7.20522511  0.39191258  4.79992922
   7.20522511  0.39191258  8.63987261
   7.20522511  0.39191258 12.47981599
   8.31372128  3.52721322  6.71990091
   8.31372128  3.52721322 10.55984430
   8.31372128  3.52721322 14.39978768
   9.42221745  6.66251386  8.63987260
   9.42221745  6.66251386 12.47981599
   9.42221745  6.66251386 16.31975937
   8.31372127  4.70295096 12.47981598
 


--------------------------------------------------------------------------------------------------------


 k-point  1 :   0.0000 0.0000 0.0000  plane waves:   31415
 k-point  2 :   0.2500 0.0000 0.0000  plane waves:   31608
 k-point  3 :   0.5000 0.0000 0.0000  plane waves:   31638
 k-point  4 :   0.0000 0.2500 0.0000  plane waves:   31608
 k-point  5 :   0.2500 0.2500 0.0000  plane waves:   31695
 k-point  6 :   0.5000 0.2500 0.0000  plane waves:   31649
 k-point  7 :  -0.2500 0.2500 0.0000  plane waves:   31674
 k-point  8 :   0.0000 0.5000 0.0000  plane waves:   31638
 k-point  9 :   0.2500 0.5000 0.0000  plane waves:   31649
 k-point 10 :   0.5000 0.5000 0.0000  plane waves:   31716
 k-point 11 :   0.0000 0.5000 0.2500  plane waves:   31649
 k-point 12 :   0.2500 0.5000 0.2500  plane waves:   31674
 k-point 13 :  -0.2500 0.5000 0.2500  plane waves:   31684

 maximum and minimum number of plane-waves per node :     31716    31415

 maximum number of plane-waves:     31716
 maximum index in each direction: 
   IXMAX=   22   IYMAX=   22   IZMAX=   22
   IXMIN=  -22   IYMIN=  -22   IZMIN=  -22


 serial   3D FFT for wavefunctions
 parallel 3D FFT for charge:
    minimum data exchange during FFTs selected (reduces bandwidth)


 total amount of memory used by VASP MPI-rank0   149529. kBytes
=======================================================================

   base      :      30000. kBytes
   nonl-proj :      54318. kBytes
   fftplans  :       5382. kBytes
   grid      :      19496. kBytes
   one-center:        168. kBytes
   wavefun   :      40165. kBytes
 
     INWAV:  cpu time    0.0001: real time    0.0000
 Broyden mixing: mesh for mixing (old mesh)
   NGX = 45   NGY = 45   NGZ = 45
  (NGX  =140   NGY  =140   NGZ  =140)
  gives a total of  91125 points

 initial charge density was supplied:
 charge density of overlapping atoms calculated
 number of electron     220.0000000 magnetization 
 keeping initial charge density in first step


--------------------------------------------------------------------------------------------------------


 Maximum index for augmentation-charges          505 (set IRDMAX)


--------------------------------------------------------------------------------------------------------


 First call to EWALD:  gamma=   0.173
 Maximum number of real-space cells 3x 3x 3
 Maximum number of reciprocal cells 3x 3x 3

    FEWALD:  cpu time    0.1132: real time    0.1142


--------------------------------------- Iteration      1(   1)  ---------------------------------------


    POTLOK:  cpu time    0.1958: real time    0.2028
    SETDIJ:  cpu time    0.0350: real time    0.0356
     EDDAV:  cpu time    6.0176: real time    6.0776
       DOS:  cpu time    0.0057: real time    0.0071
    --------------------------------------------
      LOOP:  cpu time    6.2541: real time    6.3231

 eigenvalue-minimisations  :  3744
 total energy-change (2. order) : 0.5789904E+03  (-0.8713524E+04)
 number of electron     220.0000000 magnetization 
 augmentation part      220.0000000 magnetization 

 Free energy of the ion-electron system (eV)
  ---------------------------------------------------
  alpha Z        PSCENC =        94.20124788
  Ewald energy   TEWEN  =     -6273.82433833
  -Hartree energ DENC   =      -337.91230673
  -exchange      EXHF   =         0.00000000
  -V(xc)+E(xc)   XCENC  =      -508.97838230
  PAW double counting   =      4846.80897882    -3879.17847845
  entropy T*S    EENTRO =        -0.01252374
  eigenvalues    EBANDS =       969.23041943
  atomic energy  EATOM  =      5668.65580356
  Solvation  Ediel_sol  =         0.00000000
  ---------------------------------------------------
  free energy    TOTEN  =       578.99042015 eV

  energy without entropy =      579.00294389  energy(sigma->0) =      578.99668202


--------------------------------------------------------------------------------------------------------




--------------------------------------- Iteration      1(   2)  ---------------------------------------


     EDDAV:  cpu time    7.0282: real time    7.0943
       DOS:  cpu time    0.0048: real time    0.0048
    --------------------------------------------
      LOOP:  cpu time    7.0330: real time    7.0991

 eigenvalue-minimisations  :  4608
 total energy-change (2. order) :-0.8313465E+03  (-0.8008540E+03)
 number of electron     220.0000000 magnetization 
 augmentation part      220.0000000 magnetization 

 Free energy of the ion-electron system (eV)
  ---------------------------------------------------
  alpha Z        PSCENC =        94.20124788
  Ewald energy   TEWEN  =     -6273.82433833
  -Hartree energ DENC   =      -337.91230673
  -exchange      EXHF   =         0.00000000
  -V(xc)+E(xc)   XCENC  =      -508.97838230
  PAW double counting   =      4846.80897882    -3879.17847845
  entropy T*S    EENTRO =        -0.00986980
  eigenvalues    EBANDS =       137.88128870
  atomic energy  EATOM  =      5668.65580356
  Solvation  Ediel_sol  =         0.00000000
  ---------------------------------------------------
  free energy    TOTEN  =      -252.35605664 eV

  energy without entropy =     -252.34618684  energy(sigma->0) =     -252.35112174


--------------------------------------------------------------------------------------------------------




--------------------------------------- Iteration      1(   3)  ---------------------------------------


     EDDAV:  cpu time    7.2906: real time    7.3568
       DOS:  cpu time    0.0054: real time    0.0055
    --------------------------------------------
      LOOP:  cpu time    7.2960: real time    7.3622

 eigenvalue-minimisations  :  4680
 total energy-change (2. order) :-0.5126179E+02  (-0.5061744E+02)
 number of electron     220.0000000 magnetization 
 augmentation part      220.0000000 magnetization 

 Free energy of the ion-electron system (eV)
  ---------------------------------------------------
  alpha Z        PSCENC =        94.20124788
  Ewald energy   TEWEN  =     -6273.82433833
  -Hartree energ DENC   =      -337.91230673
  -exchange      EXHF   =         0.00000000
  -V(xc)+E(xc)   XCENC  =      -508.97838230
  PAW double counting   =      4846.80897882    -3879.17847845
  entropy T*S    EENTRO =        -0.00650819
  eigenvalues    EBANDS =        86.61613992
  atomic energy  EATOM  =      5668.65580356
  Solvation  Ediel_sol  =         0.00000000
  ---------------------------------------------------
  free energy    TOTEN  =      -303.61784382 eV

  energy without entropy =     -303.61133563  energy(sigma->0) =     -303.61458972


--------------------------------------------------------------------------------------------------------




--------------------------------------- Iteration      1(   4)  ---------------------------------------


     EDDAV:  cpu time    7.0145: real time    7.0791
       DOS:  cpu time    0.0051: real time    0.0051
    --------------------------------------------
      LOOP:  cpu time    7.0196: real time    7.0842

 eigenvalue-minimisations  :  4728
 total energy-change (2. order) :-0.1045263E+01  (-0.1041007E+01)
 number of electron     220.0000000 magnetization 
 augmentation part      220.0000000 magnetization 

 Free energy of the ion-electron system (eV)
  ---------------------------------------------------
  alpha Z        PSCENC =        94.20124788
  Ewald energy   TEWEN  =     -6273.82433833
  -Hartree energ DENC   =      -337.91230673
  -exchange      EXHF   =         0.00000000
  -V(xc)+E(xc)   XCENC  =      -508.97838230
  PAW double counting   =      4846.80897882    -3879.17847845
  entropy T*S    EENTRO =        -0.00668112
  eigenvalues    EBANDS =        85.57104957
  atomic energy  EATOM  =      5668.65580356
  Solvation  Ediel_sol  =         0.00000000
  ---------------------------------------------------
  free energy    TOTEN  =      -304.66310709 eV

  energy without entropy =     -304.65642597  energy(sigma->0) =     -304.65976653


--------------------------------------------------------------------------------------------------------




--------------------------------------- Iteration      1(   5)  ---------------------------------------


     EDDAV:  cpu time    6.9134: real time    6.9775
       DOS:  cpu time    0.0054: real time    0.0054
    CHARGE:  cpu time    0.2233: real time    0.2253
    MIXING:  cpu time    0.0046: real time    0.0060
    --------------------------------------------
      LOOP:  cpu time    7.1468: real time    7.2143

 eigenvalue-minimisations  :  4584
 total energy-change (2. order) :-0.2178553E-01  (-0.2177225E-01)
 number of electron     219.0000000 magnetization 
 augmentation part      -12.9350037 magnetization 

 Broyden mixing:
  rms(total) = 0.26145E+01    rms(broyden)= 0.26144E+01
  rms(prec ) = 0.29943E+01
  weight for this iteration     100.00

 Free energy of the ion-electron system (eV)
  ---------------------------------------------------
  alpha Z        PSCENC =        94.20124788
  Ewald energy   TEWEN  =     -6273.82433833
  -Hartree energ DENC   =      -337.91230673
  -exchange      EXHF   =         0.00000000
  -V(xc)+E(xc)   XCENC  =      -508.97838230
  PAW double counting   =      4846.80897882    -3879.17847845
  entropy T*S    EENTRO =        -0.00668656
  eigenvalues    EBANDS =        85.54926948
  atomic energy  EATOM  =      5668.65580356
  Solvation  Ediel_sol  =         0.00000000
  ---------------------------------------------------
  free energy    TOTEN  =      -304.68489262 eV

  energy without entropy =     -304.67820606  energy(sigma->0) =     -304.68154934


--------------------------------------------------------------------------------------------------------




--------------------------------------- Iteration      1(   6)  ---------------------------------------


    POTLOK:  cpu time    0.0760: real time    0.0771
    SETDIJ:  cpu time    0.0085: real time    0.0085
     EDDAV:  cpu time    7.3252: real time    7.3926
       DOS:  cpu time    0.0064: real time    0.0064
    CHARGE:  cpu time    0.2167: real time    0.2182
    MIXING:  cpu time    0.0049: real time    0.0054
    --------------------------------------------
      LOOP:  cpu time    7.6377: real time    7.7083

 eigenvalue-minimisations  :  4704
 total energy-change (2. order) : 0.1994100E+01  (-0.7779499E-01)
 number of electron     219.0000000 magnetization 
 augmentation part      -12.8730530 magnetization 

 Broyden mixing:
  rms(total) = 0.21008E+01    rms(broyden)= 0.21008E+01
  rms(prec ) = 0.23869E+01
  weight for this iteration     100.00

 eigenvalues of (default mixing * dielectric matrix)
  average eigenvalue GAMMA=   4.9821
  4.9821

 Free energy of the ion-electron system (eV)
  ---------------------------------------------------
  alpha Z        PSCENC =        94.20124788
  Ewald energy   TEWEN  =     -6273.82433833
  -Hartree energ DENC   =      -358.17541308
  -exchange      EXHF   =         0.00000000
  -V(xc)+E(xc)   XCENC  =      -508.73067457
  PAW double counting   =      7392.63897302    -6426.46979989
  entropy T*S    EENTRO =        -0.00809146
  eigenvalues    EBANDS =       109.02150063
  atomic energy  EATOM  =      5668.65580356
  Solvation  Ediel_sol  =         0.00000000
  ---------------------------------------------------
  free energy    TOTEN  =      -302.69079225 eV

  energy without entropy =     -302.68270078  energy(sigma->0) =     -302.68674651


--------------------------------------------------------------------------------------------------------




--------------------------------------- Iteration      1(   7)  ---------------------------------------


    POTLOK:  cpu time    0.0834: real time    0.0847
    SETDIJ:  cpu time    0.0041: real time    0.0041
     EDDAV:  cpu time    6.7714: real time    6.8353
       DOS:  cpu time    0.0070: real time    0.0071
    CHARGE:  cpu time    0.2179: real time    0.2195
    MIXING:  cpu time    0.0048: real time    0.0048
    --------------------------------------------
      LOOP:  cpu time    7.0887: real time    7.1554

 eigenvalue-minimisations  :  4464
 total energy-change (2. order) : 0.2949520E+01  (-0.8757145E+00)
 number of electron     219.0000000 magnetization 
 augmentation part      -12.6297400 magnetization 

 Broyden mixing:
  rms(total) = 0.29244E+00    rms(broyden)= 0.29244E+00
  rms(prec ) = 0.42995E+00
  weight for this iteration     100.00

 eigenvalues of (default mixing * dielectric matrix)
  average eigenvalue GAMMA=   3.2901
  1.6280  4.9522

 Free energy of the ion-electron system (eV)
  ---------------------------------------------------
  alpha Z        PSCENC =        94.20124788
  Ewald energy   TEWEN  =     -6273.82433833
  -Hartree energ DENC   =      -439.85912447
  -exchange      EXHF   =         0.00000000
  -V(xc)+E(xc)   XCENC  =      -496.07404316
  PAW double counting   =     22678.52870295   -21717.61615541
  entropy T*S    EENTRO =        -0.01314455
  eigenvalues    EBANDS =       186.25977938
  atomic energy  EATOM  =      5668.65580356
  Solvation  Ediel_sol  =         0.00000000
  ---------------------------------------------------
  free energy    TOTEN  =      -299.74127214 eV

  energy without entropy =     -299.72812759  energy(sigma->0) =     -299.73469986


--------------------------------------------------------------------------------------------------------




--------------------------------------- Iteration      1(   8)  ---------------------------------------


    POTLOK:  cpu time    0.0808: real time    0.0821
    SETDIJ:  cpu time    0.0071: real time    0.0072
     EDDAV:  cpu time    6.7561: real time    6.8206
       DOS:  cpu time    0.0069: real time    0.0070
    CHARGE:  cpu time    0.2157: real time    0.2171
    MIXING:  cpu time    0.0055: real time    0.0055
    --------------------------------------------
      LOOP:  cpu time    7.0721: real time    7.1394

 eigenvalue-minimisations  :  4416
 total energy-change (2. order) : 0.8022676E-01  (-0.1313142E+00)
 number of electron     219.0000000 magnetization 
 augmentation part      -12.6222495 magnetization 

 Broyden mixing:
  rms(total) = 0.14498E+00    rms(broyden)= 0.14498E+00
  rms(prec ) = 0.17593E+00
  weight for this iteration     100.00

 eigenvalues of (default mixing * dielectric matrix)
  average eigenvalue GAMMA=   2.5256
  5.0365  1.2701  1.2701

 Free energy of the ion-electron system (eV)
  ---------------------------------------------------
  alpha Z        PSCENC =        94.20124788
  Ewald energy   TEWEN  =     -6273.82433833
  -Hartree energ DENC   =      -442.50337402
  -exchange      EXHF   =         0.00000000
  -V(xc)+E(xc)   XCENC  =      -495.19259865
  PAW double counting   =     24286.99187112   -23325.99184153
  entropy T*S    EENTRO =        -0.00840717
  eigenvalues    EBANDS =       188.01059175
  atomic energy  EATOM  =      5668.65580356
  Solvation  Ediel_sol  =         0.00000000
  ---------------------------------------------------
  free energy    TOTEN  =      -299.66104538 eV

  energy without entropy =     -299.65263821  energy(sigma->0) =     -299.65684179


--------------------------------------------------------------------------------------------------------




--------------------------------------- Iteration      1(   9)  ---------------------------------------


    POTLOK:  cpu time    0.0835: real time    0.0849
    SETDIJ:  cpu time    0.0046: real time    0.0047
     EDDAV:  cpu time    7.5017: real time    7.5876
       DOS:  cpu time    0.4855: real time    0.4926
    CHARGE:  cpu time    0.2900: real time    0.2935
    MIXING:  cpu time    0.0194: real time    0.0196
    --------------------------------------------
      LOOP:  cpu time    8.3847: real time    8.4828

 eigenvalue-minimisations  :  4416
 total energy-change (2. order) :-0.1151357E-01  (-0.1310323E-01)
 number of electron     219.0000000 magnetization 
 augmentation part      -12.6220803 magnetization 

 Broyden mixing:
  rms(total) = 0.88758E-01    rms(broyden)= 0.88758E-01
  rms(prec ) = 0.11509E+00
  weight for this iteration     100.00

 eigenvalues of (default mixing * dielectric matrix)
  average eigenvalue GAMMA=   2.2871
  4.8570  1.8504  1.2204  1.2204

 Free energy of the ion-electron system (eV)
  ---------------------------------------------------
  alpha Z        PSCENC =        94.20124788
  Ewald energy   TEWEN  =     -6273.82433833
  -Hartree energ DENC   =      -443.84227540
  -exchange      EXHF   =         0.00000000
  -V(xc)+E(xc)   XCENC  =      -494.92896920
  PAW double counting   =     24733.06704111   -23772.02339098
  entropy T*S    EENTRO =        -0.00900027
  eigenvalues    EBANDS =       189.03132268
  atomic energy  EATOM  =      5668.65580356
  Solvation  Ediel_sol  =         0.00000000
  ---------------------------------------------------
  free energy    TOTEN  =      -299.67255894 eV

  energy without entropy =     -299.66355868  energy(sigma->0) =     -299.66805881


--------------------------------------------------------------------------------------------------------




--------------------------------------- Iteration      1(  10)  ---------------------------------------


    POTLOK:  cpu time    0.0705: real time    0.0720
    SETDIJ:  cpu time    0.1580: real time    0.1598
     EDDAV:  cpu time    7.5084: real time    7.5986
       DOS:  cpu time    0.4912: real time    0.4985
    CHARGE:  cpu time    0.3476: real time    0.3518
    MIXING:  cpu time    0.0124: real time    0.0126
    --------------------------------------------
      LOOP:  cpu time    8.5881: real time    8.6932

 eigenvalue-minimisations  :  4680
 total energy-change (2. order) : 0.4971975E-02  (-0.2722733E-02)
 number of electron     219.0000000 magnetization 
 augmentation part      -12.6315598 magnetization 

 Broyden mixing:
  rms(total) = 0.60951E-01    rms(broyden)= 0.60951E-01
  rms(prec ) = 0.72530E-01
  weight for this iteration     100.00

 eigenvalues of (default mixing * dielectric matrix)
  average eigenvalue GAMMA=   2.5533
  4.3808  4.3808  1.5528  1.5528  0.8994

 Free energy of the ion-electron system (eV)
  ---------------------------------------------------
  alpha Z        PSCENC =        94.20124788
  Ewald energy   TEWEN  =     -6273.82433833
  -Hartree energ DENC   =      -442.23889109
  -exchange      EXHF   =         0.00000000
  -V(xc)+E(xc)   XCENC  =      -495.08224667
  PAW double counting   =     24519.94872562   -23558.65381000
  entropy T*S    EENTRO =        -0.00876092
  eigenvalues    EBANDS =       187.33468299
  atomic energy  EATOM  =      5668.65580356
  Solvation  Ediel_sol  =         0.00000000
  ---------------------------------------------------
  free energy    TOTEN  =      -299.66758697 eV

  energy without entropy =     -299.65882605  energy(sigma->0) =     -299.66320651


--------------------------------------------------------------------------------------------------------




--------------------------------------- Iteration      1(  11)  ---------------------------------------


    POTLOK:  cpu time    0.1397: real time    0.1451
    SETDIJ:  cpu time    0.0746: real time    0.0755
     EDDAV:  cpu time    7.2035: real time    7.2916
       DOS:  cpu time    0.4607: real time    0.4675
    CHARGE:  cpu time    0.4761: real time    0.4821
    MIXING:  cpu time    0.0198: real time    0.0200
    --------------------------------------------
      LOOP:  cpu time    8.3745: real time    8.4818

 eigenvalue-minimisations  :  4656
 total energy-change (2. order) :-0.6361239E-02  (-0.2288153E-02)
 number of electron     219.0000000 magnetization 
 augmentation part      -12.6432706 magnetization 

 Broyden mixing:
  rms(total) = 0.32884E-01    rms(broyden)= 0.32884E-01
  rms(prec ) = 0.39124E-01
  weight for this iteration     100.00

 eigenvalues of (default mixing * dielectric matrix)
  average eigenvalue GAMMA=   2.2464
  4.2837  4.2837  1.8088  1.4406  0.8496  0.8119

 Free energy of the ion-electron system (eV)
  ---------------------------------------------------
  alpha Z        PSCENC =        94.20124788
  Ewald energy   TEWEN  =     -6273.82433833
  -Hartree energ DENC   =      -441.57683584
  -exchange      EXHF   =         0.00000000
  -V(xc)+E(xc)   XCENC  =      -495.05009190
  PAW double counting   =     24510.58305574   -23549.05351474
  entropy T*S    EENTRO =        -0.00838347
  eigenvalues    EBANDS =       186.39910890
  atomic energy  EATOM  =      5668.65580356
  Solvation  Ediel_sol  =         0.00000000
  ---------------------------------------------------
  free energy    TOTEN  =      -299.67394821 eV

  energy without entropy =     -299.66556474  energy(sigma->0) =     -299.66975647


--------------------------------------------------------------------------------------------------------




--------------------------------------- Iteration      1(  12)  ---------------------------------------


    POTLOK:  cpu time    0.1304: real time    0.1324
    SETDIJ:  cpu time    0.1513: real time    0.1534
     EDDAV:  cpu time    7.0848: real time    7.1490
       DOS:  cpu time    0.0058: real time    0.0058
    CHARGE:  cpu time    0.2173: real time    0.2187
    MIXING:  cpu time    0.0046: real time    0.0047
    --------------------------------------------
      LOOP:  cpu time    7.5943: real time    7.6641

 eigenvalue-minimisations  :  4536
 total energy-change (2. order) :-0.1330672E-02  (-0.4426129E-03)
 number of electron     219.0000000 magnetization 
 augmentation part      -12.6428451 magnetization 

 Broyden mixing:
  rms(total) = 0.21158E-01    rms(broyden)= 0.21158E-01
  rms(prec ) = 0.24342E-01
  weight for this iteration     100.00

 eigenvalues of (default mixing * dielectric matrix)
  average eigenvalue GAMMA=   2.5707
  5.1468  5.1468  2.0015  2.0015  1.7462  0.9761  0.9761

 Free energy of the ion-electron system (eV)
  ---------------------------------------------------
  alpha Z        PSCENC =        94.20124788
  Ewald energy   TEWEN  =     -6273.82433833
  -Hartree energ DENC   =      -441.95737132
  -exchange      EXHF   =         0.00000000
  -V(xc)+E(xc)   XCENC  =      -494.98850131
  PAW double counting   =     24478.58377600   -23517.03526353
  entropy T*S    EENTRO =        -0.00883871
  eigenvalues    EBANDS =       186.69820687
  atomic energy  EATOM  =      5668.65580356
  Solvation  Ediel_sol  =         0.00000000
  ---------------------------------------------------
  free energy    TOTEN  =      -299.67527888 eV

  energy without entropy =     -299.66644017  energy(sigma->0) =     -299.67085953


--------------------------------------------------------------------------------------------------------




--------------------------------------- Iteration      1(  13)  ---------------------------------------


    POTLOK:  cpu time    0.0855: real time    0.0869
    SETDIJ:  cpu time    0.0039: real time    0.0039
     EDDAV:  cpu time    7.4169: real time    7.4886
       DOS:  cpu time    0.0058: real time    0.0058
    CHARGE:  cpu time    0.2181: real time    0.2196
    MIXING:  cpu time    0.0046: real time    0.0046
    --------------------------------------------
      LOOP:  cpu time    7.7346: real time    7.8094

 eigenvalue-minimisations  :  4368
 total energy-change (2. order) :-0.1626014E-02  (-0.2103624E-03)
 number of electron     219.0000000 magnetization 
 augmentation part      -12.6445590 magnetization 

 Broyden mixing:
  rms(total) = 0.87162E-02    rms(broyden)= 0.87162E-02
  rms(prec ) = 0.10209E-01
  weight for this iteration     100.00

 eigenvalues of (default mixing * dielectric matrix)
  average eigenvalue GAMMA=   2.5042
  5.1706  5.1706  2.5589  2.5589  1.3722  1.3722  0.9150  0.9150

 Free energy of the ion-electron system (eV)
  ---------------------------------------------------
  alpha Z        PSCENC =        94.20124788
  Ewald energy   TEWEN  =     -6273.82433833
  -Hartree energ DENC   =      -442.20995075
  -exchange      EXHF   =         0.00000000
  -V(xc)+E(xc)   XCENC  =      -494.91626983
  PAW double counting   =     24412.43704619   -23450.82080111
  entropy T*S    EENTRO =        -0.00877846
  eigenvalues    EBANDS =       186.80913595
  atomic energy  EATOM  =      5668.65580356
  Solvation  Ediel_sol  =         0.00000000
  ---------------------------------------------------
  free energy    TOTEN  =      -299.67690490 eV

  energy without entropy =     -299.66812643  energy(sigma->0) =     -299.67251566


--------------------------------------------------------------------------------------------------------




--------------------------------------- Iteration      1(  14)  ---------------------------------------


    POTLOK:  cpu time    0.0824: real time    0.0837
    SETDIJ:  cpu time    0.0137: real time    0.0137
     EDDAV:  cpu time    7.5444: real time    7.6118
       DOS:  cpu time    0.0057: real time    0.0057
    CHARGE:  cpu time    0.2166: real time    0.2181
    MIXING:  cpu time    0.0048: real time    0.0048
    --------------------------------------------
      LOOP:  cpu time    7.8676: real time    7.9378

 eigenvalue-minimisations  :  4800
 total energy-change (2. order) :-0.1100713E-03  (-0.3182178E-04)
 number of electron     219.0000000 magnetization 
 augmentation part      -12.6443288 magnetization 

 Broyden mixing:
  rms(total) = 0.42760E-02    rms(broyden)= 0.42760E-02
  rms(prec ) = 0.55620E-02
  weight for this iteration     100.00

 eigenvalues of (default mixing * dielectric matrix)
  average eigenvalue GAMMA=   2.4508
  5.2667  5.2667  3.2943  2.5227  1.4670  1.4670  0.9227  0.9251  0.9251

 Free energy of the ion-electron system (eV)
  ---------------------------------------------------
  alpha Z        PSCENC =        94.20124788
  Ewald energy   TEWEN  =     -6273.82433833
  -Hartree energ DENC   =      -442.43969395
  -exchange      EXHF   =         0.00000000
  -V(xc)+E(xc)   XCENC  =      -494.88349127
  PAW double counting   =     24394.99720337   -23433.38732065
  entropy T*S    EENTRO =        -0.00870058
  eigenvalues    EBANDS =       187.01227501
  atomic energy  EATOM  =      5668.65580356
  Solvation  Ediel_sol  =         0.00000000
  ---------------------------------------------------
  free energy    TOTEN  =      -299.67701497 eV

  energy without entropy =     -299.66831438  energy(sigma->0) =     -299.67266467


--------------------------------------------------------------------------------------------------------




--------------------------------------- Iteration      1(  15)  ---------------------------------------


    POTLOK:  cpu time    0.0849: real time    0.0862
    SETDIJ:  cpu time    0.0038: real time    0.0039
     EDDAV:  cpu time    7.0610: real time    7.1251
       DOS:  cpu time    0.0058: real time    0.0058
    CHARGE:  cpu time    0.2190: real time    0.2205
    MIXING:  cpu time    0.0050: real time    0.0050
    --------------------------------------------
      LOOP:  cpu time    7.3795: real time    7.4465

 eigenvalue-minimisations  :  4584
 total energy-change (2. order) :-0.3069326E-04  (-0.8095081E-05)
 number of electron     219.0000000 magnetization 
 augmentation part      -12.6438852 magnetization 

 Broyden mixing:
  rms(total) = 0.24453E-02    rms(broyden)= 0.24453E-02
  rms(prec ) = 0.29891E-02
  weight for this iteration     100.00

 eigenvalues of (default mixing * dielectric matrix)
  average eigenvalue GAMMA=   2.4290
  5.7040  4.9035  3.5704  2.2926  1.8701  1.8701  1.1902  0.9408  0.9408  1.0079

 Free energy of the ion-electron system (eV)
  ---------------------------------------------------
  alpha Z        PSCENC =        94.20124788
  Ewald energy   TEWEN  =     -6273.82433833
  -Hartree energ DENC   =      -442.61151601
  -exchange      EXHF   =         0.00000000
  -V(xc)+E(xc)   XCENC  =      -494.86465360
  PAW double counting   =     24374.21184847   -23412.61174232
  entropy T*S    EENTRO =        -0.00874638
  eigenvalues    EBANDS =       187.17505107
  atomic energy  EATOM  =      5668.65580356
  Solvation  Ediel_sol  =         0.00000000
  ---------------------------------------------------
  free energy    TOTEN  =      -299.67704566 eV

  energy without entropy =     -299.66829928  energy(sigma->0) =     -299.67267247


--------------------------------------------------------------------------------------------------------




--------------------------------------- Iteration      1(  16)  ---------------------------------------


    POTLOK:  cpu time    0.0842: real time    0.0855
    SETDIJ:  cpu time    0.0047: real time    0.0047
     EDDAV:  cpu time    7.5516: real time    7.6299
       DOS:  cpu time    0.0046: real time    0.0047
    CHARGE:  cpu time    0.2167: real time    0.2200
    MIXING:  cpu time    0.0062: real time    0.0062
    --------------------------------------------
      LOOP:  cpu time    7.8680: real time    7.9511

 eigenvalue-minimisations  :  5040
 total energy-change (2. order) :-0.4901041E-05  (-0.2024885E-05)
 number of electron     219.0000000 magnetization 
 augmentation part      -12.6437915 magnetization 

 Broyden mixing:
  rms(total) = 0.15737E-02    rms(broyden)= 0.15737E-02
  rms(prec ) = 0.18046E-02
  weight for this iteration     100.00

 eigenvalues of (default mixing * dielectric matrix)
  average eigenvalue GAMMA=   2.5680
  6.2080  5.0542  3.8006  3.8006  2.3280  1.6664  1.3063  1.2261  0.9433  0.9433
  0.9718

 Free energy of the ion-electron system (eV)
  ---------------------------------------------------
  alpha Z        PSCENC =        94.20124788
  Ewald energy   TEWEN  =     -6273.82433833
  -Hartree energ DENC   =      -442.65527833
  -exchange      EXHF   =         0.00000000
  -V(xc)+E(xc)   XCENC  =      -494.85853560
  PAW double counting   =     24374.32257827   -23412.72244265
  entropy T*S    EENTRO =        -0.00877025
  eigenvalues    EBANDS =       187.21268488
  atomic energy  EATOM  =      5668.65580356
  Solvation  Ediel_sol  =         0.00000000
  ---------------------------------------------------
  free energy    TOTEN  =      -299.67705056 eV

  energy without entropy =     -299.66828031  energy(sigma->0) =     -299.67266543


--------------------------------------------------------------------------------------------------------




--------------------------------------- Iteration      1(  17)  ---------------------------------------


    POTLOK:  cpu time    0.0786: real time    0.0809
    SETDIJ:  cpu time    0.0049: real time    0.0050
     EDDAV:  cpu time    7.4157: real time    7.4866
       DOS:  cpu time    0.0054: real time    0.0054
    CHARGE:  cpu time    0.2159: real time    0.2174
    MIXING:  cpu time    0.0055: real time    0.0055
    --------------------------------------------
      LOOP:  cpu time    7.7259: real time    7.8008

 eigenvalue-minimisations  :  4704
 total energy-change (2. order) :-0.3603669E-05  (-0.1366606E-05)
 number of electron     219.0000000 magnetization 
 augmentation part      -12.6436636 magnetization 

 Broyden mixing:
  rms(total) = 0.50304E-03    rms(broyden)= 0.50304E-03
  rms(prec ) = 0.67156E-03
  weight for this iteration     100.00

 eigenvalues of (default mixing * dielectric matrix)
  average eigenvalue GAMMA=   2.4363
  6.0192  4.5960  4.5960  2.7725  2.7725  1.5423  1.5423  1.4891  1.0976  0.9287
  0.9287  0.9506

 Free energy of the ion-electron system (eV)
  ---------------------------------------------------
  alpha Z        PSCENC =        94.20124788
  Ewald energy   TEWEN  =     -6273.82433833
  -Hartree energ DENC   =      -442.68133255
  -exchange      EXHF   =         0.00000000
  -V(xc)+E(xc)   XCENC  =      -494.85698200
  PAW double counting   =     24366.02255646   -23404.42252680
  entropy T*S    EENTRO =        -0.00876993
  eigenvalues    EBANDS =       187.23728754
  atomic energy  EATOM  =      5668.65580356
  Solvation  Ediel_sol  =         0.00000000
  ---------------------------------------------------
  free energy    TOTEN  =      -299.67705416 eV

  energy without entropy =     -299.66828423  energy(sigma->0) =     -299.67266920


--------------------------------------------------------------------------------------------------------




--------------------------------------- Iteration      1(  18)  ---------------------------------------


    POTLOK:  cpu time    0.0846: real time    0.0858
    SETDIJ:  cpu time    0.0048: real time    0.0048
     EDDAV:  cpu time    7.0829: real time    7.1495
       DOS:  cpu time    0.0055: real time    0.0055
    CHARGE:  cpu time    0.2159: real time    0.2175
    MIXING:  cpu time    0.0057: real time    0.0058
    --------------------------------------------
      LOOP:  cpu time    7.3994: real time    7.4689

 eigenvalue-minimisations  :  4488
 total energy-change (2. order) :-0.3444347E-05  (-0.4036719E-06)
 number of electron     219.0000000 magnetization 
 augmentation part      -12.6435608 magnetization 

 Broyden mixing:
  rms(total) = 0.35586E-03    rms(broyden)= 0.35586E-03
  rms(prec ) = 0.41835E-03
  weight for this iteration     100.00

 eigenvalues of (default mixing * dielectric matrix)
  average eigenvalue GAMMA=   2.3555
  6.2130  4.8461  4.1256  2.7248  2.7248  1.7492  1.7492  1.4882  1.1661  0.9562
  0.9562  0.9242  0.9985

 Free energy of the ion-electron system (eV)
  ---------------------------------------------------
  alpha Z        PSCENC =        94.20124788
  Ewald energy   TEWEN  =     -6273.82433833
  -Hartree energ DENC   =      -442.70703113
  -exchange      EXHF   =         0.00000000
  -V(xc)+E(xc)   XCENC  =      -494.85450644
  PAW double counting   =     24369.07657294   -23407.47927668
  entropy T*S    EENTRO =        -0.00877490
  eigenvalues    EBANDS =       187.26324549
  atomic energy  EATOM  =      5668.65580356
  Solvation  Ediel_sol  =         0.00000000
  ---------------------------------------------------
  free energy    TOTEN  =      -299.67705761 eV

  energy without entropy =     -299.66828271  energy(sigma->0) =     -299.67267016


--------------------------------------------------------------------------------------------------------




--------------------------------------- Iteration      1(  19)  ---------------------------------------


    POTLOK:  cpu time    0.0850: real time    0.0862
    SETDIJ:  cpu time    0.0038: real time    0.0038
     EDDAV:  cpu time    5.0242: real time    5.0712
       DOS:  cpu time    0.0055: real time    0.0055
    --------------------------------------------
      LOOP:  cpu time    5.1184: real time    5.1666

 eigenvalue-minimisations  :  2808
 total energy-change (2. order) : 0.6103910E-06  (-0.5560729E-07)
 number of electron     219.0000000 magnetization 
 augmentation part      -12.6435608 magnetization 

 Free energy of the ion-electron system (eV)
  ---------------------------------------------------
  alpha Z        PSCENC =        94.20124788
  Ewald energy   TEWEN  =     -6273.82433833
  -Hartree energ DENC   =      -442.70677604
  -exchange      EXHF   =         0.00000000
  -V(xc)+E(xc)   XCENC  =      -494.85466963
  PAW double counting   =     24368.02361810   -23406.42570294
  entropy T*S    EENTRO =        -0.00877280
  eigenvalues    EBANDS =       187.26253319
  atomic energy  EATOM  =      5668.65580356
  Solvation  Ediel_sol  =         0.00000000
  ---------------------------------------------------
  free energy    TOTEN  =      -299.67705700 eV

  energy without entropy =     -299.66828420  energy(sigma->0) =     -299.67267060


--------------------------------------------------------------------------------------------------------




 average (electrostatic) potential at core
  the test charge radii are     0.9892
  (the norm of the test charge is              1.0000)
       1 -83.0119       2 -83.0086       3 -83.0086       4 -83.0086       5 -83.0087
       6 -83.0086       7 -83.0086       8 -83.0086       9 -82.9585      10 -83.2626
      11 -83.6303      12 -83.2626      13 -83.6303      14 -83.6303      15 -83.1575
      16 -83.2626      17 -83.1575      18 -83.1575      19 -83.0659      20 -83.0659
      21 -82.9768      22 -83.0659      23 -82.9937      24 -82.9937      25 -82.9768
      26 -82.9937      27 -82.9768      28 -82.9585      29 -83.0086      30 -83.0086
      31 -83.0086      32 -83.0087      33 -83.0086      34 -83.0086      35 -83.0086
      36 -83.0119      37 -82.9768      38 -82.9937      39 -82.9768      40 -82.9937
      41 -82.9937      42 -83.0659      43 -82.9768      44 -83.0659      45 -83.0659
      46 -83.1575      47 -83.1575      48 -83.2626      49 -83.1575      50 -83.6303
      51 -83.6303      52 -83.2626      53 -83.6303      54 -83.2626      55 -83.6298
 
 
 
 E-fermi :   5.9928     XC(G=0):  -9.4676     alpha+bet :-12.2011


 k-point     1 :       0.0000    0.0000    0.0000
  band No.  band energies     occupation 
      1      -7.2680      2.00000
      2      -5.6541      2.00000
      3      -5.1542      2.00000
      4      -5.1542      2.00000
      5      -4.5970      2.00000
      6      -4.5956      2.00000
      7      -4.5645      2.00000
      8      -4.5645      2.00000
      9      -4.5272      2.00000
     10      -4.1738      2.00000
     11      -4.1543      2.00000
     12      -4.1543      2.00000
     13      -4.0629      2.00000
     14      -4.0629      2.00000
     15      -4.0557      2.00000
     16      -3.2600      2.00000
     17      -3.2600      2.00000
     18      -2.9778      2.00000
     19      -2.8252      2.00000
     20      -2.8252      2.00000
     21      -2.7050      2.00000
     22      -2.6929      2.00000
     23      -2.6929      2.00000
     24      -2.6793      2.00000
     25      -2.6793      2.00000
     26      -2.6127      2.00000
     27      -2.6059      2.00000
     28      -1.5302      2.00000
     29      -1.1841      2.00000
     30      -1.1841      2.00000
     31      -1.0306      2.00000
     32      -1.0306      2.00000
     33      -0.8749      2.00000
     34      -0.7915      2.00000
     35      -0.7915      2.00000
     36      -0.7633      2.00000
     37      -0.7633      2.00000
     38      -0.7071      2.00000
     39      -0.6830      2.00000
     40      -0.2250      2.00000
     41       0.3991      2.00000
     42       0.4087      2.00000
     43       0.4087      2.00000
     44       0.4530      2.00000
     45       0.4530      2.00000
     46       0.6028      2.00000
     47       0.6747      2.00000
     48       0.8883      2.00000
     49       0.8883      2.00000
     50       0.9369      2.00000
     51       0.9369      2.00000
     52       0.9494      2.00000
     53       0.9755      2.00000
     54       1.0454      2.00000
     55       1.2422      2.00000
     56       1.3592      2.00000
     57       1.4936      2.00000
     58       1.4936      2.00000
     59       1.5139      2.00000
     60       1.5139      2.00000
     61       1.6410      2.00000
     62       1.6553      2.00000
     63       1.6553      2.00000
     64       1.6722      2.00000
     65       1.6722      2.00000
     66       2.6309      2.00000
     67       2.6309      2.00000
     68       3.2113      2.00000
     69       3.3267      2.00000
     70       3.3612      2.00000
     71       3.3612      2.00000
     72       3.5114      2.00000
     73       3.5114      2.00000
     74       3.5677      2.00000
     75       3.5863      2.00000
     76       3.5981      2.00000
     77       3.5981      2.00000
     78       3.7934      2.00000
     79       3.7934      2.00000
     80       3.8267      2.00000
     81       3.8267      2.00000
     82       3.8539      2.00000
     83       3.8634      2.00000
     84       3.8722      2.00000
     85       3.8722      2.00000
     86       3.8877      2.00000
     87       3.8877      2.00000
     88       3.9146      2.00000
     89       3.9345      2.00000
     90       4.6142      2.00000
     91       4.6142      2.00000
     92       4.7538      2.00000
     93       4.7538      2.00000
     94       4.7656      2.00000
     95       4.8938      2.00000
     96       4.9180      2.00000
     97       4.9396      2.00000
     98       4.9396      2.00000
     99       5.0208      2.00000
    100       5.0208      2.00000
    101       5.0333      2.00000
    102       5.0333      2.00000
    103       5.0341      2.00000
    104       5.0803      2.00000
    105       5.0803      2.00000
    106       5.1423      2.00000
    107       5.3248      2.00000
    108       5.9322      1.91385
    109       5.9322      1.91385
    110       5.9744      1.39830
    111       6.5101      0.00000
    112       6.5101      0.00000
    113       6.5991      0.00000
    114       6.5991      0.00000
    115       6.9776      0.00000
    116       7.0410      0.00000
    117       7.2316      0.00000
    118       7.2316      0.00000
    119       7.3133      0.00000
    120       7.3133      0.00000
    121       7.3884      0.00000
    122       7.3884      0.00000
    123       7.4426      0.00000
    124       7.5353      0.00000
    125       7.5619      0.00000
    126       7.5619      0.00000
    127       7.6531      0.00000
    128       7.7058      0.00000
    129       7.7246      0.00000
    130       7.7278      0.00000
    131       7.7278      0.00000
    132       7.7592      0.00000
    133       7.7592      0.00000
    134       7.8446      0.00000
    135       7.9113      0.00000
    136       7.9424      0.00000
    137       7.9605      0.00000
    138       7.9605      0.00000
    139       7.9628      0.00000
    140       7.9628      0.00000
    141       8.1962      0.00000
    142       8.1962      0.00000
    143       8.5212      0.00000
    144       9.0120      0.00000

 k-point     2 :       0.2500    0.0000    0.0000
  band No.  band energies     occupation 
      1      -7.2629      2.00000
      2      -5.6106      2.00000
      3      -5.1662      2.00000
      4      -5.1662      2.00000
      5      -5.0407      2.00000
      6      -4.5866      2.00000
      7      -4.5755      2.00000
      8      -4.5755      2.00000
      9      -4.3027      2.00000
     10      -4.2818      2.00000
     11      -4.2818      2.00000
     12      -4.0407      2.00000
     13      -3.7157      2.00000
     14      -3.7157      2.00000
     15      -3.6824      2.00000
     16      -3.3668      2.00000
     17      -3.3668      2.00000
     18      -3.3484      2.00000
     19      -2.9935      2.00000
     20      -2.9935      2.00000
     21      -2.8210      2.00000
     22      -2.8210      2.00000
     23      -2.6396      2.00000
     24      -2.6001      2.00000
     25      -2.5834      2.00000
     26      -2.4660      2.00000
     27      -2.4660      2.00000
     28      -1.4277      2.00000
     29      -1.2883      2.00000
     30      -1.2883      2.00000
     31      -1.0973      2.00000
     32      -1.0973      2.00000
     33      -1.0137      2.00000
     34      -0.9162      2.00000
     35      -0.9162      2.00000
     36      -0.7289      2.00000
     37      -0.6833      2.00000
     38      -0.5470      2.00000
     39      -0.4106      2.00000
     40      -0.4106      2.00000
     41      -0.0566      2.00000
     42       0.0973      2.00000
     43       0.0973      2.00000
     44       0.1554      2.00000
     45       0.1554      2.00000
     46       0.1880      2.00000
     47       0.6224      2.00000
     48       0.9831      2.00000
     49       0.9831      2.00000
     50       1.2187      2.00000
     51       1.3048      2.00000
     52       1.3048      2.00000
     53       1.3434      2.00000
     54       1.5233      2.00000
     55       1.5782      2.00000
     56       1.7425      2.00000
     57       1.7425      2.00000
     58       1.7917      2.00000
     59       1.7917      2.00000
     60       1.8465      2.00000
     61       1.8465      2.00000
     62       1.9246      2.00000
     63       1.9251      2.00000
     64       1.9251      2.00000
     65       2.0729      2.00000
     66       2.6377      2.00000
     67       2.6377      2.00000
     68       2.8164      2.00000
     69       3.0356      2.00000
     70       3.0356      2.00000
     71       3.2749      2.00000
     72       3.3922      2.00000
     73       3.3922      2.00000
     74       3.4244      2.00000
     75       3.4626      2.00000
     76       3.4626      2.00000
     77       3.5287      2.00000
     78       3.5287      2.00000
     79       3.5421      2.00000
     80       3.6267      2.00000
     81       3.6362      2.00000
     82       3.6570      2.00000
     83       3.6570      2.00000
     84       3.8377      2.00000
     85       3.8377      2.00000
     86       3.8690      2.00000
     87       4.0395      2.00000
     88       4.0712      2.00000
     89       4.0712      2.00000
     90       4.1425      2.00000
     91       4.1425      2.00000
     92       4.2415      2.00000
     93       4.5662      2.00000
     94       4.5662      2.00000
     95       4.5736      2.00000
     96       4.6185      2.00000
     97       4.6185      2.00000
     98       4.6739      2.00000
     99       4.7318      2.00000
    100       4.7318      2.00000
    101       4.9448      2.00000
    102       4.9448      2.00000
    103       4.9918      2.00000
    104       5.0667      2.00000
    105       5.2038      2.00000
    106       5.2038      2.00000
    107       5.2543      2.00000
    108       5.7496      2.00000
    109       5.8004      2.00000
    110       5.8004      2.00000
    111       6.6713      0.00000
    112       6.6713      0.00000
    113       6.8270      0.00000
    114       6.8270      0.00000
    115       7.1543      0.00000
    116       7.2869      0.00000
    117       7.2972      0.00000
    118       7.2972      0.00000
    119       7.4658      0.00000
    120       7.6310      0.00000
    121       7.6310      0.00000
    122       7.6933      0.00000
    123       7.7750      0.00000
    124       7.7750      0.00000
    125       7.9234      0.00000
    126       7.9234      0.00000
    127       7.9853      0.00000
    128       8.0352      0.00000
    129       8.0918      0.00000
    130       8.0918      0.00000
    131       8.1022      0.00000
    132       8.1456      0.00000
    133       8.1456      0.00000
    134       8.1673      0.00000
    135       8.2446      0.00000
    136       8.2446      0.00000
    137       8.2846      0.00000
    138       8.4442      0.00000
    139       8.4442      0.00000
    140       8.5595      0.00000
    141       8.6032      0.00000
    142       8.7447      0.00000
    143       8.7447      0.00000
    144       9.0887      0.00000

 k-point     3 :       0.5000    0.0000    0.0000
  band No.  band energies     occupation 
      1      -7.2577      2.00000
      2      -5.5203      2.00000
      3      -5.2916      2.00000
      4      -5.1742      2.00000
      5      -5.1742      2.00000
      6      -4.6498      2.00000
      7      -4.6498      2.00000
      8      -4.6303      2.00000
      9      -4.1539      2.00000
     10      -4.0978      2.00000
     11      -4.0978      2.00000
     12      -3.8915      2.00000
     13      -3.8381      2.00000
     14      -3.8381      2.00000
     15      -3.6599      2.00000
     16      -3.1785      2.00000
     17      -3.1785      2.00000
     18      -3.1445      2.00000
     19      -2.9526      2.00000
     20      -2.9526      2.00000
     21      -2.9136      2.00000
     22      -2.8331      2.00000
     23      -2.8331      2.00000
     24      -2.7622      2.00000
     25      -2.7622      2.00000
     26      -2.5950      2.00000
     27      -2.5943      2.00000
     28      -1.3610      2.00000
     29      -1.3090      2.00000
     30      -1.3090      2.00000
     31      -1.0899      2.00000
     32      -0.9902      2.00000
     33      -0.9902      2.00000
     34      -0.7719      2.00000
     35      -0.7056      2.00000
     36      -0.7056      2.00000
     37      -0.6314      2.00000
     38      -0.6294      2.00000
     39      -0.6052      2.00000
     40      -0.6052      2.00000
     41      -0.5186      2.00000
     42      -0.1089      2.00000
     43      -0.1089      2.00000
     44      -0.0501      2.00000
     45      -0.0501      2.00000
     46      -0.0103      2.00000
     47       0.6903      2.00000
     48       1.2794      2.00000
     49       1.2794      2.00000
     50       1.3896      2.00000
     51       1.3896      2.00000
     52       1.4953      2.00000
     53       1.6795      2.00000
     54       1.7026      2.00000
     55       1.7184      2.00000
     56       2.0493      2.00000
     57       2.0493      2.00000
     58       2.0660      2.00000
     59       2.0660      2.00000
     60       2.2489      2.00000
     61       2.2489      2.00000
     62       2.2576      2.00000
     63       2.2576      2.00000
     64       2.3314      2.00000
[...]
   39        0.750   0.938   0.000   1.688
   40        0.751   0.938   0.000   1.689
   41        0.751   0.938   0.000   1.689
   42        0.754   0.933   0.000   1.687
   43        0.750   0.938   0.000   1.688
   44        0.754   0.933   0.000   1.687
   45        0.753   0.932   0.000   1.685
   46        0.750   0.933   0.000   1.683
   47        0.750   0.932   0.000   1.682
   48        0.756   0.925   0.000   1.680
   49        0.753   0.935   0.000   1.688
   50        0.763   0.954   0.000   1.717
   51        0.764   0.955   0.000   1.718
   52        0.760   0.928   0.000   1.689
   53        0.758   0.945   0.000   1.702
   54        0.759   0.926   0.000   1.686
   55        0.813   0.993   0.000   1.807
--------------------------------------------------
tot         41.483  51.545   0.000  93.027
 
    CHARGE:  cpu time    0.2151: real time    0.2167
    FORLOC:  cpu time    0.0324: real time    0.0330
    FORNL :  cpu time    3.0969: real time    3.1230
    STRESS:  cpu time    8.7971: real time    8.8820
    FORCOR:  cpu time    0.1070: real time    0.1084
    FORHAR:  cpu time    0.0480: real time    0.0489
    MIXING:  cpu time    0.0059: real time    0.0060
    OFIELD:  cpu time    0.0002: real time    0.0004

  FORCE on cell =-STRESS in cart. coord.  units (eV):
  Direction    XX          YY          ZZ          XY          YZ          ZX
  --------------------------------------------------------------------------------------
  Alpha Z    94.20125    94.20125    94.20125
  Ewald   -2159.42666 -2064.03160 -2050.40374    38.54542     0.00000    -0.00000
  Hartree   138.67052   151.12874   152.90849     5.03388    -0.00000    -0.00000
  E(xc)    -696.55417  -696.60820  -696.61594    -0.02184    -0.00001    -0.00001
  Local    -758.03827  -847.68572  -860.49198   -36.22285     0.00025     0.00035
  n-local  2136.88080  2134.44652  2150.40753    -0.81308    -3.19156     1.28463
  augment  -321.60968  -320.82467  -320.71299     0.31702    -0.00021    -0.00033
  Kinetic  1573.06443  1540.19747  1573.67063   -10.62985    -5.03112     2.37536
  Fock        0.00000     0.00000     0.00000     0.00000     0.00000     0.00000
  -------------------------------------------------------------------------------------
  Total       8.73724    15.62689    16.61113     2.78384     0.00000     0.00000
  in kB      12.94976    23.16114    24.61991     4.12602     0.00000     0.00000
  external pressure =       20.24 kB  Pullay stress =        0.00 kB


 VOLUME and BASIS-vectors are now :
 -----------------------------------------------------------------------------
  energy-cutoff  :      550.00
  volume of cell :     1080.99
      direct lattice vectors                 reciprocal lattice vectors
     9.976465530  0.000000000  5.759915070     0.100235900 -0.035438742  0.000000000
     3.325488510  9.405901920  5.759915070     0.000000000  0.106316227  0.000000000
     0.000000000  0.000000000 11.519830140    -0.050117950 -0.035438742  0.086806836

  length of vectors
    11.519830124 11.519830136 11.519830140     0.106316227  0.106316227  0.106316227


 FORCES acting on ions
    electron-ion (+dipol)            ewald-force                    non-local-force                 convergence-correction
 -----------------------------------------------------------------------------------------------
   -.186E+01 0.658E+00 -.160E-05   0.183E+01 -.648E+00 -.116E-09   0.137E+00 -.485E-01 -.694E-17   -.584E-03 0.206E-03 0.175E-07
   0.340E+01 0.202E+01 0.815E+00   -.338E+01 -.213E+01 -.914E+00   0.267E-01 0.587E-01 0.556E-01   -.345E-04 0.411E-03 0.506E-04
   0.340E+01 0.202E+01 -.815E+00   -.338E+01 -.213E+01 0.914E+00   0.267E-01 0.587E-01 -.556E-01   -.345E-04 0.411E-03 -.506E-04
   0.212E+01 -.161E+01 0.304E+01   -.208E+01 0.156E+01 -.317E+01   0.107E-01 0.133E-01 0.834E-01   -.208E-03 -.794E-04 0.351E-03
   0.144E+02 -.511E+01 0.192E-05   -.144E+02 0.510E+01 0.646E-08   0.179E+00 -.633E-01 0.278E-16   0.403E-03 -.143E-03 -.461E-08
   0.212E+01 -.161E+01 -.304E+01   -.208E+01 0.156E+01 0.317E+01   0.107E-01 0.133E-01 -.834E-01   -.208E-03 -.794E-04 -.351E-03
   0.165E+01 -.294E+01 0.222E+01   -.155E+01 0.305E+01 -.226E+01   -.215E-01 -.776E-01 0.278E-01   -.237E-03 -.162E-03 0.300E-03
   0.165E+01 -.294E+01 -.222E+01   -.155E+01 0.305E+01 0.226E+01   -.215E-01 -.776E-01 -.278E-01   -.237E-03 -.162E-03 -.300E-03
   0.926E+00 -.327E+00 0.458E-06   -.904E+00 0.319E+00 -.150E-08   0.256E-02 -.907E-03 0.000E+00   -.245E-03 0.867E-04 -.127E-07
   0.109E+01 0.325E+01 0.594E+01   -.181E+01 -.339E+01 -.659E+01   0.251E+00 0.103E+00 0.314E+00   -.704E-04 0.303E-03 0.455E-03
   0.199E+02 0.383E+02 0.222E-05   -.214E+02 -.378E+02 0.286E-07   -.215E+00 -.181E+01 -.278E-16   0.517E-03 0.127E-02 -.364E-08
   0.109E+01 0.325E+01 -.594E+01   -.181E+01 -.339E+01 0.659E+01   0.251E+00 0.103E+00 -.314E+00   -.703E-04 0.303E-03 -.455E-03
   -.143E+01 -.222E+02 0.370E+02   -.462E-01 0.227E+02 -.371E+02   0.675E+00 0.705E+00 -.154E+01   -.170E-03 -.668E-03 0.119E-02
   -.143E+01 -.222E+02 -.370E+02   -.462E-01 0.227E+02 0.371E+02   0.675E+00 0.705E+00 0.154E+01   -.170E-03 -.668E-03 -.119E-02
   -.452E+00 -.135E+01 0.523E-06   -.189E+00 0.118E+01 -.642E-08   0.384E+00 0.741E-01 -.260E-17   -.148E-03 -.139E-03 -.136E-07
   -.234E+01 -.644E+01 -.164E-05   0.199E+01 0.736E+01 0.212E-08   0.700E-01 -.409E+00 0.173E-17   -.333E-03 -.439E-03 0.181E-07
   0.258E+00 0.662E+00 -.123E+01   -.712E+00 -.304E+00 0.907E+00   0.285E+00 -.206E+00 0.171E+00   -.583E-04 0.116E-03 -.156E-03
   0.258E+00 0.662E+00 0.123E+01   -.712E+00 -.304E+00 -.907E+00   0.285E+00 -.206E+00 -.171E+00   -.583E-04 0.116E-03 0.156E-03
   -.925E+01 0.840E+01 0.838E+01   0.966E+01 -.868E+01 -.860E+01   -.223E+00 0.182E+00 0.168E+00   0.395E-04 0.306E-03 0.523E-03
   -.925E+01 0.840E+01 -.838E+01   0.966E+01 -.868E+01 0.860E+01   -.223E+00 0.182E+00 -.168E+00   0.395E-04 0.306E-03 -.523E-03
   -.881E+00 0.142E+01 0.427E-06   0.103E+01 -.151E+01 -.354E-08   -.119E+00 0.635E-01 0.000E+00   0.411E-03 0.535E-04 -.128E-07
   -.141E+02 -.529E+01 -.166E-05   0.146E+02 0.536E+01 0.624E-08   -.321E+00 -.926E-01 -.139E-16   -.262E-03 -.547E-03 0.179E-07
   -.191E+01 -.113E+01 -.296E+01   0.213E+01 0.104E+01 0.292E+01   -.140E+00 0.592E-01 0.158E-01   0.387E-03 -.324E-03 -.306E-03
   -.191E+01 -.113E+01 0.296E+01   0.213E+01 0.104E+01 -.292E+01   -.140E+00 0.592E-01 -.158E-01   0.387E-03 -.324E-03 0.306E-03
   -.140E+01 -.569E-01 0.902E+00   0.157E+01 0.165E-01 -.935E+00   -.129E+00 0.351E-01 0.174E-01   0.317E-03 -.211E-03 0.162E-03
   -.206E+00 0.369E+01 0.132E-05   0.439E+00 -.374E+01 0.142E-08   -.149E+00 0.334E-01 -.208E-16   0.564E-03 0.175E-03 -.450E-08
   -.140E+01 -.569E-01 -.902E+00   0.157E+01 0.165E-01 0.935E+00   -.129E+00 0.351E-01 -.174E-01   0.317E-03 -.211E-03 -.162E-03
   -.926E+00 0.327E+00 0.105E-05   0.904E+00 -.319E+00 -.149E-08   -.256E-02 0.907E-03 0.000E+00   0.245E-03 -.867E-04 -.439E-08
   -.165E+01 0.294E+01 0.222E+01   0.155E+01 -.305E+01 -.226E+01   0.215E-01 0.776E-01 0.278E-01   0.237E-03 0.162E-03 0.300E-03
   -.165E+01 0.294E+01 -.222E+01   0.155E+01 -.305E+01 0.226E+01   0.215E-01 0.776E-01 -.278E-01   0.237E-03 0.162E-03 -.300E-03
   -.212E+01 0.161E+01 0.304E+01   0.208E+01 -.156E+01 -.317E+01   -.107E-01 -.133E-01 0.834E-01   0.208E-03 0.794E-04 0.351E-03
   -.144E+02 0.511E+01 -.192E-05   0.144E+02 -.510E+01 0.647E-08   -.179E+00 0.633E-01 -.347E-16   -.403E-03 0.143E-03 0.179E-07
   -.212E+01 0.161E+01 -.304E+01   0.208E+01 -.156E+01 0.317E+01   -.107E-01 -.133E-01 -.834E-01   0.208E-03 0.794E-04 -.351E-03
   -.340E+01 -.202E+01 0.815E+00   0.338E+01 0.213E+01 -.914E+00   -.267E-01 -.587E-01 0.556E-01   0.345E-04 -.411E-03 0.506E-04
   -.340E+01 -.202E+01 -.815E+00   0.338E+01 0.213E+01 0.914E+00   -.267E-01 -.587E-01 -.556E-01   0.345E-04 -.411E-03 -.506E-04
   0.186E+01 -.658E+00 -.786E-07   -.183E+01 0.648E+00 -.132E-09   -.137E+00 0.485E-01 0.694E-17   0.584E-03 -.206E-03 -.128E-07
   0.140E+01 0.569E-01 0.902E+00   -.157E+01 -.165E-01 -.935E+00   0.129E+00 -.351E-01 0.174E-01   -.317E-03 0.211E-03 0.162E-03
   0.206E+00 -.369E+01 -.179E-05   -.439E+00 0.374E+01 0.144E-08   0.149E+00 -.334E-01 -.139E-16   -.564E-03 -.175E-03 0.180E-07
   0.140E+01 0.569E-01 -.902E+00   -.157E+01 -.165E-01 0.935E+00   0.129E+00 -.351E-01 -.174E-01   -.317E-03 0.211E-03 -.162E-03
   0.191E+01 0.113E+01 -.296E+01   -.213E+01 -.104E+01 0.292E+01   0.140E+00 -.592E-01 0.158E-01   -.387E-03 0.324E-03 -.306E-03
   0.191E+01 0.113E+01 0.296E+01   -.213E+01 -.104E+01 -.292E+01   0.140E+00 -.592E-01 -.158E-01   -.387E-03 0.324E-03 0.306E-03
   0.141E+02 0.529E+01 -.114E-06   -.146E+02 -.536E+01 0.623E-08   0.321E+00 0.926E-01 0.278E-16   0.262E-03 0.547E-03 -.132E-07
   0.881E+00 -.142E+01 0.143E-05   -.103E+01 0.151E+01 -.354E-08   0.119E+00 -.635E-01 0.139E-16   -.411E-03 -.535E-04 -.468E-08
   0.925E+01 -.840E+01 0.838E+01   -.966E+01 0.868E+01 -.860E+01   0.223E+00 -.182E+00 0.168E+00   -.395E-04 -.306E-03 0.523E-03
   0.925E+01 -.840E+01 -.838E+01   -.966E+01 0.868E+01 0.860E+01   0.223E+00 -.182E+00 -.168E+00   -.395E-04 -.306E-03 -.523E-03
   -.258E+00 -.662E+00 -.123E+01   0.712E+00 0.304E+00 0.907E+00   -.285E+00 0.206E+00 0.171E+00   0.582E-04 -.116E-03 -.156E-03
   -.258E+00 -.662E+00 0.123E+01   0.712E+00 0.304E+00 -.907E+00   -.285E+00 0.206E+00 -.171E+00   0.582E-04 -.116E-03 0.156E-03
   0.234E+01 0.644E+01 0.120E-07   -.199E+01 -.736E+01 0.211E-08   -.700E-01 0.409E+00 -.104E-16   0.333E-03 0.439E-03 -.129E-07
   0.452E+00 0.135E+01 0.127E-05   0.189E+00 -.118E+01 -.642E-08   -.384E+00 -.741E-01 -.477E-17   0.148E-03 0.139E-03 -.458E-08
   0.143E+01 0.222E+02 0.370E+02   0.462E-01 -.227E+02 -.371E+02   -.675E+00 -.705E+00 -.154E+01   0.170E-03 0.668E-03 0.119E-02
   0.143E+01 0.222E+02 -.370E+02   0.462E-01 -.227E+02 0.371E+02   -.675E+00 -.705E+00 0.154E+01   0.170E-03 0.668E-03 -.119E-02
   -.109E+01 -.325E+01 0.594E+01   0.181E+01 0.339E+01 -.659E+01   -.251E+00 -.103E+00 0.314E+00   0.703E-04 -.303E-03 0.455E-03
   -.199E+02 -.383E+02 -.224E-05   0.214E+02 0.378E+02 0.286E-07   0.215E+00 0.181E+01 -.139E-16   -.517E-03 -.127E-02 0.169E-07
   -.109E+01 -.325E+01 -.594E+01   0.181E+01 0.339E+01 0.659E+01   -.251E+00 -.103E+00 -.314E+00   0.703E-04 -.303E-03 -.455E-03
   -.341E-06 -.576E-06 -.110E-05   -.867E-11 0.747E-11 0.129E-06   -.787E-21 0.212E-21 0.794E-21   -.440E-08 0.757E-08 0.943E-08
 -----------------------------------------------------------------------------------------------
   -.168E-05 0.650E-06 0.118E-06   0.401E-14 -.497E-13 0.177E-14   -.500E-15 0.472E-15 -.777E-15   -.425E-08 0.745E-08 0.933E-08
 
 
 POSITION                                       TOTAL-FORCE (eV/Angst)
 -----------------------------------------------------------------------------------
      3.87974      2.74339      6.71990         0.109744     -0.038800     -0.000000
      3.87974      2.74339     10.55984         0.044121     -0.049871     -0.043813
      3.87974      2.74339     14.39979         0.044121     -0.049871      0.043813
      4.98823      5.87869      8.63987         0.047630     -0.039948     -0.049889
      4.98823      5.87869     12.47982         0.193128     -0.068281     -0.000000
      4.98823      5.87869     16.31976         0.047630     -0.039948      0.049889
      6.09673      9.01399     10.55984         0.072925      0.031598     -0.006077
      6.09673      9.01399     14.39979         0.072925      0.031598      0.006077
      6.09673      9.01399     18.23973         0.024335     -0.008604     -0.000000
      7.20523      2.74339      8.63987        -0.475998     -0.036592     -0.334572
      7.20523      2.74339     12.47982        -1.708438     -1.320694     -0.000000
      7.20523      2.74339     16.31976        -0.475998     -0.036592      0.334572
      8.31372      5.87869     10.55984        -0.801117      1.245597     -1.571526
      8.31372      5.87869     14.39979        -0.801117      1.245597      1.571526
      8.31372      5.87869     18.23973        -0.256488     -0.094080     -0.000000
      9.42222      9.01399     12.47982        -0.282833      0.509761     -0.000000
      9.42222      9.01399     16.31976        -0.169390      0.152269     -0.150858
      9.42222      9.01399     20.15970        -0.169390      0.152269      0.150858
     10.53071      2.74339     10.55984         0.185496     -0.092041     -0.043205
     10.53071      2.74339     14.39979         0.185496     -0.092041      0.043205
     10.53071      2.74339     18.23973         0.033832     -0.031221     -0.000000
     11.63921      5.87869     12.47982         0.210441     -0.021486     -0.000000
     11.63921      5.87869     16.31976         0.075052     -0.036461     -0.016209
     11.63921      5.87869     20.15970         0.075052     -0.036461      0.016209
     12.74771      9.01399     14.39979         0.042911     -0.005541     -0.015726
     12.74771      9.01399     18.23973         0.084411     -0.009992     -0.000000
     12.74771      9.01399     22.07967         0.042911     -0.005541      0.015726
      0.55425      0.39191      0.95999        -0.024335      0.008604     -0.000000
      0.55425      0.39191      4.79993        -0.072925     -0.031598     -0.006077
      0.55425      0.39191      8.63987        -0.072925     -0.031598      0.006077
      1.66274      3.52721      2.87996        -0.047630      0.039948     -0.049889
      1.66274      3.52721      6.71990        -0.193128      0.068281     -0.000000
      1.66274      3.52721     10.55984        -0.047630      0.039948      0.049889
      2.77124      6.66251      4.79993        -0.044121      0.049871     -0.043813
      2.77124      6.66251      8.63987        -0.044121      0.049871      0.043813
      2.77124      6.66251     12.47982        -0.109744      0.038800     -0.000000
      3.87974      0.39191      2.87996        -0.042911      0.005541     -0.015726
      3.87974      0.39191      6.71990        -0.084411      0.009992     -0.000000
      3.87974      0.39191     10.55984        -0.042911      0.005541      0.015726
      4.98823      3.52721      4.79993        -0.075052      0.036461     -0.016209
      4.98823      3.52721      8.63987        -0.075052      0.036461      0.016209
      4.98823      3.52721     12.47982        -0.210441      0.021486     -0.000000
      6.09673      6.66251      6.71990        -0.033832      0.031221     -0.000000
      6.09673      6.66251     10.55984        -0.185496      0.092041     -0.043205
      6.09673      6.66251     14.39979        -0.185496      0.092041      0.043205
      7.20523      0.39191      4.79993         0.169390     -0.152269     -0.150858
      7.20523      0.39191      8.63987         0.169390     -0.152269      0.150858
      7.20523      0.39191     12.47982         0.282833     -0.509761     -0.000000
      8.31372      3.52721      6.71990         0.256488      0.094080     -0.000000
      8.31372      3.52721     10.55984         0.801117     -1.245597     -1.571526
      8.31372      3.52721     14.39979         0.801117     -1.245597      1.571526
      9.42222      6.66251      8.63987         0.475998      0.036592     -0.334572
      9.42222      6.66251     12.47982         1.708438      1.320694      0.000000
      9.42222      6.66251     16.31976         0.475998      0.036592      0.334572
      8.31372      4.70295     12.47982        -0.000000     -0.000000     -0.000000
 -----------------------------------------------------------------------------------
    total drift:                               -0.000002      0.000001      0.000000


--------------------------------------------------------------------------------------------------------



  FREE ENERGIE OF THE ION-ELECTRON SYSTEM (eV)
  ---------------------------------------------------
  free  energy   TOTEN  =      -299.67705700 eV

  energy  without entropy=     -299.66828420  energy(sigma->0) =     -299.67267060
 


--------------------------------------------------------------------------------------------------------


    POTLOK:  cpu time    0.0904: real time    0.0913


--------------------------------------------------------------------------------------------------------


 writing wavefunctions
     LOOP+:  cpu time  158.7231: real time  160.3397
    4ORBIT:  cpu time    0.0000: real time    0.0000
 


 total charge     
 
# of ion       s       p       d       tot
------------------------------------------
    1        0.751   0.935   0.000   1.686
    2        0.751   0.935   0.000   1.686
    3        0.750   0.934   0.000   1.685
    4        0.751   0.936   0.000   1.687
    5        0.754   0.932   0.000   1.686
    6        0.750   0.935   0.000   1.686
    7        0.750   0.936   0.000   1.686
    8        0.750   0.935   0.000   1.685
    9        0.750   0.938   0.000   1.688
   10        0.759   0.926   0.000   1.686
   11        0.758   0.945   0.000   1.702
   12        0.760   0.928   0.000   1.689
   13        0.764   0.955   0.000   1.718
   14        0.763   0.954   0.000   1.717
   15        0.753   0.935   0.000   1.688
   16        0.756   0.925   0.000   1.680
   17        0.750   0.932   0.000   1.682
   18        0.750   0.933   0.000   1.683
   19        0.753   0.932   0.000   1.685
   20        0.754   0.933   0.000   1.687
   21        0.750   0.938   0.000   1.688
   22        0.754   0.933   0.000   1.687
   23        0.751   0.938   0.000   1.689
   24        0.751   0.938   0.000   1.689
   25        0.750   0.938   0.000   1.688
   26        0.751   0.938   0.000   1.689
   27        0.750   0.938   0.000   1.688
   28        0.750   0.938   0.000   1.688
   29        0.750   0.935   0.000   1.685
   30        0.750   0.936   0.000   1.686
   31        0.750   0.935   0.000   1.686
   32        0.754   0.932   0.000   1.686
   33        0.751   0.936   0.000   1.687
   34        0.750   0.934   0.000   1.685
   35        0.751   0.935   0.000   1.686
   36        0.751   0.935   0.000   1.686
   37        0.750   0.938   0.000   1.688
   38        0.751   0.938   0.000   1.689
   39        0.750   0.938   0.000   1.688
   40        0.751   0.938   0.000   1.689
   41        0.751   0.938   0.000   1.689
   42        0.754   0.933   0.000   1.687
   43        0.750   0.938   0.000   1.688
   44        0.754   0.933   0.000   1.687
   45        0.753   0.932   0.000   1.685
   46        0.750   0.933   0.000   1.683
   47        0.750   0.932   0.000   1.682
   48        0.756   0.925   0.000   1.680
   49        0.753   0.935   0.000   1.688
   50        0.763   0.954   0.000   1.717
   51        0.764   0.955   0.000   1.718
   52        0.760   0.928   0.000   1.689
   53        0.758   0.945   0.000   1.702
   54        0.759   0.926   0.000   1.686
   55        0.813   0.993   0.000   1.807
--------------------------------------------------
tot         41.483  51.545   0.000  93.027
 

 total amount of memory used by VASP MPI-rank0   149529. kBytes
=======================================================================

   base      :      30000. kBytes
   nonl-proj :      54318. kBytes
   fftplans  :       5382. kBytes
   grid      :      19496. kBytes
   one-center:        168. kBytes
   wavefun   :      40165. kBytes
 
  
  
 General timing and accounting informations for this job:
 ========================================================
  
                  Total CPU time used (sec):      176.277
                            User time (sec):      169.809
                          System time (sec):        6.468
                         Elapsed time (sec):      180.730
  
                   Maximum memory used (kb):      400440.
                   Average memory used (kb):           0.
  
                          Minor page faults:        42981
                          Major page faults:            0
                 Voluntary context switches:         4614
