 vasp.5.4.4.18Apr17-6-g9f103f2a35 (build Jun 19 2019 10:34:07) complex          
  
 executed on               LB-5.4 date 2023.05.15  18:33:02
 running on   96 total cores
 distrk:  each k-point on   24 cores,    4 groups
 distr:  one band on NCORES_PER_BAND=   1 cores,   24 groups


--------------------------------------------------------------------------------------------------------


 INCAR:
 POTCAR:    PAW_PBE B 06Sep2000                   
 POTCAR:    PAW_PBE Si 05Jan2001                  

 ----------------------------------------------------------------------------- 
|                                                                             |
|           W    W    AA    RRRRR   N    N  II  N    N   GGGG   !!!           |
|           W    W   A  A   R    R  NN   N  II  NN   N  G    G  !!!           |
|           W    W  A    A  R    R  N N  N  II  N N  N  G       !!!           |
|           W WW W  AAAAAA  RRRRR   N  N N  II  N  N N  G  GGG   !            |
|           WW  WW  A    A  R   R   N   NN  II  N   NN  G    G                |
|           W    W  A    A  R    R  N    N  II  N    N   GGGG   !!!           |
|                                                                             |
|      For optimal performance we recommend to set                            |
|        NCORE= 4 - approx SQRT( number of cores)                             |
|      NCORE specifies how many cores store one orbital (NPAR=cpu/NCORE).     |
|      This setting can  greatly improve the performance of VASP for DFT.     |
|      The default,   NCORE=1            might be grossly inefficient         |
|      on modern multi-core architectures or massively parallel machines.     |
|      Do your own testing !!!!                                               |
|      Unfortunately you need to use the default for GW and RPA calculations. |
|      (for HF NCORE is supported but not extensively tested yet)             |
|                                                                             |
 ----------------------------------------------------------------------------- 


 ----------------------------------------------------------------------------- 
|                                                                             |
|           W    W    AA    RRRRR   N    N  II  N    N   GGGG   !!!           |
|           W    W   A  A   R    R  NN   N  II  NN   N  G    G  !!!           |
|           W    W  A    A  R    R  N N  N  II  N N  N  G       !!!           |
|           W WW W  AAAAAA  RRRRR   N  N N  II  N  N N  G  GGG   !            |
|           WW  WW  A    A  R   R   N   NN  II  N   NN  G    G                |
|           W    W  A    A  R    R  N    N  II  N    N   GGGG   !!!           |
|                                                                             |
|      You have enabled k-point parallelism (KPAR>1).                         |
|      This developmental code was originally  written by Paul Kent at ORNL,  |
|      and carefully double checked in Vienna.                                |
|      GW as well as linear response parallelism added by Martijn Marsman     |
|      and Georg Kresse.                                                      |
|      Carefully verify results versus KPAR=1.                                |
|      Report problems to Paul Kent and Vienna.                               |
|                                                                             |
 ----------------------------------------------------------------------------- 

 POTCAR:    PAW_PBE B 06Sep2000                   
   VRHFIN =B: s2p1                                                              
   LEXCH  = PE                                                                  
   EATOM  =    71.1703 eV,    5.2309 Ry                                         
                                                                                
   TITEL  = PAW_PBE B 06Sep2000                                                 
   LULTRA =        F    use ultrasoft PP ?                                      
   IUNSCR =        1    unscreen: 0-lin 1-nonlin 2-no                           
   RPACOR =    1.200    partial core radius                                     
   POMASS =   10.811; ZVAL   =    3.000    mass and valenz                      
   RCORE  =    1.700    outmost cutoff radius                                   
   RWIGS  =    1.710; RWIGS  =    0.905    wigner-seitz radius (au A)           
   ENMAX  =  318.614; ENMIN  =  238.960 eV                                      
   ICORE  =        2    local potential                                         
   LCOR   =        T    correct aug charges                                     
   LPAW   =        T    paw PP                                                  
   EAUG   =  535.514                                                            
   DEXC   =    0.000                                                            
   RMAX   =    1.732    core radius for proj-oper                               
   RAUG   =    1.300    factor for augmentation sphere                          
   RDEP   =    1.757    radius for radial grids                                 
   RDEPT  =    1.436    core radius for aug-charge                              
                                                                                
   Atomic configuration                                                         
    4 entries                                                                   
     n  l   j            E        occ.                                          
     1  0  0.50      -180.5896   2.0000                                         
     2  0  0.50        -9.4431   2.0000                                         
     2  1  0.50        -3.6068   1.0000                                         
     3  2  1.50        -4.0817   0.0000                                         
   Description                                                                  
     l       E           TYP  RCUT    TYP  RCUT                                 
     0     -9.4430752     23  1.500                                             
     0      0.8675899     23  1.500                                             
     1     -3.6067955     23  1.700                                             
     1      6.1086146     23  1.700                                             
     2     -4.0817478      7  1.700                                             
  local pseudopotential read in
  partial core-charges read in
  partial kinetic energy density read in
  atomic valenz-charges read in
  non local Contribution for L=           0  read in
    real space projection operators read in
  non local Contribution for L=           0  read in
    real space projection operators read in
  non local Contribution for L=           1  read in
    real space projection operators read in
  non local Contribution for L=           1  read in
    real space projection operators read in
    PAW grid and wavefunctions read in
 
   number of l-projection  operators is LMAX  =           4
   number of lm-projection operators is LMMAX =           8
 
 POTCAR:    PAW_PBE Si 05Jan2001                  
   VRHFIN =Si: s2p2                                                             
   LEXCH  = PE                                                                  
   EATOM  =   103.0669 eV,    7.5752 Ry                                         
                                                                                
   TITEL  = PAW_PBE Si 05Jan2001                                                
   LULTRA =        F    use ultrasoft PP ?                                      
   IUNSCR =        1    unscreen: 0-lin 1-nonlin 2-no                           
   RPACOR =    1.500    partial core radius                                     
   POMASS =   28.085; ZVAL   =    4.000    mass and valenz                      
   RCORE  =    1.900    outmost cutoff radius                                   
   RWIGS  =    2.480; RWIGS  =    1.312    wigner-seitz radius (au A)           
   ENMAX  =  245.345; ENMIN  =  184.009 eV                                      
   ICORE  =        2    local potential                                         
   LCOR   =        T    correct aug charges                                     
   LPAW   =        T    paw PP                                                  
   EAUG   =  322.069                                                            
   DEXC   =    0.000                                                            
   RMAX   =    1.950    core radius for proj-oper                               
   RAUG   =    1.300    factor for augmentation sphere                          
   RDEP   =    1.993    radius for radial grids                                 
   RDEPT  =    1.837    core radius for aug-charge                              
                                                                                
   Atomic configuration                                                         
    6 entries                                                                   
     n  l   j            E        occ.                                          
     1  0  0.50     -1785.8828   2.0000                                         
     2  0  0.50      -139.4969   2.0000                                         
     2  1  1.50       -95.5546   6.0000                                         
     3  0  0.50       -10.8127   2.0000                                         
     3  1  0.50        -4.0811   2.0000                                         
     3  2  1.50        -4.0817   0.0000                                         
   Description                                                                  
     l       E           TYP  RCUT    TYP  RCUT                                 
     0    -10.8127223     23  1.900                                             
     0     -7.6451159     23  1.900                                             
     1     -4.0811372     23  1.900                                             
     1      2.4879257     23  1.900                                             
     2     -4.0817478      7  1.900                                             
  local pseudopotential read in
  partial core-charges read in
  partial kinetic energy density read in
  atomic valenz-charges read in
  non local Contribution for L=           0  read in
    real space projection operators read in
  non local Contribution for L=           0  read in
    real space projection operators read in
  non local Contribution for L=           1  read in
    real space projection operators read in
  non local Contribution for L=           1  read in
    real space projection operators read in
    PAW grid and wavefunctions read in
 
   number of l-projection  operators is LMAX  =           4
   number of lm-projection operators is LMMAX =           8
 

 ----------------------------------------------------------------------------- 
|                                                                             |
|  ADVICE TO THIS USER RUNNING 'VASP/VAMP'   (HEAR YOUR MASTER'S VOICE ...):  |
|                                                                             |
|      You have a (more or less) 'large supercell' and for larger cells       |
|      it might be more efficient to use real space projection opertators     |
|      So try LREAL= Auto  in the INCAR   file.                               |
|      Mind:          For very  accurate calculation you might also keep the  |
|      reciprocal projection scheme          (i.e. LREAL=.FALSE.)             |
|                                                                             |
 ----------------------------------------------------------------------------- 

  PAW_PBE B 06Sep2000                   :
 energy of atom  1       EATOM=  -71.1703
 kinetic energy error for atom=    0.0009 (will be added to EATOM!!)
  PAW_PBE Si 05Jan2001                  :
 energy of atom  2       EATOM= -103.0669
 kinetic energy error for atom=    0.0004 (will be added to EATOM!!)
 
 
 POSCAR: Si53 B1                                 
  positions in direct lattice
  No initial velocities read in
 exchange correlation table for  LEXCH =        8
   RHO(1)=    0.500       N(1)  =     2000
   RHO(2)=  100.500       N(2)  =     4000
 


--------------------------------------------------------------------------------------------------------


 ion  position               nearest neighbor table
   1  0.292  0.292  0.292-  32 2.35  40 2.35  41 2.35  38 2.35
   2  0.292  0.292  0.625-  33 2.35  41 2.35  42 2.35  39 2.35
   3  0.292  0.292  0.958-  31 2.35  40 2.35  42 2.35  37 2.35
   4  0.292  0.625  0.292-  35 2.35  43 2.35  44 2.35  41 2.35
   5  0.292  0.625  0.625-  36 2.35  44 2.35  45 2.35  42 2.35
   6  0.292  0.625  0.958-  34 2.35  43 2.35  45 2.35  40 2.35
   7  0.292  0.958  0.292-  29 2.35  37 2.35  38 2.35  44 2.35
   8  0.292  0.958  0.625-  30 2.35  38 2.35  39 2.35  45 2.35
   9  0.292  0.958  0.958-  28 2.35  37 2.35  39 2.35  43 2.35
  10  0.625  0.292  0.292-  41 2.35  49 2.35  50 2.35  47 2.35
  11  0.625  0.292  0.625-  42 2.35  50 2.35  51 2.35  48 2.35
  12  0.625  0.292  0.958-  40 2.35  49 2.35  51 2.35  46 2.35
  13  0.625  0.625  0.292-  44 2.35  52 2.35  53 2.35  50 2.35
  14  0.625  0.625  0.625-  45 2.35  53 2.35  54 2.35  51 2.35
  15  0.625  0.625  0.958-  43 2.35  52 2.35  54 2.35  49 2.35
  16  0.625  0.958  0.292-  38 2.35  46 2.35  47 2.35  53 2.35
  17  0.625  0.958  0.625-  39 2.35  47 2.35  48 2.35  54 2.35
  18  0.625  0.958  0.958-  37 2.35  46 2.35  48 2.35  52 2.35
  19  0.958  0.292  0.292-  50 2.35  32 2.35  31 2.35  29 2.35
  20  0.958  0.292  0.625-  51 2.35  33 2.35  32 2.35  30 2.35
  21  0.958  0.292  0.958-  49 2.35  31 2.35  33 2.35  28 2.35
  22  0.958  0.625  0.292-  53 2.35  35 2.35  34 2.35  32 2.35
  23  0.958  0.625  0.625-  54 2.35  36 2.35  35 2.35  33 2.35
  24  0.958  0.625  0.958-  52 2.35  34 2.35  36 2.35  31 2.35
  25  0.958  0.958  0.292-  47 2.35  29 2.35  28 2.35  35 2.35
  26  0.958  0.958  0.625-  48 2.35  30 2.35  29 2.35  36 2.35
  27  0.958  0.958  0.958-  46 2.35  28 2.35  30 2.35  34 2.35
  28  0.042  0.042  0.042-   9 2.35  27 2.35  25 2.35  21 2.35
  29  0.042  0.042  0.375-   7 2.35  25 2.35  26 2.35  19 2.35
  30  0.042  0.042  0.708-   8 2.35  26 2.35  27 2.35  20 2.35
  31  0.042  0.375  0.042-   3 2.35  21 2.35  19 2.35  24 2.35
  32  0.042  0.375  0.375-   1 2.35  19 2.35  20 2.35  22 2.35
  33  0.042  0.375  0.708-   2 2.35  20 2.35  21 2.35  23 2.35
  34  0.042  0.708  0.042-   6 2.35  24 2.35  22 2.35  27 2.35
  35  0.042  0.708  0.375-   4 2.35  22 2.35  23 2.35  25 2.35
  36  0.042  0.708  0.708-   5 2.35  23 2.35  24 2.35  26 2.35
  37  0.375  0.042  0.042-  18 2.35   9 2.35   7 2.35   3 2.35
  38  0.375  0.042  0.375-  16 2.35   8 2.35   7 2.35   1 2.35
  39  0.375  0.042  0.708-  17 2.35   9 2.35   8 2.35   2 2.35
  40  0.375  0.375  0.042-  12 2.35   3 2.35   1 2.35   6 2.35
  41  0.375  0.375  0.375-  10 2.35   2 2.35   1 2.35   4 2.35
  42  0.375  0.375  0.708-  11 2.35   3 2.35   2 2.35   5 2.35
  43  0.375  0.708  0.042-  15 2.35   6 2.35   4 2.35   9 2.35
  44  0.375  0.708  0.375-  13 2.35   5 2.35   4 2.35   7 2.35
  45  0.375  0.708  0.708-  14 2.35   6 2.35   5 2.35   8 2.35
  46  0.708  0.042  0.042-  27 2.35  18 2.35  16 2.35  12 2.35
  47  0.708  0.042  0.375-  25 2.35  17 2.35  16 2.35  10 2.35
  48  0.708  0.042  0.708-  26 2.35  18 2.35  17 2.35  11 2.35
  49  0.708  0.375  0.042-  21 2.35  12 2.35  10 2.35  15 2.35
  50  0.708  0.375  0.375-  19 2.35  11 2.35  10 2.35  13 2.35
  51  0.708  0.375  0.708-  20 2.35  12 2.35  11 2.35  14 2.35
  52  0.708  0.708  0.042-  24 2.35  15 2.35  13 2.35  18 2.35
  53  0.708  0.708  0.375-  22 2.35  14 2.35  13 2.35  16 2.35
  54  0.708  0.708  0.708-  23 2.35  15 2.35  14 2.35  17 2.35
 
  LATTYP: Found a face centered cubic cell.
 ALAT       =    16.2915000202
  
  Lattice vectors:
  
 A1 = (   9.9764655300,   0.0000000000,   5.7599150700)
 A2 = (   3.3254885100,   9.4059019200,   5.7599150700)
 A3 = (   0.0000000000,   0.0000000000,  11.5198301400)


Analysis of symmetry for initial positions (statically):
=====================================================================
 Subroutine PRICEL returns:
 Original cell was already a primitive cell.
 

 Routine SETGRP: Setting up the symmetry group for a 
 face centered cubic supercell.


 Subroutine GETGRP returns: Found 24 space group operations
 (whereof  6 operations were pure point group operations)
 out of a pool of 48 trial point group operations.


The static configuration has the point symmetry C_3v.
 The point group associated with its full space group is T_d .


Analysis of symmetry for dynamics (positions and initial velocities):
=====================================================================
 Subroutine PRICEL returns:
 Original cell was already a primitive cell.
 

 Routine SETGRP: Setting up the symmetry group for a 
 face centered cubic supercell.


 Subroutine GETGRP returns: Found 24 space group operations
 (whereof  6 operations were pure point group operations)
 out of a pool of 48 trial point group operations.


The dynamic configuration has the point symmetry C_3v.
 The point group associated with its full space group is T_d .


 Subroutine INISYM returns: Found 24 space group operations
 (whereof  6 operations are pure point group operations),
 and found     1 'primitive' translations

 
 
 KPOINTS: Automatic kpoint scheme                 

Automatic generation of k-mesh.
Space group operators:
 irot       det(A)        alpha          n_x          n_y          n_z        tau_x        tau_y        tau_z
    1     1.000000     0.000000     1.000000     0.000000     0.000000     0.000000     0.000000     0.000000
    2     1.000000   120.000000    -0.471405    -0.333333    -0.816497     0.000000     0.000000     0.000000
    3     1.000000   120.000000     0.471405     0.333333     0.816497     0.000000     0.000000     0.000000
    4    -1.000000   180.000000     0.288675     0.816497    -0.500000     0.000000     0.000000     0.000000
    5    -1.000000   180.000000     0.577350    -0.816497     0.000000     0.000000     0.000000     0.000000
    6    -1.000000   180.000000     0.866025     0.000000    -0.500000     0.000000     0.000000     0.000000
    7    -1.000000    90.000000    -0.816497    -0.577350    -0.000000     0.166667     0.000000     0.000000
    8    -1.000000   180.000000     0.866025     0.000000     0.500000     0.166667     0.000000     0.000000
    9    -1.000000    90.000000     0.408248    -0.577350     0.707107     0.166667     0.000000     0.000000
   10     1.000000   180.000000     0.816497     0.577350     0.000000     0.000000     0.000000     0.166667
   11     1.000000   120.000000     0.942809    -0.333333     0.000000     0.000000     0.000000     0.166667
   12     1.000000   120.000000    -0.000000    -1.000000    -0.000000     0.000000     0.000000     0.166667
   13    -1.000000    90.000000     0.816497     0.577350    -0.000000     0.000000     0.166667    -0.000000
   14    -1.000000    90.000000     0.408248    -0.577350    -0.707107     0.000000     0.166667    -0.000000
   15    -1.000000   180.000000     0.288675     0.816497     0.500000     0.000000     0.166667    -0.000000
   16     1.000000   120.000000    -0.000000     1.000000    -0.000000     0.166667     0.000000     0.000000
   17     1.000000   120.000000     0.471405     0.333333    -0.816497     0.166667     0.000000     0.000000
   18     1.000000   180.000000    -0.408248     0.577350     0.707107     0.166667     0.000000     0.000000
   19    -1.000000    90.000000    -0.408248     0.577350    -0.707107     0.000000     0.000000     0.166667
   20    -1.000000   180.000000     0.000000    -0.000000     1.000000     0.000000     0.000000     0.166667
   21    -1.000000    90.000000    -0.408248     0.577350     0.707107     0.000000     0.000000     0.166667
   22     1.000000   120.000000    -0.942809     0.333333     0.000000     0.000000     0.166667    -0.000000
   23     1.000000   180.000000    -0.408248     0.577350    -0.707107     0.000000     0.166667    -0.000000
   24     1.000000   120.000000    -0.471405    -0.333333     0.816497     0.000000     0.166667    -0.000000
 
 Subroutine IBZKPT returns following result:
 ===========================================
 
 Found      8 irreducible k-points:
 
 Following reciprocal coordinates:
            Coordinates               Weight
  0.000000  0.000000  0.000000      1.000000
  0.250000  0.000000  0.000000      8.000000
  0.500000  0.000000  0.000000      4.000000
  0.250000  0.250000  0.000000      6.000000
  0.500000  0.250000  0.000000     24.000000
 -0.250000  0.250000  0.000000     12.000000
  0.500000  0.500000  0.000000      3.000000
 -0.250000  0.500000  0.250000      6.000000
 
 Following cartesian coordinates:
            Coordinates               Weight
  0.000000  0.000000  0.000000      1.000000
  0.025059 -0.008860  0.000000      8.000000
  0.050118 -0.017719  0.000000      4.000000
  0.025059  0.017719  0.000000      6.000000
  0.050118  0.008860  0.000000     24.000000
 -0.025059  0.035439  0.000000     12.000000
  0.050118  0.035439  0.000000      3.000000
 -0.037588  0.053158  0.021702      6.000000
 


--------------------------------------------------------------------------------------------------------




 Dimension of arrays:
   k-points           NKPTS =      8   k-points in BZ     NKDIM =      8   number of bands    NBANDS=    144
   number of dos      NEDOS =    301   number of ions     NIONS =     54
   non local maximal  LDIM  =      4   non local SUM 2l+1 LMDIM =      8
   total plane-waves  NPLWV = 343000
   max r-space proj   IRMAX =      1   max aug-charges    IRDMAX=  10807
   dimension x,y,z NGX =    70 NGY =   70 NGZ =   70
   dimension x,y,z NGXF=   140 NGYF=  140 NGZF=  140
   support grid    NGXF=   140 NGYF=  140 NGZF=  140
   ions per type =               1  53
   NGX,Y,Z   is equivalent  to a cutoff of  10.10, 10.10, 10.10 a.u.
   NGXF,Y,Z  is equivalent  to a cutoff of  20.20, 20.20, 20.20 a.u.

 SYSTEM =  Si                                      
 POSCAR =  Si53 B1                                 

 Startparameter for this run:
   NWRITE =      2    write-flag & timer
   PREC   = normal    normal or accurate (medium, high low for compatibility)
   ISTART =      0    job   : 0-new  1-cont  2-samecut
   ICHARG =      2    charge: 1-file 2-atom 10-const
   ISPIN  =      1    spin polarized calculation?
   LNONCOLLINEAR =      F non collinear calculations
   LSORBIT =      F    spin-orbit coupling
   INIWAV =      1    electr: 0-lowe 1-rand  2-diag
   LASPH  =      F    aspherical Exc in radial PAW
   METAGGA=      F    non-selfconsistent MetaGGA calc.

 Electronic Relaxation 1
   ENCUT  =  550.0 eV  40.42 Ry    6.36 a.u.  22.03 22.03 22.03*2*pi/ulx,y,z
   ENINI  =  550.0     initial cutoff
   ENAUG  =  535.5 eV  augmentation charge cutoff
   NELM   =    200;   NELMIN=  2; NELMDL= -5     # of ELM steps 
   EDIFF  = 0.1E-05   stopping-criterion for ELM
   LREAL  =      F    real-space projection
   NLSPLINE    = F    spline interpolate recip. space projectors
   LCOMPAT=      F    compatible to vasp.4.4
   GGA_COMPAT  = T    GGA compatible to vasp.4.4-vasp.4.6
   LMAXPAW     = -100 max onsite density
   LMAXMIX     =    2 max onsite mixed and CHGCAR
   VOSKOWN=      0    Vosko Wilk Nusair interpolation
   ROPT   =    0.00000   0.00000
 Ionic relaxation
   EDIFFG = -.5E-01   stopping-criterion for IOM
   NSW    =      0    number of steps for IOM
   NBLOCK =      1;   KBLOCK =      1    inner block; outer block 
   IBRION =     -1    ionic relax: 0-MD 1-quasi-New 2-CG
   NFREE  =      1    steps in history (QN), initial steepest desc. (CG)
   ISIF   =      2    stress and relaxation
   IWAVPR =     10    prediction:  0-non 1-charg 2-wave 3-comb
   ISYM   =      2    0-nonsym 1-usesym 2-fastsym
   LCORR  =      T    Harris-Foulkes like correction to forces

   POTIM  = 0.5000    time-step for ionic-motion
   TEIN   =    0.0    initial temperature
   TEBEG  =    0.0;   TEEND  =   0.0 temperature during run
   SMASS  =  -3.00    Nose mass-parameter (am)
   estimated Nose-frequenzy (Omega)   =  0.10E-29 period in steps =****** mass=  -0.303E-26a.u.
   SCALEE = 1.0000    scale energy and forces
   NPACO  =    256;   APACO  = 16.0  distance and # of slots for P.C.
   PSTRESS=    0.0 pullay stress

  Mass of Ions in am
   POMASS =  10.81 28.09
  Ionic Valenz
   ZVAL   =   3.00  4.00
  Atomic Wigner-Seitz radii
   RWIGS  =  -1.00 -1.00
  virtual crystal weights 
   VCA    =   1.00  1.00
   NELECT =     217.0000    total number of electrons
   NUPDOWN=      -1.0000    fix difference up-down

 DOS related values:
   EMIN   =  10.00;   EMAX   =-10.00  energy-range for DOS
   EFERMI =   0.00
   ISMEAR =     0;   SIGMA  =   0.05  broadening in eV -4-tet -1-fermi 0-gaus

 Electronic relaxation 2 (details)
   IALGO  =     38    algorithm
   LDIAG  =      T    sub-space diagonalisation (order eigenvalues)
   LSUBROT=      F    optimize rotation matrix (better conditioning)
   TURBO    =      0    0=normal 1=particle mesh
   IRESTART =      0    0=no restart 2=restart with 2 vectors
   NREBOOT  =      0    no. of reboots
   NMIN     =      0    reboot dimension
   EREF     =   0.00    reference energy to select bands
   IMIX   =      4    mixing-type and parameters
     AMIX     =   0.20;   BMIX     =  1.00
     AMIX_MAG =   0.80;   BMIX_MAG =  1.00
     AMIN     =   0.10
     WC   =   100.;   INIMIX=   1;  MIXPRE=   1;  MAXMIX= -45

 Intra band minimization:
   WEIMIN = 0.0000     energy-eigenvalue tresh-hold
   EBREAK =  0.17E-08  absolut break condition
   DEPER  =   0.30     relativ break condition  

   TIME   =   0.40     timestep for ELM

  volume/ion in A,a.u.               =      20.02       135.09
  Fermi-wavevector in a.u.,A,eV,Ry     =   0.958562  1.811420 12.501599  0.918842
  Thomas-Fermi vector in A             =   2.087681
 
 Write flags
   LWAVE        =      T    write WAVECAR
   LDOWNSAMPLE  =      F    k-point downsampling of WAVECAR
   LCHARG       =      T    write CHGCAR
   LVTOT        =      F    write LOCPOT, total local potential
   LVHAR        =      F    write LOCPOT, Hartree potential only
   LELF         =      F    write electronic localiz. function (ELF)
   LORBIT       =     10    0 simple, 1 ext, 2 COOP (PROOUT), +10 PAW based schemes


 Dipole corrections
   LMONO  =      F    monopole corrections only (constant potential shift)
   LDIPOL =      F    correct potential (dipole corrections)
   IDIPOL =      0    1-x, 2-y, 3-z, 4-all directions 
   EPSILON=  1.0000000 bulk dielectric constant

 Exchange correlation treatment:
   GGA     =    --    GGA type
   LEXCH   =     8    internal setting for exchange type
   VOSKOWN=      0    Vosko Wilk Nusair interpolation
   LHFCALC =     F    Hartree Fock is set to
   LHFONE  =     F    Hartree Fock one center treatment
   AEXX    =    0.0000 exact exchange contribution

 Linear response parameters
   LEPSILON=     F    determine dielectric tensor
   LRPA    =     F    only Hartree local field effects (RPA)
   LNABLA  =     F    use nabla operator in PAW spheres
   LVEL    =     F    velocity operator in full k-point grid
   LINTERFAST=   F  fast interpolation
   KINTER  =     0    interpolate to denser k-point grid
   CSHIFT  =0.1000    complex shift for real part using Kramers Kronig
   OMEGAMAX=  -1.0    maximum frequency
   DEG_THRESHOLD= 0.2000000E-02 threshold for treating states as degnerate
   RTIME   =   -0.100 relaxation time in fs
  (WPLASMAI=    0.000 imaginary part of plasma frequency in eV, 0.658/RTIME)
   DFIELD  = 0.0000000 0.0000000 0.0000000 field for delta impulse in time
 
 Orbital magnetization related:
   ORBITALMAG=     F  switch on orbital magnetization
   LCHIMAG   =     F  perturbation theory with respect to B field
   DQ        =  0.001000  dq finite difference perturbation B field
   LLRAUG    =     F  two centre corrections for induced B field



--------------------------------------------------------------------------------------------------------


 Static calculation
 charge density and potential will be updated during run
 non-spin polarized calculation
 Variant of blocked Davidson
 Davidson routine will perform the subspace rotation
 perform sub-space diagonalisation
    after iterative eigenvector-optimisation
 modified Broyden-mixing scheme, WC =      100.0
 initial mixing is a Kerker type mixing with AMIX =  0.2000 and BMIX =      1.0000
 Hartree-type preconditioning will be used
 using additional bands           35
 reciprocal scheme for non local part
 use partial core corrections
 calculate Harris-corrections to forces 
   (improved forces if not selfconsistent)
 use gradient corrections 
 use of overlap-Matrix (Vanderbilt PP)
 Gauss-broadening in eV      SIGMA  =   0.05


--------------------------------------------------------------------------------------------------------


  energy-cutoff  :      550.00
  volume of cell :     1080.99
      direct lattice vectors                 reciprocal lattice vectors
     9.976465530  0.000000000  5.759915070     0.100235900 -0.035438742  0.000000000
     3.325488510  9.405901920  5.759915070     0.000000000  0.106316227  0.000000000
     0.000000000  0.000000000 11.519830140    -0.050117950 -0.035438742  0.086806836

  length of vectors
    11.519830124 11.519830136 11.519830140     0.106316227  0.106316227  0.106316227


 
 k-points in units of 2pi/SCALE and weight: Automatic kpoint scheme                 
   0.00000000  0.00000000  0.00000000       0.016
   0.02505897 -0.00885969  0.00000000       0.125
   0.05011795 -0.01771937  0.00000000       0.062
   0.02505897  0.01771937  0.00000000       0.094
   0.05011795  0.00885969  0.00000000       0.375
  -0.02505897  0.03543874  0.00000000       0.188
   0.05011795  0.03543874  0.00000000       0.047
  -0.03758846  0.05315811  0.02170171       0.094
 
 k-points in reciprocal lattice and weights: Automatic kpoint scheme                 
   0.00000000  0.00000000  0.00000000       0.016
   0.25000000  0.00000000  0.00000000       0.125
   0.50000000  0.00000000  0.00000000       0.062
   0.25000000  0.25000000  0.00000000       0.094
   0.50000000  0.25000000  0.00000000       0.375
  -0.25000000  0.25000000  0.00000000       0.188
   0.50000000  0.50000000  0.00000000       0.047
  -0.25000000  0.50000000  0.25000000       0.094
 
 position of ions in fractional coordinates (direct lattice) 
   0.29166667  0.29166667  0.29166667
   0.29166667  0.29166667  0.62500000
   0.29166667  0.29166667  0.95833333
   0.29166667  0.62500000  0.29166667
   0.29166667  0.62500000  0.62500000
   0.29166667  0.62500000  0.95833333
   0.29166667  0.95833333  0.29166667
   0.29166667  0.95833333  0.62500000
   0.29166667  0.95833333  0.95833333
   0.62500000  0.29166667  0.29166667
   0.62500000  0.29166667  0.62500000
   0.62500000  0.29166667  0.95833333
   0.62500000  0.62500000  0.29166667
   0.62500000  0.62500000  0.62500000
   0.62500000  0.62500000  0.95833333
   0.62500000  0.95833333  0.29166667
   0.62500000  0.95833333  0.62500000
   0.62500000  0.95833333  0.95833333
   0.95833333  0.29166667  0.29166667
   0.95833333  0.29166667  0.62500000
   0.95833333  0.29166667  0.95833333
   0.95833333  0.62500000  0.29166667
   0.95833333  0.62500000  0.62500000
   0.95833333  0.62500000  0.95833333
   0.95833333  0.95833333  0.29166667
   0.95833333  0.95833333  0.62500000
   0.95833333  0.95833333  0.95833333
   0.04166667  0.04166667  0.04166667
   0.04166667  0.04166667  0.37500000
   0.04166667  0.04166667  0.70833333
   0.04166667  0.37500000  0.04166667
   0.04166667  0.37500000  0.37500000
   0.04166667  0.37500000  0.70833333
   0.04166667  0.70833333  0.04166667
   0.04166667  0.70833333  0.37500000
   0.04166667  0.70833333  0.70833333
   0.37500000  0.04166667  0.04166667
   0.37500000  0.04166667  0.37500000
   0.37500000  0.04166667  0.70833333
   0.37500000  0.37500000  0.04166667
   0.37500000  0.37500000  0.37500000
   0.37500000  0.37500000  0.70833333
   0.37500000  0.70833333  0.04166667
   0.37500000  0.70833333  0.37500000
   0.37500000  0.70833333  0.70833333
   0.70833333  0.04166667  0.04166667
   0.70833333  0.04166667  0.37500000
   0.70833333  0.04166667  0.70833333
   0.70833333  0.37500000  0.04166667
   0.70833333  0.37500000  0.37500000
   0.70833333  0.37500000  0.70833333
   0.70833333  0.70833333  0.04166667
   0.70833333  0.70833333  0.37500000
   0.70833333  0.70833333  0.70833333
 
 position of ions in cartesian coordinates  (Angst):
   3.87973659  2.74338806  6.71990091
   3.87973659  2.74338806 10.55984429
   3.87973659  2.74338806 14.39978767
   4.98823276  5.87868870  8.63987260
   4.98823276  5.87868870 12.47981598
   4.98823276  5.87868870 16.31975937
   6.09672893  9.01398934 10.55984429
   6.09672893  9.01398934 14.39978767
   6.09672893  9.01398934 18.23973106
   7.20522510  2.74338806  8.63987260
   7.20522510  2.74338806 12.47981598
   7.20522510  2.74338806 16.31975937
   8.31372128  5.87868870 10.55984429
   8.31372128  5.87868870 14.39978767
   8.31372128  5.87868870 18.23973106
   9.42221745  9.01398934 12.47981598
   9.42221745  9.01398934 16.31975937
   9.42221745  9.01398934 20.15970275
  10.53071362  2.74338806 10.55984429
  10.53071362  2.74338806 14.39978767
  10.53071362  2.74338806 18.23973106
  11.63920979  5.87868870 12.47981598
  11.63920979  5.87868870 16.31975937
  11.63920979  5.87868870 20.15970275
  12.74770596  9.01398934 14.39978767
  12.74770596  9.01398934 18.23973106
  12.74770596  9.01398934 22.07967444
   0.55424808  0.39191258  0.95998584
   0.55424808  0.39191258  4.79992922
   0.55424808  0.39191258  8.63987260
   1.66274425  3.52721322  2.87995753
   1.66274425  3.52721322  6.71990091
   1.66274425  3.52721322 10.55984430
   2.77124042  6.66251386  4.79992922
   2.77124042  6.66251386  8.63987261
   2.77124042  6.66251386 12.47981599
   3.87973659  0.39191258  2.87995753
   3.87973659  0.39191258  6.71990091
   3.87973659  0.39191258 10.55984430
   4.98823277  3.52721322  4.79992922
   4.98823277  3.52721322  8.63987261
   4.98823277  3.52721322 12.47981599
   6.09672894  6.66251386  6.71990091
   6.09672894  6.66251386 10.55984430
   6.09672894  6.66251386 14.39978768
   7.20522511  0.39191258  4.79992922
   7.20522511  0.39191258  8.63987261
   7.20522511  0.39191258 12.47981599
   8.31372128  3.52721322  6.71990091
   8.31372128  3.52721322 10.55984430
   8.31372128  3.52721322 14.39978768
   9.42221745  6.66251386  8.63987260
   9.42221745  6.66251386 12.47981599
   9.42221745  6.66251386 16.31975937
 


--------------------------------------------------------------------------------------------------------


 k-point  1 :   0.0000 0.0000 0.0000  plane waves:   31415
 k-point  2 :   0.2500 0.0000 0.0000  plane waves:   31608
 k-point  3 :   0.5000 0.0000 0.0000  plane waves:   31638
 k-point  4 :   0.2500 0.2500 0.0000  plane waves:   31695
 k-point  5 :   0.5000 0.2500 0.0000  plane waves:   31649
 k-point  6 :  -0.2500 0.2500 0.0000  plane waves:   31674
 k-point  7 :   0.5000 0.5000 0.0000  plane waves:   31716
 k-point  8 :  -0.2500 0.5000 0.2500  plane waves:   31684

 maximum and minimum number of plane-waves per node :     31716    31415

 maximum number of plane-waves:     31716
 maximum index in each direction: 
   IXMAX=   22   IYMAX=   22   IZMAX=   22
   IXMIN=  -22   IYMIN=  -22   IZMIN=  -22


 serial   3D FFT for wavefunctions
 parallel 3D FFT for charge:
    minimum data exchange during FFTs selected (reduces bandwidth)


 total amount of memory used by VASP MPI-rank0   140598. kBytes
=======================================================================

   base      :      30000. kBytes
   nonl-proj :      59902. kBytes
   fftplans  :       5382. kBytes
   grid      :      20451. kBytes
   one-center:        165. kBytes
   wavefun   :      24698. kBytes
 
     INWAV:  cpu time    0.0000: real time    0.0000
 Broyden mixing: mesh for mixing (old mesh)
   NGX = 45   NGY = 45   NGZ = 45
  (NGX  =140   NGY  =140   NGZ  =140)
  gives a total of  91125 points

 initial charge density was supplied:
 charge density of overlapping atoms calculated
 number of electron     215.0000000 magnetization 
 keeping initial charge density in first step


--------------------------------------------------------------------------------------------------------


 Maximum index for augmentation-charges          503 (set IRDMAX)


--------------------------------------------------------------------------------------------------------


 First call to EWALD:  gamma=   0.173
 Maximum number of real-space cells 3x 3x 3
 Maximum number of reciprocal cells 3x 3x 3

    FEWALD:  cpu time    0.0781: real time    0.0788


--------------------------------------- Iteration      1(   1)  ---------------------------------------


    POTLOK:  cpu time    0.1842: real time    0.1985
    SETDIJ:  cpu time    0.0044: real time    0.0050
     EDDAV:  cpu time    3.1948: real time    3.6555
       DOS:  cpu time    0.0077: real time    0.0086
    --------------------------------------------
      LOOP:  cpu time    3.3911: real time    3.8677

 eigenvalue-minimisations  :  2304
 total energy-change (2. order) : 0.5827786E+03  (-0.8606445E+04)
 number of electron     215.0000000 magnetization 
 augmentation part      215.0000000 magnetization 

 Free energy of the ion-electron system (eV)
  ---------------------------------------------------
  alpha Z        PSCENC =        93.27357238
  Ewald energy   TEWEN  =     -6115.53854741
  -Hartree energ DENC   =      -300.67959059
  -exchange      EXHF   =         0.00000000
  -V(xc)+E(xc)   XCENC  =      -487.55551508
  PAW double counting   =      4714.06124509    -3780.76198842
  entropy T*S    EENTRO =        -0.01618350
  eigenvalues    EBANDS =       926.30334685
  atomic energy  EATOM  =      5533.69225236
  Solvation  Ediel_sol  =         0.00000000
  ---------------------------------------------------
  free energy    TOTEN  =       582.77859169 eV

  energy without entropy =      582.79477518  energy(sigma->0) =      582.78668343


--------------------------------------------------------------------------------------------------------




--------------------------------------- Iteration      1(   2)  ---------------------------------------


     EDDAV:  cpu time    3.8814: real time    3.9163
       DOS:  cpu time    0.0029: real time    0.0029
    --------------------------------------------
      LOOP:  cpu time    3.8843: real time    3.9193

 eigenvalue-minimisations  :  2856
 total energy-change (2. order) :-0.8179155E+03  (-0.7870474E+03)
 number of electron     215.0000000 magnetization 
 augmentation part      215.0000000 magnetization 

 Free energy of the ion-electron system (eV)
  ---------------------------------------------------
  alpha Z        PSCENC =        93.27357238
  Ewald energy   TEWEN  =     -6115.53854741
  -Hartree energ DENC   =      -300.67959059
  -exchange      EXHF   =         0.00000000
  -V(xc)+E(xc)   XCENC  =      -487.55551508
  PAW double counting   =      4714.06124509    -3780.76198842
  entropy T*S    EENTRO =        -0.01478894
  eigenvalues    EBANDS =       108.38644733
  atomic energy  EATOM  =      5533.69225236
  Solvation  Ediel_sol  =         0.00000000
  ---------------------------------------------------
  free energy    TOTEN  =      -235.13691328 eV

  energy without entropy =     -235.12212434  energy(sigma->0) =     -235.12951881


--------------------------------------------------------------------------------------------------------




--------------------------------------- Iteration      1(   3)  ---------------------------------------


     EDDAV:  cpu time    4.0384: real time    4.0759
       DOS:  cpu time    0.0039: real time    0.0039
    --------------------------------------------
      LOOP:  cpu time    4.0422: real time    4.0798

 eigenvalue-minimisations  :  2880
 total energy-change (2. order) :-0.4943644E+02  (-0.4888198E+02)
 number of electron     215.0000000 magnetization 
 augmentation part      215.0000000 magnetization 

 Free energy of the ion-electron system (eV)
  ---------------------------------------------------
  alpha Z        PSCENC =        93.27357238
  Ewald energy   TEWEN  =     -6115.53854741
  -Hartree energ DENC   =      -300.67959059
  -exchange      EXHF   =         0.00000000
  -V(xc)+E(xc)   XCENC  =      -487.55551508
  PAW double counting   =      4714.06124509    -3780.76198842
  entropy T*S    EENTRO =        -0.01159060
  eigenvalues    EBANDS =        58.94680729
  atomic energy  EATOM  =      5533.69225236
  Solvation  Ediel_sol  =         0.00000000
  ---------------------------------------------------
  free energy    TOTEN  =      -284.57335498 eV

  energy without entropy =     -284.56176438  energy(sigma->0) =     -284.56755968


--------------------------------------------------------------------------------------------------------




--------------------------------------- Iteration      1(   4)  ---------------------------------------


     EDDAV:  cpu time    4.2455: real time    4.2857
       DOS:  cpu time    0.0036: real time    0.0036
    --------------------------------------------
      LOOP:  cpu time    4.2491: real time    4.2893

 eigenvalue-minimisations  :  2880
 total energy-change (2. order) :-0.9904855E+00  (-0.9853788E+00)
 number of electron     215.0000000 magnetization 
 augmentation part      215.0000000 magnetization 

 Free energy of the ion-electron system (eV)
  ---------------------------------------------------
  alpha Z        PSCENC =        93.27357238
  Ewald energy   TEWEN  =     -6115.53854741
  -Hartree energ DENC   =      -300.67959059
  -exchange      EXHF   =         0.00000000
  -V(xc)+E(xc)   XCENC  =      -487.55551508
  PAW double counting   =      4714.06124509    -3780.76198842
  entropy T*S    EENTRO =        -0.01200810
  eigenvalues    EBANDS =        57.95673930
  atomic energy  EATOM  =      5533.69225236
  Solvation  Ediel_sol  =         0.00000000
  ---------------------------------------------------
  free energy    TOTEN  =      -285.56384047 eV

  energy without entropy =     -285.55183237  energy(sigma->0) =     -285.55783642


--------------------------------------------------------------------------------------------------------




--------------------------------------- Iteration      1(   5)  ---------------------------------------


     EDDAV:  cpu time    4.0756: real time    4.1146
       DOS:  cpu time    0.0037: real time    0.0037
    CHARGE:  cpu time    0.1683: real time    0.1702
    MIXING:  cpu time    0.0041: real time    0.0066
    --------------------------------------------
      LOOP:  cpu time    4.2518: real time    4.2951

 eigenvalue-minimisations  :  2832
 total energy-change (2. order) :-0.2144425E-01  (-0.2142688E-01)
 number of electron     216.9999999 magnetization 
 augmentation part      -12.5343716 magnetization 

 Broyden mixing:
  rms(total) = 0.25241E+01    rms(broyden)= 0.25234E+01
  rms(prec ) = 0.29250E+01
  weight for this iteration     100.00

 Free energy of the ion-electron system (eV)
  ---------------------------------------------------
  alpha Z        PSCENC =        93.27357238
  Ewald energy   TEWEN  =     -6115.53854741
  -Hartree energ DENC   =      -300.67959059
  -exchange      EXHF   =         0.00000000
  -V(xc)+E(xc)   XCENC  =      -487.55551508
  PAW double counting   =      4714.06124509    -3780.76198842
  entropy T*S    EENTRO =        -0.01205281
  eigenvalues    EBANDS =        57.93533976
  atomic energy  EATOM  =      5533.69225236
  Solvation  Ediel_sol  =         0.00000000
  ---------------------------------------------------
  free energy    TOTEN  =      -285.58528472 eV

  energy without entropy =     -285.57323191  energy(sigma->0) =     -285.57925831


--------------------------------------------------------------------------------------------------------




--------------------------------------- Iteration      1(   6)  ---------------------------------------


    POTLOK:  cpu time    0.0879: real time    0.0889
    SETDIJ:  cpu time    0.0037: real time    0.0037
     EDDAV:  cpu time    4.3240: real time    4.3642
       DOS:  cpu time    0.0052: real time    0.0052
    CHARGE:  cpu time    0.1666: real time    0.1678
    MIXING:  cpu time    0.0068: real time    0.0069
    --------------------------------------------
      LOOP:  cpu time    4.5943: real time    4.6368

 eigenvalue-minimisations  :  3048
 total energy-change (2. order) : 0.2598247E+01  (-0.1186708E+00)
 number of electron     216.9999999 magnetization 
 augmentation part      -12.4666130 magnetization 

 Broyden mixing:
  rms(total) = 0.20362E+01    rms(broyden)= 0.20362E+01
  rms(prec ) = 0.23327E+01
  weight for this iteration     100.00

 eigenvalues of (default mixing * dielectric matrix)
  average eigenvalue GAMMA=   5.0263
  5.0263

 Free energy of the ion-electron system (eV)
  ---------------------------------------------------
  alpha Z        PSCENC =        93.27357238
  Ewald energy   TEWEN  =     -6115.53854741
  -Hartree energ DENC   =      -320.52764986
  -exchange      EXHF   =         0.00000000
  -V(xc)+E(xc)   XCENC  =      -478.87068552
  PAW double counting   =      7102.64033810    -6170.82969286
  entropy T*S    EENTRO =        -0.01172489
  eigenvalues    EBANDS =        73.18510015
  atomic energy  EATOM  =      5533.69225236
  Solvation  Ediel_sol  =         0.00000000
  ---------------------------------------------------
  free energy    TOTEN  =      -282.98703755 eV

  energy without entropy =     -282.97531266  energy(sigma->0) =     -282.98117511


--------------------------------------------------------------------------------------------------------




--------------------------------------- Iteration      1(   7)  ---------------------------------------


    POTLOK:  cpu time    0.0856: real time    0.0866
    SETDIJ:  cpu time    0.0037: real time    0.0037
     EDDAV:  cpu time    4.0851: real time    4.1284
       DOS:  cpu time    0.0056: real time    0.0056
    CHARGE:  cpu time    0.1672: real time    0.1685
    MIXING:  cpu time    0.0050: real time    0.0050
    --------------------------------------------
      LOOP:  cpu time    4.3521: real time    4.3977

 eigenvalue-minimisations  :  2928
 total energy-change (2. order) : 0.2985497E+01  (-0.8973704E+00)
 number of electron     216.9999999 magnetization 
 augmentation part      -12.2466754 magnetization 

 Broyden mixing:
  rms(total) = 0.31153E+00    rms(broyden)= 0.31153E+00
  rms(prec ) = 0.42579E+00
  weight for this iteration     100.00

 eigenvalues of (default mixing * dielectric matrix)
  average eigenvalue GAMMA=   3.3597
  1.7856  4.9338

 Free energy of the ion-electron system (eV)
  ---------------------------------------------------
  alpha Z        PSCENC =        93.27357238
  Ewald energy   TEWEN  =     -6115.53854741
  -Hartree energ DENC   =      -400.84925963
  -exchange      EXHF   =         0.00000000
  -V(xc)+E(xc)   XCENC  =      -466.21775746
  PAW double counting   =     21272.47845070   -20345.93630097
  entropy T*S    EENTRO =        -0.01156778
  eigenvalues    EBANDS =       149.10761705
  atomic energy  EATOM  =      5533.69225236
  Solvation  Ediel_sol  =         0.00000000
  ---------------------------------------------------
  free energy    TOTEN  =      -280.00154076 eV

  energy without entropy =     -279.98997298  energy(sigma->0) =     -279.99575687


--------------------------------------------------------------------------------------------------------




--------------------------------------- Iteration      1(   8)  ---------------------------------------


    POTLOK:  cpu time    0.0915: real time    0.0926
    SETDIJ:  cpu time    0.0042: real time    0.0042
     EDDAV:  cpu time    3.9858: real time    4.0261
       DOS:  cpu time    0.0052: real time    0.0052
    CHARGE:  cpu time    0.1596: real time    0.1607
    MIXING:  cpu time    0.0039: real time    0.0040
    --------------------------------------------
      LOOP:  cpu time    4.2503: real time    4.2928

 eigenvalue-minimisations  :  2856
 total energy-change (2. order) : 0.9218929E-01  (-0.1137969E+00)
 number of electron     216.9999999 magnetization 
 augmentation part      -12.2198402 magnetization 

 Broyden mixing:
  rms(total) = 0.11183E+00    rms(broyden)= 0.11183E+00
  rms(prec ) = 0.13796E+00
  weight for this iteration     100.00

 eigenvalues of (default mixing * dielectric matrix)
  average eigenvalue GAMMA=   2.4761
  4.9472  1.8193  0.6620

 Free energy of the ion-electron system (eV)
  ---------------------------------------------------
  alpha Z        PSCENC =        93.27357238
  Ewald energy   TEWEN  =     -6115.53854741
  -Hartree energ DENC   =      -406.79476837
  -exchange      EXHF   =         0.00000000
  -V(xc)+E(xc)   XCENC  =      -465.04287028
  PAW double counting   =     23278.41009511   -22351.91452773
  entropy T*S    EENTRO =        -0.01155856
  eigenvalues    EBANDS =       154.01700103
  atomic energy  EATOM  =      5533.69225236
  Solvation  Ediel_sol  =         0.00000000
  ---------------------------------------------------
  free energy    TOTEN  =      -279.90935147 eV

  energy without entropy =     -279.89779291  energy(sigma->0) =     -279.90357219


--------------------------------------------------------------------------------------------------------




--------------------------------------- Iteration      1(   9)  ---------------------------------------


    POTLOK:  cpu time    0.0804: real time    0.0844
    SETDIJ:  cpu time    0.0028: real time    0.0028
     EDDAV:  cpu time    3.7770: real time    3.8110
       DOS:  cpu time    0.0052: real time    0.0052
    CHARGE:  cpu time    0.1598: real time    0.1608
    MIXING:  cpu time    0.0040: real time    0.0041
    --------------------------------------------
      LOOP:  cpu time    4.0291: real time    4.0683

 eigenvalue-minimisations  :  2688
 total energy-change (2. order) :-0.6459207E-02  (-0.9852845E-02)
 number of electron     216.9999999 magnetization 
 augmentation part      -12.2194330 magnetization 

 Broyden mixing:
  rms(total) = 0.72519E-01    rms(broyden)= 0.72519E-01
  rms(prec ) = 0.92015E-01
  weight for this iteration     100.00

 eigenvalues of (default mixing * dielectric matrix)
  average eigenvalue GAMMA=   2.3721
  4.8648  2.2915  1.1661  1.1661

 Free energy of the ion-electron system (eV)
  ---------------------------------------------------
  alpha Z        PSCENC =        93.27357238
  Ewald energy   TEWEN  =     -6115.53854741
  -Hartree energ DENC   =      -406.26321645
  -exchange      EXHF   =         0.00000000
  -V(xc)+E(xc)   XCENC  =      -465.04027724
  PAW double counting   =     23340.36892057   -22413.70747442
  entropy T*S    EENTRO =        -0.01155410
  eigenvalues    EBANDS =       153.31051363
  atomic energy  EATOM  =      5533.69225236
  Solvation  Ediel_sol  =         0.00000000
  ---------------------------------------------------
  free energy    TOTEN  =      -279.91581068 eV

  energy without entropy =     -279.90425658  energy(sigma->0) =     -279.91003363


--------------------------------------------------------------------------------------------------------




--------------------------------------- Iteration      1(  10)  ---------------------------------------


    POTLOK:  cpu time    0.0857: real time    0.0867
    SETDIJ:  cpu time    0.0029: real time    0.0030
     EDDAV:  cpu time    3.8091: real time    3.8411
       DOS:  cpu time    0.0052: real time    0.0052
    CHARGE:  cpu time    0.1600: real time    0.1611
    MIXING:  cpu time    0.0041: real time    0.0041
    --------------------------------------------
      LOOP:  cpu time    4.0669: real time    4.1012

 eigenvalue-minimisations  :  2760
 total energy-change (2. order) :-0.3655693E-02  (-0.1416425E-02)
 number of electron     216.9999999 magnetization 
 augmentation part      -12.2262324 magnetization 

 Broyden mixing:
  rms(total) = 0.43277E-01    rms(broyden)= 0.43277E-01
  rms(prec ) = 0.53253E-01
  weight for this iteration     100.00

 eigenvalues of (default mixing * dielectric matrix)
  average eigenvalue GAMMA=   2.6677
  4.7255  4.7255  1.9447  0.9714  0.9714

 Free energy of the ion-electron system (eV)
  ---------------------------------------------------
  alpha Z        PSCENC =        93.27357238
  Ewald energy   TEWEN  =     -6115.53854741
  -Hartree energ DENC   =      -405.37172006
  -exchange      EXHF   =         0.00000000
  -V(xc)+E(xc)   XCENC  =      -465.06955369
  PAW double counting   =     23304.82601095   -22377.92781732
  entropy T*S    EENTRO =        -0.01154756
  eigenvalues    EBANDS =       152.20788397
  atomic energy  EATOM  =      5533.69225236
  Solvation  Ediel_sol  =         0.00000000
  ---------------------------------------------------
  free energy    TOTEN  =      -279.91946637 eV

  energy without entropy =     -279.90791881  energy(sigma->0) =     -279.91369259


--------------------------------------------------------------------------------------------------------




--------------------------------------- Iteration      1(  11)  ---------------------------------------


    POTLOK:  cpu time    0.0931: real time    0.0942
    SETDIJ:  cpu time    0.0028: real time    0.0028
     EDDAV:  cpu time    4.0017: real time    4.0391
       DOS:  cpu time    0.0048: real time    0.0048
    CHARGE:  cpu time    0.1597: real time    0.1608
    MIXING:  cpu time    0.0043: real time    0.0043
    --------------------------------------------
      LOOP:  cpu time    4.2664: real time    4.3060

 eigenvalue-minimisations  :  2688
 total energy-change (2. order) :-0.6593220E-02  (-0.1367756E-02)
 number of electron     216.9999999 magnetization 
 augmentation part      -12.2365329 magnetization 

 Broyden mixing:
  rms(total) = 0.22707E-01    rms(broyden)= 0.22707E-01
  rms(prec ) = 0.27582E-01
  weight for this iteration     100.00

 eigenvalues of (default mixing * dielectric matrix)
  average eigenvalue GAMMA=   2.2801
  4.7230  4.7230  1.9574  0.9800  0.9800  0.3173

 Free energy of the ion-electron system (eV)
  ---------------------------------------------------
  alpha Z        PSCENC =        93.27357238
  Ewald energy   TEWEN  =     -6115.53854741
  -Hartree energ DENC   =      -404.78812604
  -exchange      EXHF   =         0.00000000
  -V(xc)+E(xc)   XCENC  =      -465.03958132
  PAW double counting   =     23302.60124684   -22375.45605681
  entropy T*S    EENTRO =        -0.01154066
  eigenvalues    EBANDS =       151.34072108
  atomic energy  EATOM  =      5533.69225236
  Solvation  Ediel_sol  =         0.00000000
  ---------------------------------------------------
  free energy    TOTEN  =      -279.92605959 eV

  energy without entropy =     -279.91451893  energy(sigma->0) =     -279.92028926


--------------------------------------------------------------------------------------------------------




--------------------------------------- Iteration      1(  12)  ---------------------------------------


    POTLOK:  cpu time    0.0857: real time    0.0868
    SETDIJ:  cpu time    0.0029: real time    0.0030
     EDDAV:  cpu time    3.9965: real time    4.0321
       DOS:  cpu time    0.0047: real time    0.0047
    CHARGE:  cpu time    0.1596: real time    0.1606
    MIXING:  cpu time    0.0044: real time    0.0044
    --------------------------------------------
      LOOP:  cpu time    4.2537: real time    4.2916

 eigenvalue-minimisations  :  2880
 total energy-change (2. order) :-0.7822412E-03  (-0.1458913E-03)
 number of electron     216.9999999 magnetization 
 augmentation part      -12.2374409 magnetization 

 Broyden mixing:
  rms(total) = 0.16763E-01    rms(broyden)= 0.16763E-01
  rms(prec ) = 0.19791E-01
  weight for this iteration     100.00

 eigenvalues of (default mixing * dielectric matrix)
  average eigenvalue GAMMA=   2.5735
  5.4205  4.8860  1.9381  1.9381  1.9808  0.9257  0.9257

 Free energy of the ion-electron system (eV)
  ---------------------------------------------------
  alpha Z        PSCENC =        93.27357238
  Ewald energy   TEWEN  =     -6115.53854741
  -Hartree energ DENC   =      -404.77626824
  -exchange      EXHF   =         0.00000000
  -V(xc)+E(xc)   XCENC  =      -465.03729472
  PAW double counting   =     23211.94155170   -22284.76792838
  entropy T*S    EENTRO =        -0.01153917
  eigenvalues    EBANDS =       151.29735965
  atomic energy  EATOM  =      5533.69225236
  Solvation  Ediel_sol  =         0.00000000
  ---------------------------------------------------
  free energy    TOTEN  =      -279.92684183 eV

  energy without entropy =     -279.91530266  energy(sigma->0) =     -279.92107224


--------------------------------------------------------------------------------------------------------




--------------------------------------- Iteration      1(  13)  ---------------------------------------


    POTLOK:  cpu time    0.0859: real time    0.0870
    SETDIJ:  cpu time    0.0029: real time    0.0029
     EDDAV:  cpu time    3.9125: real time    3.9487
       DOS:  cpu time    0.0047: real time    0.0047
    CHARGE:  cpu time    0.1595: real time    0.1606
    MIXING:  cpu time    0.0046: real time    0.0046
    --------------------------------------------
      LOOP:  cpu time    4.1700: real time    4.2085

 eigenvalue-minimisations  :  2688
 total energy-change (2. order) :-0.1211299E-02  (-0.1713422E-03)
 number of electron     216.9999999 magnetization 
 augmentation part      -12.2389657 magnetization 

 Broyden mixing:
  rms(total) = 0.10114E-01    rms(broyden)= 0.10114E-01
  rms(prec ) = 0.11117E-01
  weight for this iteration     100.00

 eigenvalues of (default mixing * dielectric matrix)
  average eigenvalue GAMMA=   2.5108
  5.4038  5.0744  2.5142  2.5142  1.8344  0.9666  0.9666  0.8123

 Free energy of the ion-electron system (eV)
  ---------------------------------------------------
  alpha Z        PSCENC =        93.27357238
  Ewald energy   TEWEN  =     -6115.53854741
  -Hartree energ DENC   =      -405.19106009
  -exchange      EXHF   =         0.00000000
  -V(xc)+E(xc)   XCENC  =      -464.94778640
  PAW double counting   =     23184.17020594   -22256.95050711
  entropy T*S    EENTRO =        -0.01153772
  eigenvalues    EBANDS =       151.57535493
  atomic energy  EATOM  =      5533.69225236
  Solvation  Ediel_sol  =         0.00000000
  ---------------------------------------------------
  free energy    TOTEN  =      -279.92805313 eV

  energy without entropy =     -279.91651541  energy(sigma->0) =     -279.92228427


--------------------------------------------------------------------------------------------------------




--------------------------------------- Iteration      1(  14)  ---------------------------------------


    POTLOK:  cpu time    0.0857: real time    0.0868
    SETDIJ:  cpu time    0.0031: real time    0.0031
     EDDAV:  cpu time    3.9970: real time    4.0324
       DOS:  cpu time    0.0048: real time    0.0048
    CHARGE:  cpu time    0.1603: real time    0.1613
    MIXING:  cpu time    0.0049: real time    0.0049
    --------------------------------------------
      LOOP:  cpu time    4.2558: real time    4.2934

 eigenvalue-minimisations  :  2880
 total energy-change (2. order) :-0.2930986E-04  (-0.1676815E-04)
 number of electron     216.9999999 magnetization 
 augmentation part      -12.2386454 magnetization 

 Broyden mixing:
  rms(total) = 0.64498E-02    rms(broyden)= 0.64498E-02
  rms(prec ) = 0.69106E-02
  weight for this iteration     100.00

 eigenvalues of (default mixing * dielectric matrix)
  average eigenvalue GAMMA=   2.4902
  5.8234  5.0515  3.4394  2.2656  1.7579  0.9118  0.9118  1.1251  1.1251

 Free energy of the ion-electron system (eV)
  ---------------------------------------------------
  alpha Z        PSCENC =        93.27357238
  Ewald energy   TEWEN  =     -6115.53854741
  -Hartree energ DENC   =      -405.33536335
  -exchange      EXHF   =         0.00000000
  -V(xc)+E(xc)   XCENC  =      -464.93353020
  PAW double counting   =     23146.95142816   -22219.74227506
  entropy T*S    EENTRO =        -0.01153797
  eigenvalues    EBANDS =       151.71591865
  atomic energy  EATOM  =      5533.69225236
  Solvation  Ediel_sol  =         0.00000000
  ---------------------------------------------------
  free energy    TOTEN  =      -279.92808244 eV

  energy without entropy =     -279.91654447  energy(sigma->0) =     -279.92231346


--------------------------------------------------------------------------------------------------------




--------------------------------------- Iteration      1(  15)  ---------------------------------------


    POTLOK:  cpu time    0.0856: real time    0.0867
    SETDIJ:  cpu time    0.0032: real time    0.0032
     EDDAV:  cpu time    3.9164: real time    3.9501
       DOS:  cpu time    0.0046: real time    0.0046
    CHARGE:  cpu time    0.1592: real time    0.1602
    MIXING:  cpu time    0.0050: real time    0.0050
    --------------------------------------------
      LOOP:  cpu time    4.1739: real time    4.2098

 eigenvalue-minimisations  :  2832
 total energy-change (2. order) :-0.3143808E-04  (-0.6902184E-05)
 number of electron     216.9999999 magnetization 
 augmentation part      -12.2380478 magnetization 

 Broyden mixing:
  rms(total) = 0.32885E-02    rms(broyden)= 0.32885E-02
  rms(prec ) = 0.35730E-02
  weight for this iteration     100.00

 eigenvalues of (default mixing * dielectric matrix)
  average eigenvalue GAMMA=   2.4351
  5.8536  4.8330  2.9616  2.4407  2.4407  1.8112  1.2488  0.9584  0.9584  0.8450

 Free energy of the ion-electron system (eV)
  ---------------------------------------------------
  alpha Z        PSCENC =        93.27357238
  Ewald energy   TEWEN  =     -6115.53854741
  -Hartree energ DENC   =      -405.46701876
  -exchange      EXHF   =         0.00000000
  -V(xc)+E(xc)   XCENC  =      -464.92114345
  PAW double counting   =     23107.13218709   -22179.93126575
  entropy T*S    EENTRO =        -0.01153791
  eigenvalues    EBANDS =       151.84338757
  atomic energy  EATOM  =      5533.69225236
  Solvation  Ediel_sol  =         0.00000000
  ---------------------------------------------------
  free energy    TOTEN  =      -279.92811388 eV

  energy without entropy =     -279.91657597  energy(sigma->0) =     -279.92234492


--------------------------------------------------------------------------------------------------------




--------------------------------------- Iteration      1(  16)  ---------------------------------------


    POTLOK:  cpu time    0.0856: real time    0.0867
    SETDIJ:  cpu time    0.0031: real time    0.0031
     EDDAV:  cpu time    3.9643: real time    3.9986
       DOS:  cpu time    0.0034: real time    0.0034
    CHARGE:  cpu time    0.1597: real time    0.1608
    MIXING:  cpu time    0.0052: real time    0.0052
    --------------------------------------------
      LOOP:  cpu time    4.2213: real time    4.2578

 eigenvalue-minimisations  :  2928
 total energy-change (2. order) :-0.2524414E-05  (-0.9739729E-06)
 number of electron     216.9999999 magnetization 
 augmentation part      -12.2379099 magnetization 

 Broyden mixing:
  rms(total) = 0.21827E-02    rms(broyden)= 0.21827E-02
  rms(prec ) = 0.23189E-02
  weight for this iteration     100.00

 eigenvalues of (default mixing * dielectric matrix)
  average eigenvalue GAMMA=   2.4403
  5.9615  4.8399  3.3850  3.3850  2.4597  1.8017  1.3110  0.9138  0.9138  0.9360
  0.9360

 Free energy of the ion-electron system (eV)
  ---------------------------------------------------
  alpha Z        PSCENC =        93.27357238
  Ewald energy   TEWEN  =     -6115.53854741
  -Hartree energ DENC   =      -405.51573060
  -exchange      EXHF   =         0.00000000
  -V(xc)+E(xc)   XCENC  =      -464.91589330
  PAW double counting   =     23109.83107917   -22182.63400109
  entropy T*S    EENTRO =        -0.01153773
  eigenvalues    EBANDS =       151.89068982
  atomic energy  EATOM  =      5533.69225236
  Solvation  Ediel_sol  =         0.00000000
  ---------------------------------------------------
  free energy    TOTEN  =      -279.92811640 eV

  energy without entropy =     -279.91657867  energy(sigma->0) =     -279.92234753


--------------------------------------------------------------------------------------------------------




--------------------------------------- Iteration      1(  17)  ---------------------------------------


    POTLOK:  cpu time    0.0855: real time    0.0866
    SETDIJ:  cpu time    0.0029: real time    0.0029
     EDDAV:  cpu time    3.7475: real time    3.7799
       DOS:  cpu time    0.0039: real time    0.0039
    CHARGE:  cpu time    0.1599: real time    0.1610
    MIXING:  cpu time    0.0053: real time    0.0054
    --------------------------------------------
      LOOP:  cpu time    4.0050: real time    4.0397

 eigenvalue-minimisations  :  2616
 total energy-change (2. order) :-0.2024764E-05  (-0.3785954E-06)
 number of electron     216.9999999 magnetization 
 augmentation part      -12.2378132 magnetization 

 Broyden mixing:
  rms(total) = 0.14387E-02    rms(broyden)= 0.14387E-02
  rms(prec ) = 0.15419E-02
  weight for this iteration     100.00

 eigenvalues of (default mixing * dielectric matrix)
  average eigenvalue GAMMA=   2.3669
  6.1285  4.8625  3.3907  3.3907  2.6295  1.9005  1.1568  1.1568  1.0390  0.9514
  0.9514  0.8453

 Free energy of the ion-electron system (eV)
  ---------------------------------------------------
  alpha Z        PSCENC =        93.27357238
  Ewald energy   TEWEN  =     -6115.53854741
  -Hartree energ DENC   =      -405.52905184
  -exchange      EXHF   =         0.00000000
  -V(xc)+E(xc)   XCENC  =      -464.91518619
  PAW double counting   =     23107.52528345   -22180.32899763
  entropy T*S    EENTRO =        -0.01153769
  eigenvalues    EBANDS =       151.90409414
  atomic energy  EATOM  =      5533.69225236
  Solvation  Ediel_sol  =         0.00000000
  ---------------------------------------------------
  free energy    TOTEN  =      -279.92811843 eV

  energy without entropy =     -279.91658074  energy(sigma->0) =     -279.92234958


--------------------------------------------------------------------------------------------------------




--------------------------------------- Iteration      1(  18)  ---------------------------------------


    POTLOK:  cpu time    0.0858: real time    0.0869
    SETDIJ:  cpu time    0.0027: real time    0.0028
     EDDAV:  cpu time    3.0731: real time    3.1008
       DOS:  cpu time    0.0041: real time    0.0041
    CHARGE:  cpu time    0.1601: real time    0.1612
    MIXING:  cpu time    0.0055: real time    0.0055
    --------------------------------------------
      LOOP:  cpu time    3.3314: real time    3.3613

 eigenvalue-minimisations  :  1944
 total energy-change (2. order) :-0.3056999E-05  (-0.1991856E-06)
 number of electron     216.9999999 magnetization 
 augmentation part      -12.2377276 magnetization 

 Broyden mixing:
  rms(total) = 0.79461E-03    rms(broyden)= 0.79461E-03
  rms(prec ) = 0.86510E-03
  weight for this iteration     100.00

 eigenvalues of (default mixing * dielectric matrix)
  average eigenvalue GAMMA=   2.4254
  6.1564  4.8919  4.5084  2.8189  2.8189  2.3667  1.5916  1.5916  0.9074  0.9696
  0.9696  0.9699  0.9699

 Free energy of the ion-electron system (eV)
  ---------------------------------------------------
  alpha Z        PSCENC =        93.27357238
  Ewald energy   TEWEN  =     -6115.53854741
  -Hartree energ DENC   =      -405.55114613
  -exchange      EXHF   =         0.00000000
  -V(xc)+E(xc)   XCENC  =      -464.91363470
  PAW double counting   =     23102.26106164   -22175.06652243
  entropy T*S    EENTRO =        -0.01153772
  eigenvalues    EBANDS =       151.92638053
  atomic energy  EATOM  =      5533.69225236
  Solvation  Ediel_sol  =         0.00000000
  ---------------------------------------------------
  free energy    TOTEN  =      -279.92812148 eV

  energy without entropy =     -279.91658376  energy(sigma->0) =     -279.92235262


--------------------------------------------------------------------------------------------------------




--------------------------------------- Iteration      1(  19)  ---------------------------------------


    POTLOK:  cpu time    0.0857: real time    0.0867
    SETDIJ:  cpu time    0.0036: real time    0.0036
     EDDAV:  cpu time    2.9142: real time    2.9411
       DOS:  cpu time    0.0039: real time    0.0040
    CHARGE:  cpu time    0.1602: real time    0.1614
    MIXING:  cpu time    0.0058: real time    0.0058
    --------------------------------------------
      LOOP:  cpu time    3.1734: real time    3.2026

 eigenvalue-minimisations  :  1728
 total energy-change (2. order) :-0.1705308E-05  (-0.1053264E-06)
 number of electron     216.9999999 magnetization 
 augmentation part      -12.2376348 magnetization 

 Broyden mixing:
  rms(total) = 0.37744E-03    rms(broyden)= 0.37744E-03
  rms(prec ) = 0.42264E-03
  weight for this iteration     100.00

 eigenvalues of (default mixing * dielectric matrix)
  average eigenvalue GAMMA=   2.3982
  6.2836  4.9417  4.0842  4.0842  2.4444  2.4444  1.8404  1.2470  1.2470  1.2502
  0.9724  0.9724  0.8817  0.8817

 Free energy of the ion-electron system (eV)
  ---------------------------------------------------
  alpha Z        PSCENC =        93.27357238
  Ewald energy   TEWEN  =     -6115.53854741
  -Hartree energ DENC   =      -405.56294800
  -exchange      EXHF   =         0.00000000
  -V(xc)+E(xc)   XCENC  =      -464.91307360
  PAW double counting   =     23101.31766415   -22174.12416956
  entropy T*S    EENTRO =        -0.01153775
  eigenvalues    EBANDS =       151.93866425
  atomic energy  EATOM  =      5533.69225236
  Solvation  Ediel_sol  =         0.00000000
  ---------------------------------------------------
  free energy    TOTEN  =      -279.92812319 eV

  energy without entropy =     -279.91658544  energy(sigma->0) =     -279.92235431


--------------------------------------------------------------------------------------------------------




--------------------------------------- Iteration      1(  20)  ---------------------------------------


    POTLOK:  cpu time    0.0852: real time    0.0863
    SETDIJ:  cpu time    0.0036: real time    0.0036
     EDDAV:  cpu time    2.8875: real time    2.9129
       DOS:  cpu time    0.0039: real time    0.0039
    --------------------------------------------
      LOOP:  cpu time    2.9801: real time    3.0066

 eigenvalue-minimisations  :  1896
 total energy-change (2. order) : 0.8538791E-06  (-0.5178917E-07)
 number of electron     216.9999999 magnetization 
 augmentation part      -12.2376348 magnetization 

 Free energy of the ion-electron system (eV)
  ---------------------------------------------------
  alpha Z        PSCENC =        93.27357238
  Ewald energy   TEWEN  =     -6115.53854741
  -Hartree energ DENC   =      -405.55994204
  -exchange      EXHF   =         0.00000000
  -V(xc)+E(xc)   XCENC  =      -464.91339343
  PAW double counting   =     23102.52263611   -22175.32850320
  entropy T*S    EENTRO =        -0.01153773
  eigenvalues    EBANDS =       151.93534063
  atomic energy  EATOM  =      5533.69225236
  Solvation  Ediel_sol  =         0.00000000
  ---------------------------------------------------
  free energy    TOTEN  =      -279.92812234 eV

  energy without entropy =     -279.91658461  energy(sigma->0) =     -279.92235347


--------------------------------------------------------------------------------------------------------




 average (electrostatic) potential at core
  the test charge radii are     0.7672  0.9892
  (the norm of the test charge is              1.0000)
       1 -26.6153       2 -83.3246       3 -83.3246       4 -83.3246       5 -83.4445
       6 -83.3246       7 -83.3246       8 -83.3246       9 -83.4313      10 -83.3246
      11 -83.4445      12 -83.3246      13 -83.4445      14 -83.4445      15 -83.4698
      16 -83.3246      17 -83.4698      18 -83.4698      19 -83.3246      20 -83.3246
      21 -83.4313      22 -83.3246      23 -83.4698      24 -83.4698      25 -83.4313
      26 -83.4698      27 -83.4313      28 -83.4738      29 -83.4235      30 -83.4235
      31 -83.4235      32 -83.1396      33 -83.4235      34 -83.4235      35 -83.4235
      36 -83.4751      37 -83.4235      38 -83.1396      39 -83.4235      40 -83.1396
      41 -83.1396      42 -83.3670      43 -83.4235      44 -83.3670      45 -83.3670
      46 -83.4235      47 -83.4235      48 -83.4751      49 -83.4235      50 -83.3670
      51 -83.3670      52 -83.4751      53 -83.3670      54 -83.4751
 
 
 
 E-fermi :   6.4749     XC(G=0):  -9.4280     alpha+bet :-11.8660


 k-point     1 :       0.0000    0.0000    0.0000
  band No.  band energies     occupation 
      1      -6.2610      2.00000
      2      -4.9546      2.00000
      3      -4.9247      2.00000
      4      -4.9247      2.00000
      5      -4.9247      2.00000
      6      -4.8874      2.00000
      7      -4.8874      2.00000
      8      -4.8874      2.00000
      9      -4.7386      2.00000
     10      -4.3868      2.00000
     11      -4.3868      2.00000
     12      -4.3447      2.00000
     13      -4.3447      2.00000
     14      -4.3447      2.00000
     15      -4.0325      2.00000
     16      -3.0601      2.00000
     17      -3.0601      2.00000
     18      -3.0601      2.00000
     19      -3.0392      2.00000
     20      -3.0392      2.00000
     21      -3.0075      2.00000
     22      -3.0075      2.00000
     23      -3.0075      2.00000
     24      -2.9068      2.00000
     25      -2.9068      2.00000
     26      -2.9068      2.00000
     27      -2.3555      2.00000
     28      -1.1309      2.00000
     29      -1.1309      2.00000
     30      -1.1309      2.00000
     31      -1.1068      2.00000
     32      -1.1068      2.00000
     33      -1.0752      2.00000
     34      -1.0752      2.00000
     35      -1.0752      2.00000
     36      -0.9559      2.00000
     37      -0.9559      2.00000
     38      -0.9559      2.00000
     39      -0.5977      2.00000
     40       0.3289      2.00000
     41       0.3473      2.00000
     42       0.3473      2.00000
     43       0.3473      2.00000
     44       0.3963      2.00000
     45       0.3963      2.00000
     46       0.3963      2.00000
     47       0.4059      2.00000
     48       0.6730      2.00000
     49       0.6730      2.00000
     50       0.7498      2.00000
     51       0.7498      2.00000
     52       0.7498      2.00000
     53       1.0761      2.00000
     54       1.2218      2.00000
     55       1.2218      2.00000
     56       1.2218      2.00000
     57       1.2230      2.00000
     58       1.2230      2.00000
     59       1.2230      2.00000
     60       1.2546      2.00000
     61       1.3220      2.00000
     62       1.3220      2.00000
     63       1.5364      2.00000
     64       1.5364      2.00000
     65       1.5364      2.00000
     66       3.2392      2.00000
     67       3.2392      2.00000
     68       3.2392      2.00000
     69       3.2695      2.00000
     70       3.2695      2.00000
     71       3.2695      2.00000
     72       3.2704      2.00000
     73       3.2704      2.00000
     74       3.2704      2.00000
     75       3.3182      2.00000
     76       3.3182      2.00000
     77       3.3182      2.00000
     78       3.5545      2.00000
     79       3.5545      2.00000
     80       3.5545      2.00000
     81       3.5607      2.00000
     82       3.5880      2.00000
     83       3.5880      2.00000
     84       3.6073      2.00000
     85       3.6073      2.00000
     86       3.6073      2.00000
     87       3.8374      2.00000
     88       3.8374      2.00000
     89       3.8374      2.00000
     90       4.6495      2.00000
     91       4.6495      2.00000
     92       4.6495      2.00000
     93       4.6515      2.00000
     94       4.6515      2.00000
     95       4.6604      2.00000
     96       4.6604      2.00000
     97       4.6604      2.00000
     98       4.7177      2.00000
     99       4.7177      2.00000
    100       4.7283      2.00000
    101       4.7283      2.00000
    102       4.7283      2.00000
    103       5.0645      2.00000
    104       5.0645      2.00000
    105       5.0645      2.00000
    106       5.8109      2.00000
    107       5.8109      2.00000
    108       5.8109      2.00000
    109       6.4047      1.95289
    110       6.4098      1.93452
    111       6.4098      1.93452
    112       6.4281      1.81460
    113       6.4281      1.81460
    114       6.4281      1.81460
    115       7.2125      0.00000
    116       7.2168      0.00000
    117       7.2168      0.00000
    118       7.2168      0.00000
    119       7.2291      0.00000
    120       7.2291      0.00000
    121       7.2291      0.00000
    122       7.2836      0.00000
    123       7.2836      0.00000
    124       7.2836      0.00000
    125       7.3012      0.00000
    126       7.3012      0.00000
    127       7.4084      0.00000
    128       7.4084      0.00000
    129       7.4084      0.00000
    130       7.4237      0.00000
    131       7.4924      0.00000
    132       7.5539      0.00000
    133       7.5539      0.00000
    134       7.5539      0.00000
    135       7.6760      0.00000
    136       7.7599      0.00000
    137       7.7599      0.00000
    138       7.7599      0.00000
    139       7.7835      0.00000
    140       7.7835      0.00000
    141       8.2829      0.00000
    142       8.2829      0.00000
    143       8.2829      0.00000
    144       9.0596      0.00000

 k-point     2 :       0.2500    0.0000    0.0000
  band No.  band energies     occupation 
      1      -6.1722      2.00000
      2      -5.4655      2.00000
      3      -5.0327      2.00000
      4      -5.0327      2.00000
      5      -5.0088      2.00000
      6      -4.7630      2.00000
      7      -4.7630      2.00000
      8      -4.7081      2.00000
      9      -4.6012      2.00000
     10      -4.6012      2.00000
     11      -4.4426      2.00000
     12      -4.2418      2.00000
     13      -3.8375      2.00000
     14      -3.8375      2.00000
     15      -3.7236      2.00000
     16      -3.6053      2.00000
     17      -3.6053      2.00000
     18      -3.4636      2.00000
     19      -3.0434      2.00000
     20      -3.0434      2.00000
     21      -3.0024      2.00000
     22      -2.9525      2.00000
     23      -2.9525      2.00000
     24      -2.7900      2.00000
     25      -2.7232      2.00000
     26      -2.7232      2.00000
     27      -2.3305      2.00000
     28      -1.3650      2.00000
     29      -1.3650      2.00000
     30      -1.2679      2.00000
     31      -1.1536      2.00000
     32      -1.1536      2.00000
     33      -1.1144      2.00000
     34      -1.0587      2.00000
     35      -1.0587      2.00000
     36      -0.9094      2.00000
     37      -0.7309      2.00000
     38      -0.5856      2.00000
     39      -0.5856      2.00000
     40      -0.4337      2.00000
     41      -0.1098      2.00000
     42      -0.1098      2.00000
     43      -0.0984      2.00000
[...]
   32        0.753   0.903   0.000   1.656
   33        0.754   0.946   0.000   1.700
   34        0.754   0.947   0.000   1.700
   35        0.754   0.947   0.000   1.701
   36        0.754   0.946   0.000   1.701
   37        0.753   0.946   0.000   1.700
   38        0.753   0.903   0.000   1.656
   39        0.753   0.946   0.000   1.700
   40        0.752   0.903   0.000   1.655
   41        0.752   0.903   0.000   1.655
   42        0.753   0.946   0.000   1.699
   43        0.754   0.947   0.000   1.701
   44        0.754   0.948   0.000   1.702
   45        0.754   0.947   0.000   1.702
   46        0.754   0.947   0.000   1.701
   47        0.754   0.947   0.000   1.701
   48        0.754   0.947   0.000   1.701
   49        0.754   0.947   0.000   1.701
   50        0.755   0.948   0.000   1.703
   51        0.755   0.948   0.000   1.703
   52        0.754   0.947   0.000   1.701
   53        0.754   0.948   0.000   1.703
   54        0.754   0.947   0.000   1.701
--------------------------------------------------
tot         40.595  50.894   0.000  91.489
 
    CHARGE:  cpu time    0.1600: real time    0.1611
    FORLOC:  cpu time    0.0338: real time    0.0340
    FORNL :  cpu time    1.5415: real time    1.5536
    STRESS:  cpu time    5.7235: real time    5.7868
    FORCOR:  cpu time    0.1092: real time    0.1102
    FORHAR:  cpu time    0.0508: real time    0.0512
    MIXING:  cpu time    0.3408: real time    0.3446
    OFIELD:  cpu time    0.0001: real time    0.0005

  FORCE on cell =-STRESS in cart. coord.  units (eV):
  Direction    XX          YY          ZZ          XY          YZ          ZX
  --------------------------------------------------------------------------------------
  Alpha Z    93.27357    93.27357    93.27357
  Ewald   -2038.52485 -2038.52486 -2038.52486    -0.00000     0.00000     0.00000
  Hartree   135.18765   135.18765   135.18765    -0.00000    -0.00000    -0.00000
  E(xc)    -685.96376  -685.96376  -685.96378    -0.00001    -0.00001    -0.00001
  Local    -783.34268  -783.34278  -783.34229     0.00014     0.00024     0.00034
  n-local  2057.19427  2072.51925  2082.84711    -0.29876    -0.95844     0.67774
  augment  -309.98654  -309.98646  -309.98689    -0.00012    -0.00021    -0.00030
  Kinetic  1514.75121  1541.83195  1571.74718    -2.49121    -1.35843     0.96055
  Fock        0.00000     0.00000     0.00000     0.00000     0.00000     0.00000
  -------------------------------------------------------------------------------------
  Total      24.27371    24.27371    24.27371     0.00000    -0.00000    -0.00000
  in kB      35.97688    35.97688    35.97688     0.00000    -0.00000    -0.00000
  external pressure =       35.98 kB  Pullay stress =        0.00 kB


 VOLUME and BASIS-vectors are now :
 -----------------------------------------------------------------------------
  energy-cutoff  :      550.00
  volume of cell :     1080.99
      direct lattice vectors                 reciprocal lattice vectors
     9.976465530  0.000000000  5.759915070     0.100235900 -0.035438742  0.000000000
     3.325488510  9.405901920  5.759915070     0.000000000  0.106316227  0.000000000
     0.000000000  0.000000000 11.519830140    -0.050117950 -0.035438742  0.086806836

  length of vectors
    11.519830124 11.519830136 11.519830140     0.106316227  0.106316227  0.106316227


 FORCES acting on ions
    electron-ion (+dipol)            ewald-force                    non-local-force                 convergence-correction
 -----------------------------------------------------------------------------------------------
   -.712E-06 -.450E-06 -.116E-05   0.893E-07 -.474E-07 0.775E-11   -.694E-17 0.867E-17 -.208E-16   0.594E-08 0.420E-08 0.103E-07
   0.504E+00 0.356E+00 0.262E+01   0.119E-06 -.632E-07 -.298E+01   -.335E+00 -.237E+00 0.292E+00   -.188E-03 -.133E-03 -.172E-03
   0.504E+00 0.356E+00 -.262E+01   0.119E-06 -.632E-07 0.298E+01   -.335E+00 -.237E+00 -.292E+00   -.188E-03 -.133E-03 0.172E-03
   0.101E+01 0.179E+01 0.175E+01   -.861E+00 -.244E+01 -.149E+01   -.831E-01 0.475E+00 -.144E+00   -.144E-03 -.801E-05 -.249E-03
   0.643E-01 -.227E-01 0.187E-05   0.715E-01 -.253E-01 0.374E-12   -.934E-01 0.330E-01 -.867E-17   0.600E-04 -.212E-04 -.346E-08
   0.101E+01 0.179E+01 -.175E+01   -.861E+00 -.244E+01 0.149E+01   -.831E-01 0.475E+00 0.144E+00   -.144E-03 -.800E-05 0.249E-03
   -.506E+00 -.250E+01 -.876E+00   0.861E+00 0.244E+01 0.149E+01   -.252E+00 -.155E-02 -.436E+00   -.441E-04 0.273E-03 -.764E-04
   -.506E+00 -.250E+01 0.876E+00   0.861E+00 0.244E+01 -.149E+01   -.252E+00 -.155E-02 0.436E+00   -.441E-04 0.273E-03 0.764E-04
   0.225E+00 -.794E-01 0.413E-06   -.715E-01 0.253E-01 -.476E-11   -.907E-01 0.321E-01 -.191E-16   -.132E-03 0.467E-04 -.990E-08
   0.202E+01 0.356E+00 0.175E+01   -.258E+01 -.634E-07 -.149E+01   0.420E+00 -.237E+00 -.144E+00   -.554E-04 -.133E-03 -.249E-03
   0.101E-05 0.682E-01 0.187E-05   0.124E-06 0.758E-01 0.359E-12   0.954E-17 -.991E-01 -.867E-17   -.202E-08 0.636E-04 -.346E-08
   0.202E+01 0.356E+00 -.175E+01   -.258E+01 -.634E-07 0.149E+01   0.420E+00 -.237E+00 0.144E+00   -.554E-04 -.133E-03 0.249E-03
   -.322E-01 -.227E-01 0.557E-01   -.357E-01 -.253E-01 0.619E-01   0.467E-01 0.330E-01 -.809E-01   -.300E-04 -.212E-04 0.519E-04
   -.322E-01 -.227E-01 -.557E-01   -.357E-01 -.253E-01 -.619E-01   0.467E-01 0.330E-01 0.809E-01   -.300E-04 -.212E-04 -.519E-04
   0.819E+00 0.579E+00 0.245E-06   -.868E+00 -.614E+00 0.327E-12   0.450E-01 0.318E-01 0.330E-16   -.191E-03 -.135E-03 -.100E-07
   0.101E+01 -.250E+01 -.151E-05   -.172E+01 0.244E+01 0.451E-11   0.503E+00 -.155E-02 -.243E-16   0.882E-04 0.273E-03 0.137E-07
   0.409E+00 -.579E+00 0.709E+00   -.434E+00 0.614E+00 -.752E+00   0.225E-01 -.318E-01 0.390E-01   -.955E-04 0.135E-03 -.165E-03
   0.409E+00 -.579E+00 -.709E+00   -.434E+00 0.614E+00 0.752E+00   0.225E-01 -.318E-01 -.390E-01   -.955E-04 0.135E-03 0.165E-03
   -.252E+01 0.356E+00 -.876E+00   0.258E+01 -.630E-07 0.149E+01   -.853E-01 -.237E+00 -.436E+00   0.243E-03 -.133E-03 -.764E-04
   -.252E+01 0.356E+00 0.876E+00   0.258E+01 -.630E-07 -.149E+01   -.853E-01 -.237E+00 0.436E+00   0.243E-03 -.133E-03 0.764E-04
   0.174E-06 0.238E+00 0.413E-06   0.115E-06 -.758E-01 -.478E-11   -.781E-17 -.962E-01 -.208E-16   -.570E-08 -.140E-03 -.990E-08
   -.202E+01 0.179E+01 -.151E-05   0.172E+01 -.244E+01 0.451E-11   0.166E+00 0.475E+00 -.139E-16   0.287E-03 -.800E-05 0.137E-07
   -.409E+00 0.579E+00 0.709E+00   0.434E+00 -.614E+00 -.752E+00   -.225E-01 0.318E-01 0.390E-01   0.954E-04 -.135E-03 -.165E-03
   -.409E+00 0.579E+00 -.709E+00   0.434E+00 -.614E+00 0.752E+00   -.225E-01 0.318E-01 -.390E-01   0.955E-04 -.135E-03 0.165E-03
   -.112E+00 -.794E-01 0.195E+00   0.357E-01 0.253E-01 -.619E-01   0.453E-01 0.321E-01 -.785E-01   0.661E-04 0.467E-04 -.115E-03
   -.819E+00 -.579E+00 0.114E-05   0.868E+00 0.614E+00 -.107E-10   -.450E-01 -.318E-01 0.156E-16   0.191E-03 0.135E-03 -.333E-08
   -.112E+00 -.794E-01 -.195E+00   0.357E-01 0.253E-01 0.619E-01   0.453E-01 0.321E-01 0.785E-01   0.661E-04 0.468E-04 0.115E-03
   0.564E-06 0.310E-06 0.853E-06   -.122E-06 0.650E-07 0.105E-10   0.347E-17 0.000E+00 -.625E-16   -.210E-08 -.150E-08 -.365E-08
   -.130E+01 -.916E+00 -.837E+00   0.142E+01 0.101E+01 0.718E+00   -.983E-01 -.695E-01 0.708E-01   0.102E-03 0.723E-04 -.892E-04
   -.130E+01 -.916E+00 0.837E+00   0.142E+01 0.101E+01 -.718E+00   -.983E-01 -.695E-01 -.708E-01   0.102E-03 0.723E-04 0.892E-04
   -.889E+00 0.233E+00 -.154E+01   0.919E+00 -.420E+00 0.159E+01   -.287E-01 0.127E+00 -.498E-01   0.254E-04 -.145E-03 0.439E-04
   -.869E+01 0.307E+01 -.184E-05   0.932E+01 -.329E+01 0.460E-11   0.149E+01 -.527E+00 0.104E-16   0.187E-03 -.663E-04 0.137E-07
   -.889E+00 0.233E+00 0.154E+01   0.919E+00 -.420E+00 -.159E+01   -.287E-01 0.127E+00 0.498E-01   0.254E-04 -.145E-03 -.440E-04
   -.406E+00 0.160E+01 -.703E+00   0.504E+00 -.159E+01 0.873E+00   -.696E-01 0.117E-01 -.121E+00   0.769E-04 0.508E-06 0.133E-03
   -.406E+00 0.160E+01 0.703E+00   0.504E+00 -.159E+01 -.873E+00   -.696E-01 0.117E-01 0.121E+00   0.768E-04 0.500E-06 -.133E-03
   -.319E+00 0.113E+00 -.732E-07   0.334E+00 -.118E+00 -.471E-11   -.211E-01 0.745E-02 0.226E-16   0.715E-04 -.253E-04 -.984E-08
   -.770E-01 -.916E+00 -.154E+01   -.899E-01 0.101E+01 0.159E+01   0.110E+00 -.695E-01 -.498E-01   -.128E-03 0.723E-04 0.439E-04
   -.996E-06 -.921E+01 -.184E-05   -.119E-06 0.988E+01 0.458E-11   -.104E-16 0.158E+01 0.191E-16   0.788E-08 0.199E-03 0.137E-07
   -.770E-01 -.916E+00 0.154E+01   -.899E-01 0.101E+01 -.159E+01   0.110E+00 -.695E-01 0.498E-01   -.128E-03 0.723E-04 -.440E-04
   0.434E+01 0.307E+01 -.752E+01   -.466E+01 -.329E+01 0.807E+01   -.746E+00 -.527E+00 0.129E+01   -.937E-04 -.663E-04 0.162E-03
   0.434E+01 0.307E+01 0.752E+01   -.466E+01 -.329E+01 -.807E+01   -.746E+00 -.527E+00 -.129E+01   -.937E-04 -.663E-04 -.162E-03
   -.185E+00 -.131E+00 -.211E-06   -.215E+00 -.152E+00 -.974E-11   0.257E+00 0.182E+00 0.161E-16   0.466E-05 0.329E-05 -.105E-07
   0.812E+00 0.160E+01 0.156E-05   -.101E+01 -.159E+01 -.556E-12   0.139E+00 0.117E-01 0.104E-16   -.154E-03 0.500E-06 -.346E-08
   -.926E-01 0.131E+00 -.160E+00   -.108E+00 0.152E+00 -.186E+00   0.128E+00 -.182E+00 0.222E+00   0.233E-05 -.330E-05 0.403E-05
   -.926E-01 0.131E+00 0.160E+00   -.108E+00 0.152E+00 0.186E+00   0.128E+00 -.182E+00 -.222E+00   0.234E-05 -.329E-05 -.403E-05
   0.137E+01 -.916E+00 -.703E+00   -.133E+01 0.101E+01 0.873E+00   -.122E-01 -.695E-01 -.121E+00   0.261E-04 0.723E-04 0.133E-03
   0.137E+01 -.916E+00 0.703E+00   -.133E+01 0.101E+01 -.873E+00   -.122E-01 -.695E-01 0.121E+00   0.261E-04 0.723E-04 -.133E-03
   0.250E-07 -.338E+00 -.732E-07   -.116E-06 0.354E+00 -.472E-11   0.564E-17 -.223E-01 0.191E-16   -.569E-08 0.758E-04 -.984E-08
   0.178E+01 0.233E+00 0.156E-05   -.184E+01 -.420E+00 -.552E-12   0.574E-01 0.127E+00 0.173E-16   -.508E-04 -.145E-03 -.346E-08
   0.926E-01 -.131E+00 -.160E+00   0.108E+00 -.152E+00 -.186E+00   -.128E+00 0.182E+00 0.222E+00   -.234E-05 0.329E-05 0.403E-05
   0.926E-01 -.131E+00 0.160E+00   0.108E+00 -.152E+00 0.186E+00   -.128E+00 0.182E+00 -.222E+00   -.232E-05 0.330E-05 -.403E-05
   0.160E+00 0.113E+00 -.276E+00   -.167E+00 -.118E+00 0.289E+00   0.105E-01 0.745E-02 -.182E-01   -.358E-04 -.253E-04 0.619E-04
   0.185E+00 0.131E+00 -.184E-05   0.215E+00 0.152E+00 -.542E-12   -.257E+00 -.182E+00 0.104E-16   -.466E-05 -.329E-05 0.137E-07
   0.160E+00 0.113E+00 0.276E+00   -.167E+00 -.118E+00 -.289E+00   0.105E-01 0.745E-02 0.182E-01   -.358E-04 -.253E-04 -.619E-04
 -----------------------------------------------------------------------------------------------
   -.967E-07 -.102E-06 -.198E-06   0.360E-13 -.200E-13 -.169E-13   -.215E-15 -.278E-15 -.288E-15   -.196E-08 -.138E-08 -.339E-08
 
 
 POSITION                                       TOTAL-FORCE (eV/Angst)
 -----------------------------------------------------------------------------------
      3.87974      2.74339      6.71990        -0.000000      0.000000     -0.000000
      3.87974      2.74339     10.55984         0.168876      0.119413     -0.068163
      3.87974      2.74339     14.39979         0.168876      0.119413      0.068163
      4.98823      5.87869      8.63987         0.064761     -0.175068      0.112169
      4.98823      5.87869     12.47982         0.042411     -0.014995     -0.000000
      4.98823      5.87869     16.31976         0.064761     -0.175068     -0.112169
      6.09673      9.01399     10.55984         0.104115     -0.063758      0.180332
      6.09673      9.01399     14.39979         0.104115     -0.063758     -0.180332
      6.09673      9.01399     18.23973         0.062329     -0.022037     -0.000000
      7.20523      2.74339      8.63987        -0.143469      0.119413      0.112169
      7.20523      2.74339     12.47982        -0.000000      0.044984     -0.000000
      7.20523      2.74339     16.31976        -0.143469      0.119413     -0.112169
      8.31372      5.87869     10.55984        -0.021206     -0.014995      0.036729
      8.31372      5.87869     14.39979        -0.021206     -0.014995     -0.036729
      8.31372      5.87869     18.23973        -0.004699     -0.003323     -0.000000
      9.42222      9.01399     12.47982        -0.208230     -0.063758     -0.000000
      9.42222      9.01399     16.31976        -0.002349      0.003323     -0.004069
      9.42222      9.01399     20.15970        -0.002349      0.003323      0.004069
     10.53071      2.74339     10.55984        -0.025407      0.119413      0.180332
     10.53071      2.74339     14.39979        -0.025407      0.119413     -0.180332
     10.53071      2.74339     18.23973        -0.000000      0.066110     -0.000000
     11.63921      5.87869     12.47982        -0.129522     -0.175068     -0.000000
     11.63921      5.87869     16.31976         0.002349     -0.003323     -0.004069
     11.63921      5.87869     20.15970         0.002349     -0.003323      0.004069
     12.74771      9.01399     14.39979        -0.031165     -0.022037      0.053979
     12.74771      9.01399     18.23973         0.004699      0.003323     -0.000000
     12.74771      9.01399     22.07967        -0.031165     -0.022037     -0.053979
      0.55425      0.39191      0.95999        -0.000000      0.000000     -0.000000
      0.55425      0.39191      4.79993         0.029428      0.020808     -0.048283
      0.55425      0.39191      8.63987         0.029428      0.020808      0.048283
      1.66274      3.52721      2.87996         0.000776     -0.060231      0.001344
      1.66274      3.52721      6.71990         2.123466     -0.750759     -0.000000
      1.66274      3.52721     10.55984         0.000776     -0.060231     -0.001344
      2.77124      6.66251      4.79993         0.028652      0.018614      0.049626
      2.77124      6.66251      8.63987         0.028652      0.018614     -0.049626
      2.77124      6.66251     12.47982        -0.006277      0.002219     -0.000000
      3.87974      0.39191      2.87996        -0.056528      0.020808      0.001344
      3.87974      0.39191      6.71990        -0.000000      2.252276     -0.000000
      3.87974      0.39191     10.55984        -0.056528      0.020808     -0.001344
      4.98823      3.52721      4.79993        -1.061733     -0.750759      1.838975
      4.98823      3.52721      8.63987        -1.061733     -0.750759     -1.838975
      4.98823      3.52721     12.47982        -0.143421     -0.101414     -0.000000
      6.09673      6.66251      6.71990        -0.057304      0.018614     -0.000000
      6.09673      6.66251     10.55984        -0.071710      0.101414     -0.124206
      6.09673      6.66251     14.39979        -0.071710      0.101414      0.124206
      7.20523      0.39191      4.79993         0.027100      0.020808      0.049626
      7.20523      0.39191      8.63987         0.027100      0.020808     -0.049626
      7.20523      0.39191     12.47982        -0.000000     -0.006657     -0.000000
      8.31372      3.52721      6.71990        -0.001551     -0.060231     -0.000000
      8.31372      3.52721     10.55984         0.071710     -0.101414     -0.124206
      8.31372      3.52721     14.39979         0.071710     -0.101414      0.124206
      9.42222      6.66251      8.63987         0.003138      0.002219     -0.005436
      9.42222      6.66251     12.47982         0.143421      0.101414     -0.000000
      9.42222      6.66251     16.31976         0.003138      0.002219      0.005436
 -----------------------------------------------------------------------------------
    total drift:                               -0.000000     -0.000000     -0.000000


--------------------------------------------------------------------------------------------------------



  FREE ENERGIE OF THE ION-ELECTRON SYSTEM (eV)
  ---------------------------------------------------
  free  energy   TOTEN  =      -279.92812234 eV

  energy  without entropy=     -279.91658461  energy(sigma->0) =     -279.92235347
 


--------------------------------------------------------------------------------------------------------


    POTLOK:  cpu time    0.2640: real time    0.2663


--------------------------------------------------------------------------------------------------------


 writing wavefunctions
     LOOP+:  cpu time   93.7584: real time   95.1789
    4ORBIT:  cpu time    0.0000: real time    0.0000
 


 total charge     
 
# of ion       s       p       d       tot
------------------------------------------
    1        0.645   0.884   0.000   1.529
    2        0.753   0.945   0.000   1.698
    3        0.753   0.945   0.000   1.698
    4        0.754   0.947   0.000   1.701
    5        0.753   0.946   0.000   1.700
    6        0.754   0.947   0.000   1.701
    7        0.754   0.947   0.000   1.701
    8        0.754   0.947   0.000   1.701
    9        0.754   0.947   0.000   1.701
   10        0.754   0.947   0.000   1.702
   11        0.753   0.946   0.000   1.700
   12        0.754   0.948   0.000   1.702
   13        0.754   0.947   0.000   1.700
   14        0.754   0.947   0.000   1.700
   15        0.754   0.947   0.000   1.701
   16        0.754   0.947   0.000   1.701
   17        0.754   0.946   0.000   1.700
   18        0.754   0.946   0.000   1.700
   19        0.754   0.948   0.000   1.702
   20        0.754   0.948   0.000   1.702
   21        0.754   0.947   0.000   1.701
   22        0.754   0.947   0.000   1.701
   23        0.754   0.947   0.000   1.700
   24        0.754   0.947   0.000   1.700
   25        0.754   0.948   0.000   1.702
   26        0.754   0.947   0.000   1.701
   27        0.754   0.948   0.000   1.702
   28        0.754   0.946   0.000   1.700
   29        0.754   0.947   0.000   1.701
   30        0.754   0.947   0.000   1.701
   31        0.754   0.946   0.000   1.700
   32        0.753   0.903   0.000   1.656
   33        0.754   0.946   0.000   1.700
   34        0.754   0.947   0.000   1.700
   35        0.754   0.947   0.000   1.701
   36        0.754   0.946   0.000   1.701
   37        0.753   0.946   0.000   1.700
   38        0.753   0.903   0.000   1.656
   39        0.753   0.946   0.000   1.700
   40        0.752   0.903   0.000   1.655
   41        0.752   0.903   0.000   1.655
   42        0.753   0.946   0.000   1.699
   43        0.754   0.947   0.000   1.701
   44        0.754   0.948   0.000   1.702
   45        0.754   0.947   0.000   1.702
   46        0.754   0.947   0.000   1.701
   47        0.754   0.947   0.000   1.701
   48        0.754   0.947   0.000   1.701
   49        0.754   0.947   0.000   1.701
   50        0.755   0.948   0.000   1.703
   51        0.755   0.948   0.000   1.703
   52        0.754   0.947   0.000   1.701
   53        0.754   0.948   0.000   1.703
   54        0.754   0.947   0.000   1.701
--------------------------------------------------
tot         40.595  50.894   0.000  91.489
 

 total amount of memory used by VASP MPI-rank0   140598. kBytes
=======================================================================

   base      :      30000. kBytes
   nonl-proj :      59902. kBytes
   fftplans  :       5382. kBytes
   grid      :      20451. kBytes
   one-center:        165. kBytes
   wavefun   :      24698. kBytes
 
  
  
 General timing and accounting informations for this job:
 ========================================================
  
                  Total CPU time used (sec):      108.896
                            User time (sec):      104.679
                          System time (sec):        4.217
                         Elapsed time (sec):      115.795
  
                   Maximum memory used (kb):      383492.
                   Average memory used (kb):           0.
  
                          Minor page faults:        53728
                          Major page faults:            0
                 Voluntary context switches:         3454
