<?xml version="1.0" encoding="ISO-8859-1"?>
<modeling>
 <generator>
  <i name="program" type="string">vasp </i>
  <i name="version" type="string">5.4.4.18Apr17-6-g9f103f2a35  </i>
  <i name="subversion" type="string">(build Jun 19 2019 10:34:07) complex            parallel </i>
  <i name="platform" type="string">LB-5.4 </i>
  <i name="date" type="string">2023 05 15 </i>
  <i name="time" type="string">18:33:02 </i>
 </generator>
 <incar>
  <i type="string" name="SYSTEM"> Si</i>
  <i type="string" name="PREC">normal</i>
  <i type="string" name="ALGO"> Normal</i>
  <i type="int" name="ISPIN">     1</i>
  <i name="AMIX">      0.20000000</i>
  <i type="int" name="NELM">   200</i>
  <i type="int" name="IBRION">     2</i>
  <i name="EDIFF">      0.00000100</i>
  <i name="EDIFFG">     -0.05000000</i>
  <i type="int" name="NSW">     0</i>
  <i type="int" name="ISIF">     2</i>
  <i type="int" name="ISYM">     2</i>
  <i name="ENCUT">    550.00000000</i>
  <i name="NELECT">    217.00000000</i>
  <i type="logical" name="LREAL"> F  </i>
  <i type="int" name="ISMEAR">     0</i>
  <i name="SIGMA">      0.05000000</i>
  <i type="logical" name="LWAVE"> T  </i>
  <i type="logical" name="LCHARG"> T  </i>
  <i type="int" name="LORBIT">    10</i>
  <v type="int" name="KPOINT_BSE">    -1     0     0     0</v>
  <i type="int" name="NELM">   200</i>
 </incar>
 <structure name="primitive_cell" >
  <crystal>
   <varray name="basis" >
    <v>       9.97646553       0.00000000       5.75991507 </v>
    <v>       3.32548851       9.40590192       5.75991507 </v>
    <v>       0.00000000       0.00000000      11.51983014 </v>
   </varray>
   <i name="volume">   1080.99386112 </i>
   <varray name="rec_basis" >
    <v>       0.10023590      -0.03543874       0.00000000 </v>
    <v>       0.00000000       0.10631623       0.00000000 </v>
    <v>      -0.05011795      -0.03543874       0.08680684 </v>
   </varray>
  </crystal>
  <varray name="positions" >
   <v>       0.29166667       0.29166667       0.29166667 </v>
   <v>       0.04166667       0.37500000       0.37500000 </v>
   <v>       0.37500000       0.37500000       0.04166667 </v>
   <v>       0.37500000       0.37500000       0.37500000 </v>
   <v>       0.37500000       0.04166667       0.37500000 </v>
   <v>      -0.04166667       0.29166667       0.29166667 </v>
   <v>      -0.37500000       0.29166667      -0.04166667 </v>
   <v>      -0.04166667       0.29166667      -0.37500000 </v>
   <v>      -0.37500000       0.29166667       0.29166667 </v>
   <v>      -0.37500000      -0.04166667       0.29166667 </v>
   <v>      -0.04166667      -0.37500000       0.29166667 </v>
   <v>       0.29166667      -0.04166667       0.29166667 </v>
   <v>       0.29166667      -0.37500000      -0.04166667 </v>
   <v>       0.29166667      -0.04166667      -0.37500000 </v>
   <v>       0.29166667      -0.37500000       0.29166667 </v>
   <v>       0.29166667       0.29166667      -0.04166667 </v>
   <v>       0.29166667       0.29166667      -0.37500000 </v>
   <v>      -0.29166667       0.37500000       0.04166667 </v>
   <v>       0.04166667       0.04166667       0.37500000 </v>
   <v>      -0.29166667       0.04166667       0.04166667 </v>
   <v>       0.04166667       0.04166667      -0.29166667 </v>
   <v>      -0.29166667       0.04166667       0.37500000 </v>
   <v>       0.37500000      -0.29166667       0.04166667 </v>
   <v>       0.04166667       0.37500000       0.04166667 </v>
   <v>       0.04166667       0.37500000      -0.29166667 </v>
   <v>       0.04166667      -0.29166667       0.04166667 </v>
   <v>       0.04166667      -0.29166667       0.37500000 </v>
   <v>       0.37500000       0.04166667       0.04166667 </v>
   <v>       0.37500000       0.04166667      -0.29166667 </v>
   <v>      -0.04166667      -0.04166667      -0.37500000 </v>
   <v>      -0.37500000      -0.37500000      -0.04166667 </v>
   <v>      -0.37500000      -0.04166667      -0.04166667 </v>
   <v>      -0.04166667      -0.37500000      -0.04166667 </v>
   <v>      -0.37500000      -0.04166667      -0.37500000 </v>
   <v>      -0.04166667      -0.37500000      -0.37500000 </v>
   <v>      -0.29166667       0.37500000       0.37500000 </v>
   <v>      -0.29166667       0.37500000      -0.29166667 </v>
   <v>      -0.29166667      -0.29166667       0.37500000 </v>
   <v>       0.37500000      -0.29166667      -0.29166667 </v>
   <v>       0.37500000      -0.29166667       0.37500000 </v>
   <v>       0.37500000       0.37500000      -0.29166667 </v>
   <v>      -0.37500000       0.29166667      -0.37500000 </v>
   <v>      -0.04166667       0.29166667      -0.04166667 </v>
   <v>      -0.37500000      -0.37500000       0.29166667 </v>
   <v>      -0.04166667      -0.04166667      -0.04166667 </v>
   <v>      -0.37500000      -0.37500000      -0.37500000 </v>
   <v>      -0.04166667      -0.04166667       0.29166667 </v>
   <v>       0.29166667      -0.37500000      -0.37500000 </v>
   <v>       0.29166667      -0.04166667      -0.04166667 </v>
   <v>      -0.29166667       0.04166667      -0.29166667 </v>
   <v>       0.04166667       0.04166667       0.04166667 </v>
   <v>      -0.29166667      -0.29166667      -0.29166667 </v>
   <v>      -0.29166667      -0.29166667       0.04166667 </v>
   <v>       0.04166667      -0.29166667      -0.29166667 </v>
  </varray>
 </structure>
 <varray name="primitive_index" >
  <v type="int" >        1 </v>
  <v type="int" >       32 </v>
  <v type="int" >       40 </v>
  <v type="int" >       41 </v>
  <v type="int" >       38 </v>
  <v type="int" >       19 </v>
  <v type="int" >       12 </v>
  <v type="int" >       20 </v>
  <v type="int" >       10 </v>
  <v type="int" >       16 </v>
  <v type="int" >       22 </v>
  <v type="int" >        7 </v>
  <v type="int" >        6 </v>
  <v type="int" >        8 </v>
  <v type="int" >        4 </v>
  <v type="int" >        3 </v>
  <v type="int" >        2 </v>
  <v type="int" >       49 </v>
  <v type="int" >       29 </v>
  <v type="int" >       46 </v>
  <v type="int" >       30 </v>
  <v type="int" >       47 </v>
  <v type="int" >       43 </v>
  <v type="int" >       31 </v>
  <v type="int" >       33 </v>
  <v type="int" >       34 </v>
  <v type="int" >       35 </v>
  <v type="int" >       37 </v>
  <v type="int" >       39 </v>
  <v type="int" >       26 </v>
  <v type="int" >       15 </v>
  <v type="int" >       18 </v>
  <v type="int" >       24 </v>
  <v type="int" >       17 </v>
  <v type="int" >       23 </v>
  <v type="int" >       50 </v>
  <v type="int" >       51 </v>
  <v type="int" >       53 </v>
  <v type="int" >       45 </v>
  <v type="int" >       44 </v>
  <v type="int" >       42 </v>
  <v type="int" >       11 </v>
  <v type="int" >       21 </v>
  <v type="int" >       13 </v>
  <v type="int" >       27 </v>
  <v type="int" >       14 </v>
  <v type="int" >       25 </v>
  <v type="int" >        5 </v>
  <v type="int" >        9 </v>
  <v type="int" >       48 </v>
  <v type="int" >       28 </v>
  <v type="int" >       54 </v>
  <v type="int" >       52 </v>
  <v type="int" >       36 </v>
 </varray>
 <kpoints>
  <generation param="Gamma">
   <v type="int" name="divisions">       4        4        4 </v>
   <v name="usershift">      0.00000000       0.00000000       0.00000000 </v>
   <v name="genvec1">      0.25000000       0.00000000       0.00000000 </v>
   <v name="genvec2">      0.00000000       0.25000000       0.00000000 </v>
   <v name="genvec3">     -0.00000000      -0.00000000       0.25000000 </v>
   <v name="shift">      0.00000000       0.00000000       0.00000000 </v>
  </generation>
  <varray name="kpointlist" >
   <v>       0.00000000       0.00000000       0.00000000 </v>
   <v>       0.25000000       0.00000000       0.00000000 </v>
   <v>       0.50000000       0.00000000       0.00000000 </v>
   <v>       0.25000000       0.25000000       0.00000000 </v>
   <v>       0.50000000       0.25000000       0.00000000 </v>
   <v>      -0.25000000       0.25000000       0.00000000 </v>
   <v>       0.50000000       0.50000000       0.00000000 </v>
   <v>      -0.25000000       0.50000000       0.25000000 </v>
  </varray>
  <varray name="weights" >
   <v>       0.01562500 </v>
   <v>       0.12500000 </v>
   <v>       0.06250000 </v>
   <v>       0.09375000 </v>
   <v>       0.37500000 </v>
   <v>       0.18750000 </v>
   <v>       0.04687500 </v>
   <v>       0.09375000 </v>
  </varray>
 </kpoints>
 <parameters>
  <separator name="general" >
   <i type="string" name="SYSTEM">Si</i>
   <i type="logical" name="LCOMPAT"> F  </i>
  </separator>
  <separator name="electronic" >
   <i type="string" name="PREC">normal</i>
   <i name="ENMAX">    550.00000000</i>
   <i name="ENAUG">    535.51400000</i>
   <i name="EDIFF">      0.00000100</i>
   <i type="int" name="IALGO">    38</i>
   <i type="int" name="IWAVPR">    10</i>
   <i type="int" name="NBANDS">   144</i>
   <i name="NELECT">    217.00000000</i>
   <i type="int" name="TURBO">     0</i>
   <i type="int" name="IRESTART">     0</i>
   <i type="int" name="NREBOOT">     0</i>
   <i type="int" name="NMIN">     0</i>
   <i name="EREF">      0.00000000</i>
   <separator name="electronic smearing" >
    <i type="int" name="ISMEAR">     0</i>
    <i name="SIGMA">      0.05000000</i>
    <i name="KSPACING">      0.50000000</i>
    <i type="logical" name="KGAMMA"> T  </i>
   </separator>
   <separator name="electronic projectors" >
    <i type="logical" name="LREAL"> F  </i>
    <v name="ROPT">      0.00000000      0.00000000</v>
    <i type="int" name="LMAXPAW">  -100</i>
    <i type="int" name="LMAXMIX">     2</i>
    <i type="logical" name="NLSPLINE"> F  </i>
   </separator>
   <separator name="electronic startup" >
    <i type="int" name="ISTART">     0</i>
    <i type="int" name="ICHARG">     2</i>
    <i type="int" name="INIWAV">     1</i>
   </separator>
   <separator name="electronic spin" >
    <i type="int" name="ISPIN">     1</i>
    <i type="logical" name="LNONCOLLINEAR"> F  </i>
    <v name="MAGMOM">      1.00000000      1.00000000      1.00000000      1.00000000      1.00000000      1.00000000      1.00000000      1.00000000      1.00000000      1.00000000      1.00000000      1.00000000      1.00000000      1.00000000      1.00000000      1.00000000      1.00000000      1.00000000      1.00000000      1.00000000
      1.00000000      1.00000000      1.00000000      1.00000000      1.00000000      1.00000000      1.00000000      1.00000000      1.00000000      1.00000000      1.00000000      1.00000000      1.00000000      1.00000000      1.00000000      1.00000000      1.00000000      1.00000000      1.00000000      1.00000000
      1.00000000      1.00000000      1.00000000      1.00000000      1.00000000      1.00000000      1.00000000      1.00000000      1.00000000      1.00000000      1.00000000      1.00000000      1.00000000      1.00000000</v>
    <i name="NUPDOWN">     -1.00000000</i>
    <i type="logical" name="LSORBIT"> F  </i>
    <v name="SAXIS">      0.00000000      0.00000000      1.00000000</v>
    <i type="logical" name="LSPIRAL"> F  </i>
    <v name="QSPIRAL">      0.00000000      0.00000000      0.00000000</v>
    <i type="logical" name="LZEROZ"> F  </i>
   </separator>
   <separator name="electronic exchange-correlation" >
    <i type="logical" name="LASPH"> F  </i>
    <i type="logical" name="LMETAGGA"> F  </i>
   </separator>
   <separator name="electronic convergence" >
    <i type="int" name="NELM">   200</i>
    <i type="int" name="NELMDL">    -5</i>
    <i type="int" name="NELMIN">     2</i>
    <i name="ENINI">    550.00000000</i>
    <separator name="electronic convergence detail" >
     <i type="logical" name="LDIAG"> T  </i>
     <i type="logical" name="LSUBROT"> F  </i>
     <i name="WEIMIN">      0.00000000</i>
     <i name="EBREAK">      0.00000000</i>
     <i name="DEPER">      0.30000000</i>
     <i type="int" name="NRMM">     4</i>
     <i name="TIME">      0.40000000</i>
    </separator>
   </separator>
   <separator name="electronic mixer" >
    <i name="AMIX">      0.20000000</i>
    <i name="BMIX">      1.00000000</i>
    <i name="AMIN">      0.10000000</i>
    <i name="AMIX_MAG">      0.80000000</i>
    <i name="BMIX_MAG">      1.00000000</i>
    <separator name="electronic mixer details" >
     <i type="int" name="IMIX">     4</i>
     <i type="logical" name="MIXFIRST"> F  </i>
     <i type="int" name="MAXMIX">   -45</i>
     <i name="WC">    100.00000000</i>
     <i type="int" name="INIMIX">     1</i>
     <i type="int" name="MIXPRE">     1</i>
     <i type="int" name="MREMOVE">     5</i>
    </separator>
   </separator>
   <separator name="electronic dipolcorrection" >
    <i type="logical" name="LDIPOL"> F  </i>
    <i type="logical" name="LMONO"> F  </i>
    <i type="int" name="IDIPOL">     0</i>
    <i name="EPSILON">      1.00000000</i>
    <v name="DIPOL">   -100.00000000   -100.00000000   -100.00000000</v>
    <i name="EFIELD">      0.00000000</i>
   </separator>
  </separator>
  <separator name="grids" >
   <i type="int" name="NGX">    70</i>
   <i type="int" name="NGY">    70</i>
   <i type="int" name="NGZ">    70</i>
   <i type="int" name="NGXF">   140</i>
   <i type="int" name="NGYF">   140</i>
   <i type="int" name="NGZF">   140</i>
   <i type="logical" name="ADDGRID"> F  </i>
  </separator>
  <separator name="ionic" >
   <i type="int" name="NSW">     0</i>
   <i type="int" name="IBRION">    -1</i>
   <i type="int" name="MDALGO">     0</i>
   <i type="int" name="ISIF">     2</i>
   <i name="PSTRESS">      0.00000000</i>
   <i name="EDIFFG">     -0.05000000</i>
   <i type="int" name="NFREE">     1</i>
   <i name="POTIM">      0.50000000</i>
   <i name="SMASS">     -3.00000000</i>
   <i name="SCALEE">      1.00000000</i>
  </separator>
  <separator name="ionic md" >
   <i name="TEBEG">      0.00010000</i>
   <i name="TEEND">      0.00010000</i>
   <i type="int" name="NBLOCK">     1</i>
   <i type="int" name="KBLOCK">     1</i>
   <i type="int" name="NPACO">   256</i>
   <i name="APACO">     16.00000000</i>
  </separator>
  <separator name="symmetry" >
   <i type="int" name="ISYM">     2</i>
   <i name="SYMPREC">      0.00001000</i>
  </separator>
  <separator name="dos" >
   <i type="int" name="LORBIT">    10</i>
   <v name="RWIGS">     -1.00000000     -1.00000000</v>
   <i type="int" name="NEDOS">   301</i>
   <i name="EMIN">     10.00000000</i>
   <i name="EMAX">    -10.00000000</i>
   <i name="EFERMI">      0.00000000</i>
  </separator>
  <separator name="writing" >
   <i type="int" name="NWRITE">     2</i>
   <i type="logical" name="LWAVE"> T  </i>
   <i type="logical" name="LDOWNSAMPLE"> F  </i>
   <i type="logical" name="LCHARG"> T  </i>
   <i type="logical" name="LPARD"> F  </i>
   <i type="logical" name="LVTOT"> F  </i>
   <i type="logical" name="LVHAR"> F  </i>
   <i type="logical" name="LELF"> F  </i>
   <i type="logical" name="LOPTICS"> F  </i>
   <v name="STM">      0.00000000      0.00000000      0.00000000      0.00000000      0.00000000      0.00000000      0.00000000</v>
  </separator>
  <separator name="performance" >
   <i type="int" name="NPAR">    24</i>
   <i type="int" name="NSIM">     4</i>
   <i type="int" name="NBLK">    -1</i>
   <i type="logical" name="LPLANE"> T  </i>
   <i type="logical" name="LSCALAPACK"> T  </i>
   <i type="logical" name="LSCAAWARE"> F  </i>
   <i type="logical" name="LSCALU"> F  </i>
   <i type="logical" name="LASYNC"> F  </i>
   <i type="logical" name="LORBITALREAL"> F  </i>
  </separator>
  <separator name="miscellaneous" >
   <i type="int" name="IDIOT">     3</i>
   <i type="int" name="ISPECIAL">     0</i>
   <i type="logical" name="LMUSIC"> F  </i>
   <v name="POMASS">     10.81100000     28.08500000</v>
   <v name="DARWINR">      0.00000000      0.00000000</v>
   <v name="DARWINV">      1.00000000      1.00000000</v>
   <i type="logical" name="LCORR"> T  </i>
  </separator>
  <i type="logical" name="GGA_COMPAT"> T  </i>
  <i type="logical" name="LBERRY"> F  </i>
  <i type="int" name="ICORELEVEL">     0</i>
  <i type="logical" name="LDAU"> F  </i>
  <i type="int" name="I_CONSTRAINED_M">     0</i>
  <separator name="electronic exchange-correlation" >
   <i type="string" name="GGA">--</i>
   <i type="int" name="VOSKOWN">     0</i>
   <i type="logical" name="LHFCALC"> F  </i>
   <i type="string" name="PRECFOCK"></i>
   <i type="logical" name="LSYMGRAD"> F  </i>
   <i type="logical" name="LHFONE"> F  </i>
   <i type="logical" name="LRHFCALC"> F  </i>
   <i type="logical" name="LTHOMAS"> F  </i>
   <i type="logical" name="LMODELHF"> F  </i>
   <i name="ENCUT4O">     -1.00000000</i>
   <i type="int" name="EXXOEP">     0</i>
   <i type="int" name="FOURORBIT">     0</i>
   <i name="AEXX">      0.00000000</i>
   <i name="HFALPHA">      0.00000000</i>
   <i name="MCALPHA">      0.00000000</i>
   <i name="ALDAX">      1.00000000</i>
   <i name="AGGAX">      1.00000000</i>
   <i name="ALDAC">      1.00000000</i>
   <i name="AGGAC">      1.00000000</i>
   <i type="int" name="NKREDX">     1</i>
   <i type="int" name="NKREDY">     1</i>
   <i type="int" name="NKREDZ">     1</i>
   <i type="logical" name="SHIFTRED"> F  </i>
   <i type="logical" name="ODDONLY"> F  </i>
   <i type="logical" name="EVENONLY"> F  </i>
   <i type="int" name="LMAXFOCK">     0</i>
   <i type="int" name="NMAXFOCKAE">     0</i>
   <i type="logical" name="LFOCKAEDFT"> F  </i>
   <i name="HFSCREEN">      0.00000000</i>
   <i name="HFSCREENC">      0.00000000</i>
   <i type="int" name="NBANDSGWLOW">     0</i>
  </separator>
  <separator name="vdW DFT" >
   <i type="logical" name="LUSE_VDW"> F  </i>
   <i name="Zab_VDW">     -0.84910000</i>
   <i name="PARAM1">      0.12340000</i>
   <i name="PARAM2">      1.00000000</i>
   <i name="PARAM3">      0.00000000</i>
  </separator>
  <separator name="model GW" >
   <i type="int" name="MODEL_GW">     0</i>
   <i name="MODEL_EPS0">     12.01104290</i>
   <i name="MODEL_ALPHA">      1.00000000</i>
  </separator>
  <separator name="linear response parameters" >
   <i type="logical" name="LEPSILON"> F  </i>
   <i type="logical" name="LRPA"> F  </i>
   <i type="logical" name="LNABLA"> F  </i>
   <i type="logical" name="LVEL"> F  </i>
   <i type="int" name="KINTER">     0</i>
   <i name="CSHIFT">      0.10000000</i>
   <i name="OMEGAMAX">     -1.00000000</i>
   <i name="DEG_THRESHOLD">      0.00200000</i>
   <i name="RTIME">     -0.10000000</i>
   <i name="WPLASMAI">      0.00000000</i>
   <v name="DFIELD">      0.00000000      0.00000000      0.00000000</v>
   <v name="WPLASMA">      0.00000000      0.00000000      0.00000000      0.00000000      0.00000000      0.00000000      0.00000000      0.00000000      0.00000000</v>
  </separator>
  <separator name="orbital magnetization" >
   <i type="logical" name="NUCIND"> F  </i>
   <v name="MAGPOS">      0.00000000      0.00000000      0.00000000</v>
   <i type="logical" name="LNICSALL"> T  </i>
   <i type="logical" name="ORBITALMAG"> F  </i>
   <i type="logical" name="LMAGBLOCH"> F  </i>
   <i type="logical" name="LCHIMAG"> F  </i>
   <i type="logical" name="LGAUGE"> T  </i>
   <i type="int" name="MAGATOM">     0</i>
   <v name="MAGDIPOL">      0.00000000      0.00000000      0.00000000</v>
   <v name="AVECCONST">      0.00000000      0.00000000      0.00000000</v>
  </separator>
  <separator name="response functions" >
   <i type="logical" name="LADDER"> F  </i>
   <i type="logical" name="LRPAFORCE"> F  </i>
   <i type="logical" name="LFXC"> F  </i>
   <i type="logical" name="LHARTREE"> T  </i>
   <i type="int" name="IBSE">     0</i>
   <v type="int" name="KPOINT">    -1     0     0     0</v>
   <i type="logical" name="LTCTE"> F  </i>
   <i type="logical" name="LTETE"> F  </i>
   <i type="logical" name="LTRIPLET"> F  </i>
   <i type="logical" name="LFXCEPS"> F  </i>
   <i type="logical" name="LFXHEG"> F  </i>
   <i type="int" name="NATURALO">     2</i>
   <i type="logical" name="L2ORDER"> F  </i>
   <i type="logical" name="LMP2LT"> F  </i>
   <i type="logical" name="LUSEW"> F  </i>
   <i name="ENCUTGW">     -2.00000000</i>
   <i name="ENCUTGWSOFT">     -2.00000000</i>
   <i name="ENCUTLF">     -1.00000000</i>
   <i type="int" name="LMAXMP2">    -1</i>
   <i name="SCISSOR">      0.00000000</i>
   <i type="int" name="NOMEGA">     0</i>
   <i type="int" name="NOMEGAR">     0</i>
   <i type="int" name="NBANDSGW">    -1</i>
   <i type="int" name="NBANDSO">    -1</i>
   <i type="int" name="NBANDSV">    -1</i>
   <i type="int" name="NELM">   200</i>
   <i type="int" name="NELMHF">     1</i>
   <i type="int" name="DIM">     3</i>
   <i type="int" name="ANTIRES">     0</i>
   <i name="OMEGAMAX">    -30.00000000</i>
   <i name="OMEGAMIN">    -30.00000000</i>
   <i name="OMEGATL">   -200.00000000</i>
   <i type="int" name="OMEGAGRID">   140</i>
   <i name="CSHIFT">     -0.10000000</i>
   <i type="logical" name="SELFENERGY"> F  </i>
   <i type="logical" name="LSPECTRAL"> F  </i>
   <i type="logical" name="LSPECTRALGW"> F  </i>
   <i type="logical" name="LSINGLES"> F  </i>
   <i type="logical" name="LFERMIGW"> F  </i>
   <i type="logical" name="ODDONLYGW"> F  </i>
   <i type="logical" name="EVENONLYGW"> F  </i>
   <i type="int" name="NKREDLFX">     1</i>
   <i type="int" name="NKREDLFY">     1</i>
   <i type="int" name="NKREDLFZ">     1</i>
   <i type="int" name="MAXMEM">  2800</i>
   <i type="int" name="TELESCOPE">     0</i>
   <i type="int" name="TAUPAR">     1</i>
   <i type="int" name="OMEGAPAR">    -1</i>
   <i name="LAMBDA">      1.00000000</i>
  </separator>
  <separator name="External order field" >
   <i name="OFIELD_KAPPA">      0.00000000</i>
   <v name="OFIELD_K">      0.00000000      0.00000000      0.00000000</v>
   <i name="OFIELD_Q6_NEAR">      0.00000000</i>
   <i name="OFIELD_Q6_FAR">      0.00000000</i>
   <i name="OFIELD_A">      0.00000000</i>
  </separator>
 </parameters>
 <atominfo>
  <atoms>      54 </atoms>
  <types>       2 </types>
  <array name="atoms" >
   <dimension dim="1">ion</dimension>
   <field type="string">element</field>
   <field type="int">atomtype</field>
   <set>
    <rc><c>B </c><c>   1</c></rc>
    <rc><c>Si</c><c>   2</c></rc>
    <rc><c>Si</c><c>   2</c></rc>
    <rc><c>Si</c><c>   2</c></rc>
    <rc><c>Si</c><c>   2</c></rc>
    <rc><c>Si</c><c>   2</c></rc>
    <rc><c>Si</c><c>   2</c></rc>
    <rc><c>Si</c><c>   2</c></rc>
    <rc><c>Si</c><c>   2</c></rc>
    <rc><c>Si</c><c>   2</c></rc>
    <rc><c>Si</c><c>   2</c></rc>
    <rc><c>Si</c><c>   2</c></rc>
    <rc><c>Si</c><c>   2</c></rc>
    <rc><c>Si</c><c>   2</c></rc>
    <rc><c>Si</c><c>   2</c></rc>
    <rc><c>Si</c><c>   2</c></rc>
    <rc><c>Si</c><c>   2</c></rc>
    <rc><c>Si</c><c>   2</c></rc>
    <rc><c>Si</c><c>   2</c></rc>
    <rc><c>Si</c><c>   2</c></rc>
    <rc><c>Si</c><c>   2</c></rc>
    <rc><c>Si</c><c>   2</c></rc>
    <rc><c>Si</c><c>   2</c></rc>
    <rc><c>Si</c><c>   2</c></rc>
    <rc><c>Si</c><c>   2</c></rc>
    <rc><c>Si</c><c>   2</c></rc>
    <rc><c>Si</c><c>   2</c></rc>
    <rc><c>Si</c><c>   2</c></rc>
    <rc><c>Si</c><c>   2</c></rc>
    <rc><c>Si</c><c>   2</c></rc>
    <rc><c>Si</c><c>   2</c></rc>
    <rc><c>Si</c><c>   2</c></rc>
    <rc><c>Si</c><c>   2</c></rc>
    <rc><c>Si</c><c>   2</c></rc>
    <rc><c>Si</c><c>   2</c></rc>
    <rc><c>Si</c><c>   2</c></rc>
    <rc><c>Si</c><c>   2</c></rc>
    <rc><c>Si</c><c>   2</c></rc>
    <rc><c>Si</c><c>   2</c></rc>
    <rc><c>Si</c><c>   2</c></rc>
    <rc><c>Si</c><c>   2</c></rc>
    <rc><c>Si</c><c>   2</c></rc>
    <rc><c>Si</c><c>   2</c></rc>
    <rc><c>Si</c><c>   2</c></rc>
    <rc><c>Si</c><c>   2</c></rc>
    <rc><c>Si</c><c>   2</c></rc>
    <rc><c>Si</c><c>   2</c></rc>
    <rc><c>Si</c><c>   2</c></rc>
    <rc><c>Si</c><c>   2</c></rc>
    <rc><c>Si</c><c>   2</c></rc>
    <rc><c>Si</c><c>   2</c></rc>
    <rc><c>Si</c><c>   2</c></rc>
    <rc><c>Si</c><c>   2</c></rc>
    <rc><c>Si</c><c>   2</c></rc>
   </set>
  </array>
  <array name="atomtypes" >
   <dimension dim="1">type</dimension>
   <field type="int">atomspertype</field>
   <field type="string">element</field>
   <field>mass</field>
   <field>valence</field>
   <field type="string">pseudopotential</field>
   <set>
    <rc><c>   1</c><c>B </c><c>     10.81100000</c><c>      3.00000000</c><c>  PAW_PBE B 06Sep2000                   </c></rc>
    <rc><c>  53</c><c>Si</c><c>     28.08500000</c><c>      4.00000000</c><c>  PAW_PBE Si 05Jan2001                  </c></rc>
   </set>
  </array>
 </atominfo>
 <structure name="initialpos" >
  <crystal>
   <varray name="basis" >
    <v>       9.97646553       0.00000000       5.75991507 </v>
    <v>       3.32548851       9.40590192       5.75991507 </v>
    <v>       0.00000000       0.00000000      11.51983014 </v>
   </varray>
   <i name="volume">   1080.99386112 </i>
   <varray name="rec_basis" >
    <v>       0.10023590      -0.03543874       0.00000000 </v>
    <v>       0.00000000       0.10631623       0.00000000 </v>
    <v>      -0.05011795      -0.03543874       0.08680684 </v>
   </varray>
  </crystal>
  <varray name="positions" >
   <v>       0.29166667       0.29166667       0.29166667 </v>
   <v>       0.29166667       0.29166667       0.62500000 </v>
   <v>       0.29166667       0.29166667       0.95833333 </v>
   <v>       0.29166667       0.62500000       0.29166667 </v>
   <v>       0.29166667       0.62500000       0.62500000 </v>
   <v>       0.29166667       0.62500000       0.95833333 </v>
   <v>       0.29166667       0.95833333       0.29166667 </v>
   <v>       0.29166667       0.95833333       0.62500000 </v>
   <v>       0.29166667       0.95833333       0.95833333 </v>
   <v>       0.62500000       0.29166667       0.29166667 </v>
   <v>       0.62500000       0.29166667       0.62500000 </v>
   <v>       0.62500000       0.29166667       0.95833333 </v>
   <v>       0.62500000       0.62500000       0.29166667 </v>
   <v>       0.62500000       0.62500000       0.62500000 </v>
   <v>       0.62500000       0.62500000       0.95833333 </v>
   <v>       0.62500000       0.95833333       0.29166667 </v>
   <v>       0.62500000       0.95833333       0.62500000 </v>
   <v>       0.62500000       0.95833333       0.95833333 </v>
   <v>       0.95833333       0.29166667       0.29166667 </v>
   <v>       0.95833333       0.29166667       0.62500000 </v>
   <v>       0.95833333       0.29166667       0.95833333 </v>
   <v>       0.95833333       0.62500000       0.29166667 </v>
   <v>       0.95833333       0.62500000       0.62500000 </v>
   <v>       0.95833333       0.62500000       0.95833333 </v>
   <v>       0.95833333       0.95833333       0.29166667 </v>
   <v>       0.95833333       0.95833333       0.62500000 </v>
   <v>       0.95833333       0.95833333       0.95833333 </v>
   <v>       0.04166667       0.04166667       0.04166667 </v>
   <v>       0.04166667       0.04166667       0.37500000 </v>
   <v>       0.04166667       0.04166667       0.70833333 </v>
   <v>       0.04166667       0.37500000       0.04166667 </v>
   <v>       0.04166667       0.37500000       0.37500000 </v>
   <v>       0.04166667       0.37500000       0.70833333 </v>
   <v>       0.04166667       0.70833333       0.04166667 </v>
   <v>       0.04166667       0.70833333       0.37500000 </v>
   <v>       0.04166667       0.70833333       0.70833333 </v>
   <v>       0.37500000       0.04166667       0.04166667 </v>
   <v>       0.37500000       0.04166667       0.37500000 </v>
   <v>       0.37500000       0.04166667       0.70833333 </v>
   <v>       0.37500000       0.37500000       0.04166667 </v>
   <v>       0.37500000       0.37500000       0.37500000 </v>
   <v>       0.37500000       0.37500000       0.70833333 </v>
   <v>       0.37500000       0.70833333       0.04166667 </v>
   <v>       0.37500000       0.70833333       0.37500000 </v>
   <v>       0.37500000       0.70833333       0.70833333 </v>
   <v>       0.70833333       0.04166667       0.04166667 </v>
   <v>       0.70833333       0.04166667       0.37500000 </v>
   <v>       0.70833333       0.04166667       0.70833333 </v>
   <v>       0.70833333       0.37500000       0.04166667 </v>
   <v>       0.70833333       0.37500000       0.37500000 </v>
   <v>       0.70833333       0.37500000       0.70833333 </v>
   <v>       0.70833333       0.70833333       0.04166667 </v>
   <v>       0.70833333       0.70833333       0.37500000 </v>
   <v>       0.70833333       0.70833333       0.70833333 </v>
  </varray>
 </structure>
 <calculation>
  <scstep>
   <time name="dav">    3.19    3.66</time>
   <time name="total">    3.39    3.87</time>
   <energy>
    <i name="alphaZ">     93.27357238 </i>
    <i name="ewald">  -6115.53854741 </i>
    <i name="hartreedc">   -300.67959059 </i>
    <i name="XCdc">   -487.55551508 </i>
    <i name="pawpsdc">   4714.06124509 </i>
    <i name="pawaedc">  -3780.76198842 </i>
    <i name="eentropy">     -0.01618350 </i>
    <i name="bandstr">    926.30334685 </i>
    <i name="atom">   5533.69225236 </i>
    <i name="e_fr_energy">    582.77859169 </i>
    <i name="e_wo_entrp">    582.79477518 </i>
    <i name="e_0_energy">    582.78668343 </i>
   </energy>
  </scstep>
  <scstep>
   <time name="dav">    3.88    3.92</time>
   <time name="total">    3.88    3.92</time>
   <energy>
    <i name="e_fr_energy">   -235.13691328 </i>
    <i name="e_wo_entrp">   -235.12212434 </i>
    <i name="e_0_energy">   -235.12951881 </i>
   </energy>
  </scstep>
  <scstep>
   <time name="dav">    4.04    4.08</time>
   <time name="total">    4.04    4.08</time>
   <energy>
    <i name="e_fr_energy">   -284.57335498 </i>
    <i name="e_wo_entrp">   -284.56176438 </i>
    <i name="e_0_energy">   -284.56755968 </i>
   </energy>
  </scstep>
  <scstep>
   <time name="dav">    4.25    4.29</time>
   <time name="total">    4.25    4.29</time>
   <energy>
    <i name="e_fr_energy">   -285.56384047 </i>
    <i name="e_wo_entrp">   -285.55183237 </i>
    <i name="e_0_energy">   -285.55783642 </i>
   </energy>
  </scstep>
  <scstep>
   <time name="dav">    4.08    4.11</time>
   <time name="total">    4.25    4.30</time>
   <energy>
    <i name="e_fr_energy">   -285.58528472 </i>
    <i name="e_wo_entrp">   -285.57323191 </i>
    <i name="e_0_energy">   -285.57925831 </i>
   </energy>
  </scstep>
  <scstep>
   <time name="dav">    4.32    4.36</time>
   <time name="total">    4.59    4.64</time>
   <energy>
    <i name="e_fr_energy">   -282.98703755 </i>
    <i name="e_wo_entrp">   -282.97531266 </i>
    <i name="e_0_energy">   -282.98117511 </i>
   </energy>
  </scstep>
  <scstep>
   <time name="dav">    4.09    4.13</time>
   <time name="total">    4.35    4.40</time>
   <energy>
    <i name="e_fr_energy">   -280.00154076 </i>
    <i name="e_wo_entrp">   -279.98997298 </i>
    <i name="e_0_energy">   -279.99575687 </i>
   </energy>
  </scstep>
  <scstep>
   <time name="dav">    3.99    4.03</time>
   <time name="total">    4.25    4.29</time>
   <energy>
    <i name="e_fr_energy">   -279.90935147 </i>
    <i name="e_wo_entrp">   -279.89779291 </i>
    <i name="e_0_energy">   -279.90357219 </i>
   </energy>
  </scstep>
  <scstep>
   <time name="dav">    3.78    3.81</time>
   <time name="total">    4.03    4.07</time>
   <energy>
    <i name="e_fr_energy">   -279.91581068 </i>
    <i name="e_wo_entrp">   -279.90425658 </i>
    <i name="e_0_energy">   -279.91003363 </i>
   </energy>
  </scstep>
  <scstep>
   <time name="dav">    3.81    3.84</time>
   <time name="total">    4.07    4.10</time>
   <energy>
    <i name="e_fr_energy">   -279.91946637 </i>
    <i name="e_wo_entrp">   -279.90791881 </i>
    <i name="e_0_energy">   -279.91369259 </i>
   </energy>
  </scstep>
  <scstep>
   <time name="dav">    4.00    4.04</time>
   <time name="total">    4.27    4.31</time>
   <energy>
    <i name="e_fr_energy">   -279.92605959 </i>
    <i name="e_wo_entrp">   -279.91451893 </i>
    <i name="e_0_energy">   -279.92028926 </i>
   </energy>
  </scstep>
  <scstep>
   <time name="dav">    4.00    4.03</time>
   <time name="total">    4.25    4.29</time>
   <energy>
    <i name="e_fr_energy">   -279.92684183 </i>
    <i name="e_wo_entrp">   -279.91530266 </i>
    <i name="e_0_energy">   -279.92107224 </i>
   </energy>
  </scstep>
  <scstep>
   <time name="dav">    3.91    3.95</time>
   <time name="total">    4.17    4.21</time>
   <energy>
    <i name="e_fr_energy">   -279.92805313 </i>
    <i name="e_wo_entrp">   -279.91651541 </i>
    <i name="e_0_energy">   -279.92228427 </i>
   </energy>
  </scstep>
  <scstep>
   <time name="dav">    4.00    4.03</time>
   <time name="total">    4.26    4.29</time>
   <energy>
    <i name="e_fr_energy">   -279.92808244 </i>
    <i name="e_wo_entrp">   -279.91654447 </i>
    <i name="e_0_energy">   -279.92231346 </i>
   </energy>
  </scstep>
  <scstep>
   <time name="dav">    3.92    3.95</time>
   <time name="total">    4.17    4.21</time>
   <energy>
    <i name="e_fr_energy">   -279.92811388 </i>
    <i name="e_wo_entrp">   -279.91657597 </i>
    <i name="e_0_energy">   -279.92234492 </i>
   </energy>
  </scstep>
  <scstep>
   <time name="dav">    3.96    4.00</time>
   <time name="total">    4.22    4.26</time>
   <energy>
    <i name="e_fr_energy">   -279.92811640 </i>
    <i name="e_wo_entrp">   -279.91657867 </i>
    <i name="e_0_energy">   -279.92234753 </i>
   </energy>
  </scstep>
  <scstep>
   <time name="dav">    3.75    3.78</time>
   <time name="total">    4.00    4.04</time>
   <energy>
    <i name="e_fr_energy">   -279.92811843 </i>
    <i name="e_wo_entrp">   -279.91658074 </i>
    <i name="e_0_energy">   -279.92234958 </i>
   </energy>
  </scstep>
  <scstep>
   <time name="dav">    3.07    3.10</time>
   <time name="total">    3.33    3.36</time>
   <energy>
    <i name="e_fr_energy">   -279.92812148 </i>
    <i name="e_wo_entrp">   -279.91658376 </i>
    <i name="e_0_energy">   -279.92235262 </i>
   </energy>
  </scstep>
  <scstep>
   <time name="dav">    2.91    2.94</time>
   <time name="total">    3.17    3.20</time>
   <energy>
    <i name="e_fr_energy">   -279.92812319 </i>
    <i name="e_wo_entrp">   -279.91658544 </i>
    <i name="e_0_energy">   -279.92235431 </i>
   </energy>
  </scstep>
  <scstep>
   <time name="dav">    2.89    2.91</time>
   <time name="total">    2.98    3.01</time>
   <energy>
    <i name="alphaZ">     93.27357238 </i>
    <i name="ewald">  -6115.53854741 </i>
    <i name="hartreedc">   -405.55994204 </i>
    <i name="XCdc">   -464.91339343 </i>
    <i name="pawpsdc">  23102.52263611 </i>
    <i name="pawaedc"> -22175.32850320 </i>
    <i name="eentropy">     -0.01153773 </i>
    <i name="bandstr">    151.93534063 </i>
    <i name="atom">   5533.69225236 </i>
    <i name="e_fr_energy">   -279.92812234 </i>
    <i name="e_wo_entrp">   -279.91658461 </i>
    <i name="e_0_energy">   -279.92235347 </i>
   </energy>
  </scstep>
  <structure>
   <crystal>
    <varray name="basis" >
     <v>       9.97646553       0.00000000       5.75991507 </v>
     <v>       3.32548851       9.40590192       5.75991507 </v>
     <v>       0.00000000       0.00000000      11.51983014 </v>
    </varray>
    <i name="volume">   1080.99386112 </i>
    <varray name="rec_basis" >
     <v>       0.10023590      -0.03543874       0.00000000 </v>
     <v>       0.00000000       0.10631623       0.00000000 </v>
     <v>      -0.05011795      -0.03543874       0.08680684 </v>
    </varray>
   </crystal>
   <varray name="positions" >
    <v>       0.29166667       0.29166667       0.29166667 </v>
    <v>       0.29166667       0.29166667       0.62500000 </v>
    <v>       0.29166667       0.29166667       0.95833333 </v>
    <v>       0.29166667       0.62500000       0.29166667 </v>
    <v>       0.29166667       0.62500000       0.62500000 </v>
    <v>       0.29166667       0.62500000       0.95833333 </v>
    <v>       0.29166667       0.95833333       0.29166667 </v>
    <v>       0.29166667       0.95833333       0.62500000 </v>
    <v>       0.29166667       0.95833333       0.95833333 </v>
    <v>       0.62500000       0.29166667       0.29166667 </v>
    <v>       0.62500000       0.29166667       0.62500000 </v>
    <v>       0.62500000       0.29166667       0.95833333 </v>
    <v>       0.62500000       0.62500000       0.29166667 </v>
    <v>       0.62500000       0.62500000       0.62500000 </v>
    <v>       0.62500000       0.62500000       0.95833333 </v>
    <v>       0.62500000       0.95833333       0.29166667 </v>
    <v>       0.62500000       0.95833333       0.62500000 </v>
    <v>       0.62500000       0.95833333       0.95833333 </v>
    <v>       0.95833333       0.29166667       0.29166667 </v>
    <v>       0.95833333       0.29166667       0.62500000 </v>
    <v>       0.95833333       0.29166667       0.95833333 </v>
    <v>       0.95833333       0.62500000       0.29166667 </v>
    <v>       0.95833333       0.62500000       0.62500000 </v>
    <v>       0.95833333       0.62500000       0.95833333 </v>
    <v>       0.95833333       0.95833333       0.29166667 </v>
    <v>       0.95833333       0.95833333       0.62500000 </v>
    <v>       0.95833333       0.95833333       0.95833333 </v>
    <v>       0.04166667       0.04166667       0.04166667 </v>
    <v>       0.04166667       0.04166667       0.37500000 </v>
    <v>       0.04166667       0.04166667       0.70833333 </v>
    <v>       0.04166667       0.37500000       0.04166667 </v>
    <v>       0.04166667       0.37500000       0.37500000 </v>
    <v>       0.04166667       0.37500000       0.70833333 </v>
    <v>       0.04166667       0.70833333       0.04166667 </v>
    <v>       0.04166667       0.70833333       0.37500000 </v>
    <v>       0.04166667       0.70833333       0.70833333 </v>
    <v>       0.37500000       0.04166667       0.04166667 </v>
    <v>       0.37500000       0.04166667       0.37500000 </v>
    <v>       0.37500000       0.04166667       0.70833333 </v>
    <v>       0.37500000       0.37500000       0.04166667 </v>
    <v>       0.37500000       0.37500000       0.37500000 </v>
    <v>       0.37500000       0.37500000       0.70833333 </v>
    <v>       0.37500000       0.70833333       0.04166667 </v>
    <v>       0.37500000       0.70833333       0.37500000 </v>
    <v>       0.37500000       0.70833333       0.70833333 </v>
    <v>       0.70833333       0.04166667       0.04166667 </v>
    <v>       0.70833333       0.04166667       0.37500000 </v>
    <v>       0.70833333       0.04166667       0.70833333 </v>
    <v>       0.70833333       0.37500000       0.04166667 </v>
    <v>       0.70833333       0.37500000       0.37500000 </v>
    <v>       0.70833333       0.37500000       0.70833333 </v>
    <v>       0.70833333       0.70833333       0.04166667 </v>
    <v>       0.70833333       0.70833333       0.37500000 </v>
    <v>       0.70833333       0.70833333       0.70833333 </v>
   </varray>
  </structure>
  <varray name="forces" >
   <v>      -0.00000000       0.00000000      -0.00000000 </v>
   <v>       0.16887572       0.11941317      -0.06816306 </v>
   <v>       0.16887572       0.11941317       0.06816306 </v>
   <v>       0.06476088      -0.17506807       0.11216913 </v>
   <v>       0.04241129      -0.01499466      -0.00000000 </v>
   <v>       0.06476088      -0.17506807      -0.11216913 </v>
   <v>       0.10411484      -0.06375826       0.18033219 </v>
   <v>       0.10411484      -0.06375826      -0.18033219 </v>
   <v>       0.06232944      -0.02203678      -0.00000000 </v>
   <v>      -0.14346880       0.11941317       0.11216913 </v>
   <v>      -0.00000000       0.04498397      -0.00000000 </v>
   <v>      -0.14346880       0.11941317      -0.11216913 </v>
   <v>      -0.02120565      -0.01499466       0.03672926 </v>
   <v>      -0.02120565      -0.01499466      -0.03672926 </v>
   <v>      -0.00469879      -0.00332254      -0.00000000 </v>
   <v>      -0.20822968      -0.06375826      -0.00000000 </v>
   <v>      -0.00234939       0.00332254      -0.00406927 </v>
   <v>      -0.00234939       0.00332254       0.00406927 </v>
   <v>      -0.02540692       0.11941317       0.18033219 </v>
   <v>      -0.02540692       0.11941317      -0.18033219 </v>
   <v>      -0.00000000       0.06611035      -0.00000000 </v>
   <v>      -0.12952176      -0.17506807      -0.00000000 </v>
   <v>       0.00234939      -0.00332254      -0.00406927 </v>
   <v>       0.00234939      -0.00332254       0.00406927 </v>
   <v>      -0.03116472      -0.02203678       0.05397888 </v>
   <v>       0.00469879       0.00332254      -0.00000000 </v>
   <v>      -0.03116472      -0.02203678      -0.05397888 </v>
   <v>      -0.00000000       0.00000000      -0.00000000 </v>
   <v>       0.02942756       0.02080843      -0.04828292 </v>
   <v>       0.02942756       0.02080843       0.04828292 </v>
   <v>       0.00077570      -0.06023127       0.00134355 </v>
   <v>       2.12346590      -0.75075857      -0.00000000 </v>
   <v>       0.00077570      -0.06023127      -0.00134355 </v>
   <v>       0.02865186       0.01861442       0.04962648 </v>
   <v>       0.02865186       0.01861442      -0.04962648 </v>
   <v>      -0.00627655       0.00221909      -0.00000000 </v>
   <v>      -0.05652802       0.02080843       0.00134355 </v>
   <v>      -0.00000000       2.25227571      -0.00000000 </v>
   <v>      -0.05652802       0.02080843      -0.00134355 </v>
   <v>      -1.06173295      -0.75075857       1.83897542 </v>
   <v>      -1.06173295      -0.75075857      -1.83897542 </v>
   <v>      -0.14342056      -0.10141365      -0.00000000 </v>
   <v>      -0.05730372       0.01861442      -0.00000000 </v>
   <v>      -0.07171028       0.10141365      -0.12420585 </v>
   <v>      -0.07171028       0.10141365       0.12420585 </v>
   <v>       0.02710046       0.02080843       0.04962648 </v>
   <v>       0.02710046       0.02080843      -0.04962648 </v>
   <v>      -0.00000000      -0.00665728      -0.00000000 </v>
   <v>      -0.00155140      -0.06023127      -0.00000000 </v>
   <v>       0.07171028      -0.10141365      -0.12420585 </v>
   <v>       0.07171028      -0.10141365       0.12420585 </v>
   <v>       0.00313827       0.00221909      -0.00543565 </v>
   <v>       0.14342056       0.10141365      -0.00000000 </v>
   <v>       0.00313827       0.00221909       0.00543565 </v>
  </varray>
  <varray name="stress" >
   <v>      35.97688209       0.00000000      -0.00000000 </v>
   <v>       0.00000000      35.97688221      -0.00000000 </v>
   <v>       0.00000000      -0.00000000      35.97688223 </v>
  </varray>
  <energy>
   <i name="e_fr_energy">   -279.92812234 </i>
   <i name="e_wo_entrp">   -279.92235347 </i>
   <i name="e_0_energy">     -0.01153773 </i>
  </energy>
  <time name="totalsc">   93.76   95.18</time>
  <eigenvalues>
   <array>
    <dimension dim="1">band</dimension>
    <dimension dim="2">kpoint</dimension>
    <dimension dim="3">spin</dimension>
    <field>eigene</field>
    <field>occ</field>
    <set>
     <set comment="spin 1">
      <set comment="kpoint 1">
       <r>   -6.2610    1.0000 </r>
       <r>   -4.9546    1.0000 </r>
       <r>   -4.9247    1.0000 </r>
       <r>   -4.9247    1.0000 </r>
       <r>   -4.9247    1.0000 </r>
       <r>   -4.8874    1.0000 </r>
       <r>   -4.8874    1.0000 </r>
       <r>   -4.8874    1.0000 </r>
       <r>   -4.7386    1.0000 </r>
       <r>   -4.3868    1.0000 </r>
       <r>   -4.3868    1.0000 </r>
       <r>   -4.3447    1.0000 </r>
       <r>   -4.3447    1.0000 </r>
       <r>   -4.3447    1.0000 </r>
       <r>   -4.0325    1.0000 </r>
       <r>   -3.0601    1.0000 </r>
       <r>   -3.0601    1.0000 </r>
       <r>   -3.0601    1.0000 </r>
       <r>   -3.0392    1.0000 </r>
       <r>   -3.0392    1.0000 </r>
       <r>   -3.0075    1.0000 </r>
       <r>   -3.0075    1.0000 </r>
       <r>   -3.0075    1.0000 </r>
       <r>   -2.9068    1.0000 </r>
       <r>   -2.9068    1.0000 </r>
       <r>   -2.9068    1.0000 </r>
       <r>   -2.3555    1.0000 </r>
       <r>   -1.1309    1.0000 </r>
       <r>   -1.1309    1.0000 </r>
       <r>   -1.1309    1.0000 </r>
       <r>   -1.1068    1.0000 </r>
       <r>   -1.1068    1.0000 </r>
       <r>   -1.0752    1.0000 </r>
       <r>   -1.0752    1.0000 </r>
       <r>   -1.0752    1.0000 </r>
       <r>   -0.9559    1.0000 </r>
       <r>   -0.9559    1.0000 </r>
       <r>   -0.9559    1.0000 </r>
       <r>   -0.5977    1.0000 </r>
       <r>    0.3289    1.0000 </r>
       <r>    0.3473    1.0000 </r>
       <r>    0.3473    1.0000 </r>
       <r>    0.3473    1.0000 </r>
       <r>    0.3963    1.0000 </r>
       <r>    0.3963    1.0000 </r>
       <r>    0.3963    1.0000 </r>
       <r>    0.4059    1.0000 </r>
       <r>    0.6730    1.0000 </r>
       <r>    0.6730    1.0000 </r>
       <r>    0.7498    1.0000 </r>
       <r>    0.7498    1.0000 </r>
       <r>    0.7498    1.0000 </r>
       <r>    1.0761    1.0000 </r>
       <r>    1.2218    1.0000 </r>
       <r>    1.2218    1.0000 </r>
       <r>    1.2218    1.0000 </r>
       <r>    1.2230    1.0000 </r>
       <r>    1.2230    1.0000 </r>
       <r>    1.2230    1.0000 </r>
       <r>    1.2546    1.0000 </r>
       <r>    1.3220    1.0000 </r>
       <r>    1.3220    1.0000 </r>
       <r>    1.5364    1.0000 </r>
       <r>    1.5364    1.0000 </r>
       <r>    1.5364    1.0000 </r>
       <r>    3.2392    1.0000 </r>
       <r>    3.2392    1.0000 </r>
       <r>    3.2392    1.0000 </r>
       <r>    3.2695    1.0000 </r>
       <r>    3.2695    1.0000 </r>
       <r>    3.2695    1.0000 </r>
       <r>    3.2704    1.0000 </r>
       <r>    3.2704    1.0000 </r>
       <r>    3.2704    1.0000 </r>
       <r>    3.3182    1.0000 </r>
       <r>    3.3182    1.0000 </r>
       <r>    3.3182    1.0000 </r>
       <r>    3.5545    1.0000 </r>
       <r>    3.5545    1.0000 </r>
       <r>    3.5545    1.0000 </r>
       <r>    3.5607    1.0000 </r>
       <r>    3.5880    1.0000 </r>
       <r>    3.5880    1.0000 </r>
       <r>    3.6073    1.0000 </r>
       <r>    3.6073    1.0000 </r>
       <r>    3.6073    1.0000 </r>
       <r>    3.8374    1.0000 </r>
       <r>    3.8374    1.0000 </r>
       <r>    3.8374    1.0000 </r>
       <r>    4.6495    1.0000 </r>
       <r>    4.6495    1.0000 </r>
       <r>    4.6495    1.0000 </r>
       <r>    4.6515    1.0000 </r>
       <r>    4.6515    1.0000 </r>
       <r>    4.6604    1.0000 </r>
       <r>    4.6604    1.0000 </r>
       <r>    4.6604    1.0000 </r>
       <r>    4.7177    1.0000 </r>
       <r>    4.7177    1.0000 </r>
       <r>    4.7283    1.0000 </r>
       <r>    4.7283    1.0000 </r>
       <r>    4.7283    1.0000 </r>
       <r>    5.0645    1.0000 </r>
       <r>    5.0645    1.0000 </r>
       <r>    5.0645    1.0000 </r>
       <r>    5.8109    1.0000 </r>
       <r>    5.8109    1.0000 </r>
       <r>    5.8109    1.0000 </r>
       <r>    6.4047    0.9764 </r>
       <r>    6.4098    0.9673 </r>
       <r>    6.4098    0.9673 </r>
       <r>    6.4281    0.9073 </r>
       <r>    6.4281    0.9073 </r>
       <r>    6.4281    0.9073 </r>
       <r>    7.2125    0.0000 </r>
       <r>    7.2168    0.0000 </r>
       <r>    7.2168    0.0000 </r>
       <r>    7.2168    0.0000 </r>
       <r>    7.2291    0.0000 </r>
       <r>    7.2291    0.0000 </r>
       <r>    7.2291    0.0000 </r>
       <r>    7.2836    0.0000 </r>
       <r>    7.2836    0.0000 </r>
       <r>    7.2836    0.0000 </r>
       <r>    7.3012    0.0000 </r>
       <r>    7.3012    0.0000 </r>
       <r>    7.4084    0.0000 </r>
       <r>    7.4084    0.0000 </r>
       <r>    7.4084    0.0000 </r>
       <r>    7.4237    0.0000 </r>
       <r>    7.4924    0.0000 </r>
       <r>    7.5539    0.0000 </r>
       <r>    7.5539    0.0000 </r>
       <r>    7.5539    0.0000 </r>
       <r>    7.6760    0.0000 </r>
       <r>    7.7599    0.0000 </r>
       <r>    7.7599    0.0000 </r>
       <r>    7.7599    0.0000 </r>
       <r>    7.7835    0.0000 </r>
       <r>    7.7835    0.0000 </r>
       <r>    8.2829    0.0000 </r>
       <r>    8.2829    0.0000 </r>
       <r>    8.2829    0.0000 </r>
       <r>    9.0596    0.0000 </r>
      </set>
      <set comment="kpoint 2">
       <r>   -6.1722    1.0000 </r>
       <r>   -5.4655    1.0000 </r>
       <r>   -5.0327    1.0000 </r>
       <r>   -5.0327    1.0000 </r>
       <r>   -5.0088    1.0000 </r>
       <r>   -4.7630    1.0000 </r>
       <r>   -4.7630    1.0000 </r>
       <r>   -4.7081    1.0000 </r>
       <r>   -4.6012    1.0000 </r>
       <r>   -4.6012    1.0000 </r>
       <r>   -4.4426    1.0000 </r>
       <r>   -4.2418    1.0000 </r>
       <r>   -3.8375    1.0000 </r>
       <r>   -3.8375    1.0000 </r>
       <r>   -3.7236    1.0000 </r>
       <r>   -3.6053    1.0000 </r>
       <r>   -3.6053    1.0000 </r>
       <r>   -3.4636    1.0000 </r>
       <r>   -3.0434    1.0000 </r>
       <r>   -3.0434    1.0000 </r>
       <r>   -3.0024    1.0000 </r>
       <r>   -2.9525    1.0000 </r>
       <r>   -2.9525    1.0000 </r>
       <r>   -2.7900    1.0000 </r>
       <r>   -2.7232    1.0000 </r>
       <r>   -2.7232    1.0000 </r>
       <r>   -2.3305    1.0000 </r>
       <r>   -1.3650    1.0000 </r>
       <r>   -1.3650    1.0000 </r>
       <r>   -1.2679    1.0000 </r>
       <r>   -1.1536    1.0000 </r>
       <r>   -1.1536    1.0000 </r>
       <r>   -1.1144    1.0000 </r>
       <r>   -1.0587    1.0000 </r>
       <r>   -1.0587    1.0000 </r>
       <r>   -0.9094    1.0000 </r>
       <r>   -0.7309    1.0000 </r>
       <r>   -0.5856    1.0000 </r>
       <r>   -0.5856    1.0000 </r>
       <r>   -0.4337    1.0000 </r>
       <r>   -0.1098    1.0000 </r>
       <r>   -0.1098    1.0000 </r>
       <r>   -0.0984    1.0000 </r>
       <r>    0.0351    1.0000 </r>
       <r>    0.0351    1.0000 </r>
       <r>    0.2927    1.0000 </r>
       <r>    0.8475    1.0000 </r>
       <r>    0.8475    1.0000 </r>
       <r>    0.8760    1.0000 </r>
       <r>    1.2754    1.0000 </r>
       <r>    1.2754    1.0000 </r>
       <r>    1.3313    1.0000 </r>
       <r>    1.3986    1.0000 </r>
       <r>    1.4111    1.0000 </r>
       <r>    1.4111    1.0000 </r>
       <r>    1.4480    1.0000 </r>
       <r>    1.4602    1.0000 </r>
       <r>    1.4602    1.0000 </r>
       <r>    1.5098    1.0000 </r>
       <r>    1.6195    1.0000 </r>
       <r>    1.6195    1.0000 </r>
       <r>    1.6939    1.0000 </r>
       <r>    1.7648    1.0000 </r>
       <r>    1.7648    1.0000 </r>
       <r>    1.9649    1.0000 </r>
       <r>    2.7878    1.0000 </r>
       <r>    2.7878    1.0000 </r>
       <r>    2.8203    1.0000 </r>
       <r>    3.1109    1.0000 </r>
       <r>    3.1366    1.0000 </r>
       <r>    3.1366    1.0000 </r>
       <r>    3.2367    1.0000 </r>
       <r>    3.2367    1.0000 </r>
       <r>    3.2475    1.0000 </r>
       <r>    3.2634    1.0000 </r>
       <r>    3.2635    1.0000 </r>
       <r>    3.2635    1.0000 </r>
       <r>    3.2857    1.0000 </r>
       <r>    3.3204    1.0000 </r>
       <r>    3.3204    1.0000 </r>
       <r>    3.4275    1.0000 </r>
       <r>    3.4275    1.0000 </r>
       <r>    3.5505    1.0000 </r>
       <r>    3.5565    1.0000 </r>
       <r>    3.6374    1.0000 </r>
       <r>    3.6374    1.0000 </r>
       <r>    3.8453    1.0000 </r>
       <r>    3.8453    1.0000 </r>
       <r>    3.9645    1.0000 </r>
       <r>    4.0062    1.0000 </r>
       <r>    4.0458    1.0000 </r>
       <r>    4.0458    1.0000 </r>
       <r>    4.3698    1.0000 </r>
       <r>    4.3980    1.0000 </r>
       <r>    4.3980    1.0000 </r>
       <r>    4.4434    1.0000 </r>
       <r>    4.4434    1.0000 </r>
       <r>    4.5758    1.0000 </r>
       <r>    4.5758    1.0000 </r>
       <r>    4.5802    1.0000 </r>
       <r>    4.7011    1.0000 </r>
       <r>    4.8104    1.0000 </r>
       <r>    4.8104    1.0000 </r>
       <r>    5.0208    1.0000 </r>
       <r>    5.0750    1.0000 </r>
       <r>    5.0750    1.0000 </r>
       <r>    5.6772    1.0000 </r>
       <r>    5.6772    1.0000 </r>
       <r>    6.5716    0.0031 </r>
       <r>    6.5799    0.0015 </r>
       <r>    6.5799    0.0015 </r>
       <r>    6.8653    0.0000 </r>
       <r>    6.8653    0.0000 </r>
       <r>    6.8725    0.0000 </r>
       <r>    6.9654    0.0000 </r>
       <r>    6.9932    0.0000 </r>
       <r>    6.9932    0.0000 </r>
       <r>    7.3004    0.0000 </r>
       <r>    7.5286    0.0000 </r>
       <r>    7.5412    0.0000 </r>
       <r>    7.5412    0.0000 </r>
       <r>    7.6706    0.0000 </r>
       <r>    7.7241    0.0000 </r>
       <r>    7.7241    0.0000 </r>
       <r>    7.7599    0.0000 </r>
       <r>    7.7891    0.0000 </r>
       <r>    7.8104    0.0000 </r>
       <r>    7.8104    0.0000 </r>
       <r>    7.8628    0.0000 </r>
       <r>    7.8672    0.0000 </r>
       <r>    7.8672    0.0000 </r>
       <r>    7.9109    0.0000 </r>
       <r>    7.9237    0.0000 </r>
       <r>    7.9237    0.0000 </r>
       <r>    8.0191    0.0000 </r>
       <r>    8.0900    0.0000 </r>
       <r>    8.0900    0.0000 </r>
       <r>    8.3178    0.0000 </r>
       <r>    8.4766    0.0000 </r>
       <r>    8.4815    0.0000 </r>
       <r>    8.4815    0.0000 </r>
       <r>    8.5294    0.0000 </r>
       <r>    8.5294    0.0000 </r>
       <r>    8.9835    0.0000 </r>
      </set>
      <set comment="kpoint 3">
       <r>   -5.9529    1.0000 </r>
       <r>   -5.8491    1.0000 </r>
       <r>   -5.0365    1.0000 </r>
       <r>   -5.0198    1.0000 </r>
       <r>   -5.0198    1.0000 </r>
       <r>   -4.9393    1.0000 </r>
       <r>   -4.9393    1.0000 </r>
       <r>   -4.7733    1.0000 </r>
       <r>   -4.1882    1.0000 </r>
       <r>   -4.1882    1.0000 </r>
       <r>   -4.1554    1.0000 </r>
       <r>   -4.1527    1.0000 </r>
       <r>   -4.1527    1.0000 </r>
       <r>   -4.0241    1.0000 </r>
       <r>   -3.8546    1.0000 </r>
       <r>   -3.2222    1.0000 </r>
       <r>   -3.2222    1.0000 </r>
       <r>   -3.2169    1.0000 </r>
       <r>   -3.1912    1.0000 </r>
       <r>   -3.1912    1.0000 </r>
       <r>   -3.0381    1.0000 </r>
       <r>   -3.0381    1.0000 </r>
       <r>   -3.0366    1.0000 </r>
       <r>   -2.9972    1.0000 </r>
       <r>   -2.9297    1.0000 </r>
       <r>   -2.9297    1.0000 </r>
       <r>   -2.3934    1.0000 </r>
       <r>   -1.2766    1.0000 </r>
       <r>   -1.1873    1.0000 </r>
       <r>   -1.1873    1.0000 </r>
       <r>   -1.1515    1.0000 </r>
       <r>   -1.1087    1.0000 </r>
       <r>   -1.1087    1.0000 </r>
       <r>   -1.0429    1.0000 </r>
       <r>   -0.8824    1.0000 </r>
       <r>   -0.8824    1.0000 </r>
       <r>   -0.8478    1.0000 </r>
       <r>   -0.8478    1.0000 </r>
       <r>   -0.7963    1.0000 </r>
       <r>   -0.6209    1.0000 </r>
       <r>   -0.3280    1.0000 </r>
       <r>   -0.3280    1.0000 </r>
       <r>   -0.2858    1.0000 </r>
       <r>   -0.2160    1.0000 </r>
       <r>   -0.2160    1.0000 </r>
       <r>    0.0684    1.0000 </r>
       <r>    1.2064    1.0000 </r>
       <r>    1.2344    1.0000 </r>
       <r>    1.2344    1.0000 </r>
       <r>    1.3176    1.0000 </r>
       <r>    1.3176    1.0000 </r>
       <r>    1.4260    1.0000 </r>
       <r>    1.6244    1.0000 </r>
       <r>    1.6525    1.0000 </r>
       <r>    1.6525    1.0000 </r>
       <r>    1.6829    1.0000 </r>
       <r>    1.8273    1.0000 </r>
       <r>    1.8273    1.0000 </r>
       <r>    2.0286    1.0000 </r>
       <r>    2.0481    1.0000 </r>
       <r>    2.0481    1.0000 </r>
       <r>    2.1376    1.0000 </r>
       <r>    2.1401    1.0000 </r>
       <r>    2.1401    1.0000 </r>
       <r>    2.6272    1.0000 </r>
       <r>    2.6272    1.0000 </r>
       <r>    2.6455    1.0000 </r>
       <r>    2.6455    1.0000 </r>
       <r>    2.6773    1.0000 </r>
       <r>    2.6890    1.0000 </r>
       <r>    2.9058    1.0000 </r>
       <r>    2.9058    1.0000 </r>
       <r>    2.9139    1.0000 </r>
       <r>    2.9769    1.0000 </r>
       <r>    2.9769    1.0000 </r>
       <r>    3.0899    1.0000 </r>
       <r>    3.0977    1.0000 </r>
       <r>    3.0977    1.0000 </r>
       <r>    3.1331    1.0000 </r>
       <r>    3.1608    1.0000 </r>
       <r>    3.2825    1.0000 </r>
       <r>    3.2825    1.0000 </r>
       <r>    3.3351    1.0000 </r>
       <r>    3.3744    1.0000 </r>
       <r>    3.6609    1.0000 </r>
       <r>    3.6609    1.0000 </r>
       <r>    3.6743    1.0000 </r>
       <r>    3.7566    1.0000 </r>
       <r>    3.7566    1.0000 </r>
       <r>    3.9229    1.0000 </r>
       <r>    3.9453    1.0000 </r>
       <r>    3.9601    1.0000 </r>
       <r>    3.9601    1.0000 </r>
       <r>    4.0241    1.0000 </r>
       <r>    4.0241    1.0000 </r>
       <r>    4.2732    1.0000 </r>
       <r>    4.3665    1.0000 </r>
       <r>    4.3881    1.0000 </r>
       <r>    4.3881    1.0000 </r>
       <r>    4.4256    1.0000 </r>
       <r>    4.4625    1.0000 </r>
       <r>    4.4625    1.0000 </r>
       <r>    4.7030    1.0000 </r>
       <r>    4.7030    1.0000 </r>
       <r>    5.2168    1.0000 </r>
       <r>    5.2168    1.0000 </r>
       <r>    5.4822    1.0000 </r>
       <r>    5.4822    1.0000 </r>
       <r>    6.6868    0.0000 </r>
       <r>    6.6868    0.0000 </r>
       <r>    6.7023    0.0000 </r>
       <r>    6.7891    0.0000 </r>
       <r>    6.8435    0.0000 </r>
       <r>    6.8435    0.0000 </r>
       <r>    7.2462    0.0000 </r>
       <r>    7.6326    0.0000 </r>
       <r>    7.6326    0.0000 </r>
       <r>    7.6559    0.0000 </r>
       <r>    7.6625    0.0000 </r>
       <r>    7.6848    0.0000 </r>
       <r>    7.6848    0.0000 </r>
       <r>    8.0064    0.0000 </r>
       <r>    8.0623    0.0000 </r>
       <r>    8.1161    0.0000 </r>
       <r>    8.1161    0.0000 </r>
       <r>    8.1334    0.0000 </r>
       <r>    8.2317    0.0000 </r>
       <r>    8.2584    0.0000 </r>
       <r>    8.2584    0.0000 </r>
       <r>    8.3748    0.0000 </r>
       <r>    8.3894    0.0000 </r>
       <r>    8.3894    0.0000 </r>
       <r>    8.4235    0.0000 </r>
       <r>    8.4428    0.0000 </r>
       <r>    8.4428    0.0000 </r>
       <r>    8.8645    0.0000 </r>
       <r>    8.8645    0.0000 </r>
       <r>    8.9226    0.0000 </r>
       <r>    8.9226    0.0000 </r>
       <r>    8.9968    0.0000 </r>
       <r>    9.0298    0.0000 </r>
       <r>    9.0304    0.0000 </r>
       <r>    9.0336    0.0000 </r>
       <r>    9.1049    0.0000 </r>
      </set>
      <set comment="kpoint 4">
       <r>   -6.1422    1.0000 </r>
       <r>   -5.2616    1.0000 </r>
       <r>   -5.2408    1.0000 </r>
       <r>   -5.2227    1.0000 </r>
       <r>   -5.2227    1.0000 </r>
       <r>   -5.0155    1.0000 </r>
       <r>   -4.4207    1.0000 </r>
       <r>   -4.4180    1.0000 </r>
       <r>   -4.4180    1.0000 </r>
       <r>   -4.3873    1.0000 </r>
       <r>   -4.2883    1.0000 </r>
       <r>   -4.2372    1.0000 </r>
       <r>   -4.2372    1.0000 </r>
       <r>   -4.0192    1.0000 </r>
       <r>   -3.5572    1.0000 </r>
       <r>   -3.5285    1.0000 </r>
       <r>   -3.5285    1.0000 </r>
       <r>   -3.4641    1.0000 </r>
       <r>   -3.3362    1.0000 </r>
       <r>   -3.2194    1.0000 </r>
       <r>   -3.2194    1.0000 </r>
       <r>   -3.1933    1.0000 </r>
       <r>   -2.8957    1.0000 </r>
       <r>   -2.4906    1.0000 </r>
       <r>   -2.4519    1.0000 </r>
       <r>   -2.4519    1.0000 </r>
       <r>   -2.1991    1.0000 </r>
       <r>   -1.5760    1.0000 </r>
       <r>   -1.5376    1.0000 </r>
       <r>   -1.5376    1.0000 </r>
       <r>   -1.4151    1.0000 </r>
       <r>   -1.0957    1.0000 </r>
       <r>   -1.0957    1.0000 </r>
       <r>   -1.0868    1.0000 </r>
       <r>   -1.0033    1.0000 </r>
       <r>   -0.7293    1.0000 </r>
       <r>   -0.5378    1.0000 </r>
       <r>   -0.5007    1.0000 </r>
       <r>   -0.5007    1.0000 </r>
       <r>   -0.4324    1.0000 </r>
       <r>   -0.3757    1.0000 </r>
       <r>   -0.3525    1.0000 </r>
       <r>   -0.3525    1.0000 </r>
       <r>   -0.1354    1.0000 </r>
       <r>    0.4974    1.0000 </r>
       <r>    0.5569    1.0000 </r>
       <r>    0.5569    1.0000 </r>
       <r>    0.7144    1.0000 </r>
       <r>    1.2732    1.0000 </r>
       <r>    1.3006    1.0000 </r>
       <r>    1.3006    1.0000 </r>
       <r>    1.3815    1.0000 </r>
       <r>    1.4137    1.0000 </r>
       <r>    1.4183    1.0000 </r>
       <r>    1.4183    1.0000 </r>
       <r>    1.4429    1.0000 </r>
       <r>    1.5521    1.0000 </r>
       <r>    1.5855    1.0000 </r>
       <r>    1.5958    1.0000 </r>
       <r>    1.5958    1.0000 </r>
       <r>    1.7953    1.0000 </r>
       <r>    1.8936    1.0000 </r>
       <r>    1.8936    1.0000 </r>
       <r>    1.9046    1.0000 </r>
       <r>    2.2851    1.0000 </r>
       <r>    2.8254    1.0000 </r>
       <r>    2.8254    1.0000 </r>
       <r>    2.8258    1.0000 </r>
       <r>    2.8487    1.0000 </r>
       <r>    2.9159    1.0000 </r>
       <r>    2.9272    1.0000 </r>
       <r>    2.9272    1.0000 </r>
       <r>    3.0058    1.0000 </r>
       <r>    3.0220    1.0000 </r>
       <r>    3.0220    1.0000 </r>
       <r>    3.2724    1.0000 </r>
       <r>    3.3061    1.0000 </r>
       <r>    3.3061    1.0000 </r>
       <r>    3.3533    1.0000 </r>
       <r>    3.6150    1.0000 </r>
       <r>    3.6251    1.0000 </r>
       <r>    3.6251    1.0000 </r>
       <r>    3.6539    1.0000 </r>
       <r>    3.6781    1.0000 </r>
       <r>    3.6871    1.0000 </r>
       <r>    3.6871    1.0000 </r>
       <r>    3.6873    1.0000 </r>
       <r>    3.9083    1.0000 </r>
       <r>    3.9083    1.0000 </r>
       <r>    3.9858    1.0000 </r>
       <r>    4.0085    1.0000 </r>
       <r>    4.0085    1.0000 </r>
       <r>    4.0235    1.0000 </r>
       <r>    4.1235    1.0000 </r>
       <r>    4.1670    1.0000 </r>
       <r>    4.1670    1.0000 </r>
       <r>    4.2753    1.0000 </r>
       <r>    4.2829    1.0000 </r>
       <r>    4.4590    1.0000 </r>
       <r>    4.4590    1.0000 </r>
       <r>    4.4771    1.0000 </r>
       <r>    4.9980    1.0000 </r>
       <r>    5.0176    1.0000 </r>
       <r>    5.0941    1.0000 </r>
       <r>    5.0941    1.0000 </r>
       <r>    5.1326    1.0000 </r>
       <r>    5.4556    1.0000 </r>
       <r>    5.4556    1.0000 </r>
       <r>    6.2673    1.0000 </r>
       <r>    6.7998    0.0000 </r>
       <r>    6.8744    0.0000 </r>
       <r>    7.0694    0.0000 </r>
       <r>    7.0735    0.0000 </r>
       <r>    7.0856    0.0000 </r>
       <r>    7.0856    0.0000 </r>
       <r>    7.3613    0.0000 </r>
       <r>    7.3613    0.0000 </r>
       <r>    7.4034    0.0000 </r>
       <r>    7.4341    0.0000 </r>
       <r>    7.4638    0.0000 </r>
       <r>    7.4643    0.0000 </r>
       <r>    7.4643    0.0000 </r>
       <r>    7.4842    0.0000 </r>
       <r>    7.8229    0.0000 </r>
       <r>    7.8229    0.0000 </r>
       <r>    7.8246    0.0000 </r>
       <r>    7.8379    0.0000 </r>
       <r>    7.9890    0.0000 </r>
       <r>    8.1087    0.0000 </r>
       <r>    8.1087    0.0000 </r>
       <r>    8.1239    0.0000 </r>
       <r>    8.1273    0.0000 </r>
       <r>    8.1374    0.0000 </r>
       <r>    8.1435    0.0000 </r>
       <r>    8.1435    0.0000 </r>
       <r>    8.2531    0.0000 </r>
       <r>    8.3028    0.0000 </r>
       <r>    8.3211    0.0000 </r>
       <r>    8.3211    0.0000 </r>
       <r>    8.3279    0.0000 </r>
       <r>    8.8198    0.0000 </r>
       <r>    8.8198    0.0000 </r>
       <r>    8.8363    0.0000 </r>
       <r>    8.9751    0.0000 </r>
      </set>
      <set comment="kpoint 5">
       <r>   -5.9413    1.0000 </r>
       <r>   -5.6932    1.0000 </r>
       <r>   -5.4592    1.0000 </r>
       <r>   -5.2434    1.0000 </r>
       <r>   -5.1665    1.0000 </r>
       <r>   -4.7657    1.0000 </r>
       <r>   -4.5530    1.0000 </r>
       <r>   -4.5371    1.0000 </r>
       <r>   -4.3243    1.0000 </r>
       <r>   -4.1582    1.0000 </r>
       <r>   -4.1151    1.0000 </r>
       <r>   -4.0412    1.0000 </r>
       <r>   -3.9792    1.0000 </r>
       <r>   -3.8793    1.0000 </r>
       <r>   -3.6606    1.0000 </r>
       <r>   -3.6553    1.0000 </r>
       <r>   -3.6070    1.0000 </r>
       <r>   -3.4955    1.0000 </r>
       <r>   -3.4376    1.0000 </r>
       <r>   -3.4017    1.0000 </r>
       <r>   -3.3365    1.0000 </r>
       <r>   -3.0333    1.0000 </r>
       <r>   -2.7047    1.0000 </r>
       <r>   -2.6320    1.0000 </r>
       <r>   -2.5623    1.0000 </r>
       <r>   -2.5088    1.0000 </r>
       <r>   -2.2327    1.0000 </r>
       <r>   -1.4804    1.0000 </r>
       <r>   -1.4750    1.0000 </r>
       <r>   -1.4333    1.0000 </r>
       <r>   -1.4243    1.0000 </r>
       <r>   -1.3066    1.0000 </r>
       <r>   -1.1270    1.0000 </r>
       <r>   -1.0317    1.0000 </r>
       <r>   -1.0301    1.0000 </r>
       <r>   -0.9711    1.0000 </r>
       <r>   -0.7242    1.0000 </r>
       <r>   -0.6654    1.0000 </r>
       <r>   -0.6310    1.0000 </r>
       <r>   -0.6264    1.0000 </r>
       <r>   -0.5303    1.0000 </r>
       <r>   -0.3149    1.0000 </r>
       <r>   -0.1623    1.0000 </r>
       <r>    0.0603    1.0000 </r>
       <r>    0.0620    1.0000 </r>
       <r>    0.2029    1.0000 </r>
       <r>    0.7505    1.0000 </r>
       <r>    0.8159    1.0000 </r>
       <r>    0.9175    1.0000 </r>
       <r>    1.5986    1.0000 </r>
       <r>    1.6106    1.0000 </r>
       <r>    1.7128    1.0000 </r>
       <r>    1.7290    1.0000 </r>
       <r>    1.8223    1.0000 </r>
       <r>    1.8249    1.0000 </r>
       <r>    1.9530    1.0000 </r>
       <r>    1.9667    1.0000 </r>
       <r>    2.1227    1.0000 </r>
       <r>    2.1580    1.0000 </r>
       <r>    2.2147    1.0000 </r>
       <r>    2.2357    1.0000 </r>
       <r>    2.2450    1.0000 </r>
       <r>    2.3001    1.0000 </r>
       <r>    2.3156    1.0000 </r>
       <r>    2.4141    1.0000 </r>
       <r>    2.4538    1.0000 </r>
       <r>    2.5254    1.0000 </r>
       <r>    2.6319    1.0000 </r>
       <r>    2.6834    1.0000 </r>
       <r>    2.7157    1.0000 </r>
       <r>    2.7304    1.0000 </r>
       <r>    2.7973    1.0000 </r>
       <r>    2.8142    1.0000 </r>
       <r>    2.8247    1.0000 </r>
       <r>    2.9255    1.0000 </r>
       <r>    2.9350    1.0000 </r>
       <r>    3.0525    1.0000 </r>
       <r>    3.0825    1.0000 </r>
       <r>    3.0834    1.0000 </r>
       <r>    3.1453    1.0000 </r>
       <r>    3.1626    1.0000 </r>
       <r>    3.1931    1.0000 </r>
       <r>    3.3818    1.0000 </r>
       <r>    3.5059    1.0000 </r>
       <r>    3.5338    1.0000 </r>
       <r>    3.5599    1.0000 </r>
       <r>    3.5764    1.0000 </r>
       <r>    3.6351    1.0000 </r>
       <r>    3.7783    1.0000 </r>
       <r>    3.7962    1.0000 </r>
       <r>    3.8890    1.0000 </r>
       <r>    3.9119    1.0000 </r>
       <r>    3.9818    1.0000 </r>
       <r>    4.0472    1.0000 </r>
       <r>    4.0843    1.0000 </r>
       <r>    4.0927    1.0000 </r>
       <r>    4.1526    1.0000 </r>
       <r>    4.2093    1.0000 </r>
       <r>    4.2432    1.0000 </r>
       <r>    4.2619    1.0000 </r>
       <r>    4.4361    1.0000 </r>
       <r>    4.5290    1.0000 </r>
       <r>    4.7122    1.0000 </r>
       <r>    4.7909    1.0000 </r>
       <r>    4.8782    1.0000 </r>
       <r>    5.0280    1.0000 </r>
       <r>    5.2537    1.0000 </r>
       <r>    5.4779    1.0000 </r>
       <r>    6.4657    0.6025 </r>
       <r>    7.0317    0.0000 </r>
       <r>    7.1894    0.0000 </r>
       <r>    7.1947    0.0000 </r>
       <r>    7.2076    0.0000 </r>
       <r>    7.4179    0.0000 </r>
       <r>    7.4410    0.0000 </r>
       <r>    7.4417    0.0000 </r>
       <r>    7.6910    0.0000 </r>
       <r>    7.7476    0.0000 </r>
       <r>    7.8234    0.0000 </r>
       <r>    7.8301    0.0000 </r>
       <r>    7.9110    0.0000 </r>
       <r>    8.0213    0.0000 </r>
       <r>    8.0378    0.0000 </r>
       <r>    8.0960    0.0000 </r>
       <r>    8.2642    0.0000 </r>
       <r>    8.2921    0.0000 </r>
       <r>    8.3140    0.0000 </r>
       <r>    8.3142    0.0000 </r>
       <r>    8.3593    0.0000 </r>
       <r>    8.3835    0.0000 </r>
       <r>    8.4246    0.0000 </r>
       <r>    8.5456    0.0000 </r>
       <r>    8.6452    0.0000 </r>
       <r>    8.6466    0.0000 </r>
       <r>    8.6881    0.0000 </r>
       <r>    8.6900    0.0000 </r>
       <r>    8.7580    0.0000 </r>
       <r>    8.7707    0.0000 </r>
       <r>    8.8595    0.0000 </r>
       <r>    8.8940    0.0000 </r>
       <r>    8.9149    0.0000 </r>
       <r>    8.9261    0.0000 </r>
       <r>    8.9498    0.0000 </r>
       <r>    8.9617    0.0000 </r>
      </set>
      <set comment="kpoint 6">
       <r>   -6.0265    1.0000 </r>
       <r>   -5.5765    1.0000 </r>
       <r>   -5.5162    1.0000 </r>
       <r>   -5.0918    1.0000 </r>
       <r>   -5.0329    1.0000 </r>
       <r>   -4.6982    1.0000 </r>
       <r>   -4.6838    1.0000 </r>
       <r>   -4.6394    1.0000 </r>
       <r>   -4.5274    1.0000 </r>
       <r>   -4.2461    1.0000 </r>
       <r>   -4.1642    1.0000 </r>
       <r>   -4.1352    1.0000 </r>
       <r>   -4.0260    1.0000 </r>
       <r>   -3.8982    1.0000 </r>
       <r>   -3.5962    1.0000 </r>
       <r>   -3.5718    1.0000 </r>
       <r>   -3.5383    1.0000 </r>
       <r>   -3.4268    1.0000 </r>
       <r>   -3.2563    1.0000 </r>
       <r>   -3.2062    1.0000 </r>
       <r>   -3.0895    1.0000 </r>
       <r>   -3.0480    1.0000 </r>
       <r>   -3.0432    1.0000 </r>
       <r>   -2.8387    1.0000 </r>
       <r>   -2.7425    1.0000 </r>
       <r>   -2.5013    1.0000 </r>
       <r>   -2.1649    1.0000 </r>
       <r>   -1.8017    1.0000 </r>
       <r>   -1.2268    1.0000 </r>
       <r>   -1.1738    1.0000 </r>
       <r>   -1.0881    1.0000 </r>
       <r>   -1.0661    1.0000 </r>
       <r>   -1.0389    1.0000 </r>
       <r>   -1.0341    1.0000 </r>
       <r>   -0.9682    1.0000 </r>
       <r>   -0.9028    1.0000 </r>
       <r>   -0.8955    1.0000 </r>
       <r>   -0.8578    1.0000 </r>
       <r>   -0.8412    1.0000 </r>
       <r>   -0.7114    1.0000 </r>
       <r>   -0.6977    1.0000 </r>
       <r>   -0.4131    1.0000 </r>
       <r>    0.2018    1.0000 </r>
       <r>    0.2649    1.0000 </r>
       <r>    0.3077    1.0000 </r>
       <r>    0.4175    1.0000 </r>
       <r>    0.4726    1.0000 </r>
       <r>    0.4919    1.0000 </r>
       <r>    0.6728    1.0000 </r>
       <r>    1.4816    1.0000 </r>
       <r>    1.4855    1.0000 </r>
       <r>    1.7024    1.0000 </r>
       <r>    1.7090    1.0000 </r>
       <r>    1.7397    1.0000 </r>
       <r>    1.7421    1.0000 </r>
       <r>    1.8355    1.0000 </r>
       <r>    1.8638    1.0000 </r>
       <r>    1.8933    1.0000 </r>
       <r>    1.9649    1.0000 </r>
       <r>    2.1044    1.0000 </r>
       <r>    2.1112    1.0000 </r>
       <r>    2.1411    1.0000 </r>
       <r>    2.1569    1.0000 </r>
       <r>    2.3170    1.0000 </r>
       <r>    2.3977    1.0000 </r>
       <r>    2.5626    1.0000 </r>
       <r>    2.5778    1.0000 </r>
       <r>    2.6024    1.0000 </r>
       <r>    2.6169    1.0000 </r>
       <r>    2.7050    1.0000 </r>
       <r>    2.7699    1.0000 </r>
       <r>    2.7720    1.0000 </r>
       <r>    2.8541    1.0000 </r>
       <r>    3.0301    1.0000 </r>
       <r>    3.0543    1.0000 </r>
       <r>    3.0967    1.0000 </r>
       <r>    3.1108    1.0000 </r>
       <r>    3.1278    1.0000 </r>
       <r>    3.2263    1.0000 </r>
       <r>    3.2396    1.0000 </r>
       <r>    3.2755    1.0000 </r>
       <r>    3.3810    1.0000 </r>
       <r>    3.3872    1.0000 </r>
       <r>    3.4321    1.0000 </r>
       <r>    3.5256    1.0000 </r>
       <r>    3.5491    1.0000 </r>
       <r>    3.7190    1.0000 </r>
       <r>    3.7413    1.0000 </r>
       <r>    3.7627    1.0000 </r>
       <r>    3.7651    1.0000 </r>
       <r>    3.8747    1.0000 </r>
       <r>    3.9195    1.0000 </r>
       <r>    4.0628    1.0000 </r>
       <r>    4.1301    1.0000 </r>
       <r>    4.2525    1.0000 </r>
       <r>    4.3528    1.0000 </r>
       <r>    4.3678    1.0000 </r>
       <r>    4.4284    1.0000 </r>
       <r>    4.4428    1.0000 </r>
       <r>    4.4509    1.0000 </r>
       <r>    4.4970    1.0000 </r>
       <r>    4.5258    1.0000 </r>
       <r>    4.6032    1.0000 </r>
       <r>    4.7565    1.0000 </r>
       <r>    4.8884    1.0000 </r>
       <r>    4.9159    1.0000 </r>
       <r>    5.1160    1.0000 </r>
       <r>    5.6883    1.0000 </r>
       <r>    6.6177    0.0000 </r>
       <r>    6.9086    0.0000 </r>
       <r>    6.9217    0.0000 </r>
       <r>    7.0943    0.0000 </r>
       <r>    7.1756    0.0000 </r>
       <r>    7.3984    0.0000 </r>
       <r>    7.4023    0.0000 </r>
       <r>    7.4482    0.0000 </r>
       <r>    7.4566    0.0000 </r>
       <r>    7.5773    0.0000 </r>
       <r>    7.5787    0.0000 </r>
       <r>    7.6219    0.0000 </r>
       <r>    7.6603    0.0000 </r>
       <r>    7.7817    0.0000 </r>
       <r>    7.7923    0.0000 </r>
       <r>    8.0850    0.0000 </r>
       <r>    8.1212    0.0000 </r>
       <r>    8.2219    0.0000 </r>
       <r>    8.2613    0.0000 </r>
       <r>    8.2755    0.0000 </r>
       <r>    8.2769    0.0000 </r>
       <r>    8.2880    0.0000 </r>
       <r>    8.3033    0.0000 </r>
       <r>    8.3719    0.0000 </r>
       <r>    8.3796    0.0000 </r>
       <r>    8.4107    0.0000 </r>
       <r>    8.4213    0.0000 </r>
       <r>    8.6087    0.0000 </r>
       <r>    8.6479    0.0000 </r>
       <r>    8.6571    0.0000 </r>
       <r>    8.8894    0.0000 </r>
       <r>    8.8939    0.0000 </r>
       <r>    8.9109    0.0000 </r>
       <r>    8.9286    0.0000 </r>
       <r>    8.9937    0.0000 </r>
       <r>    9.0489    0.0000 </r>
      </set>
      <set comment="kpoint 7">
       <r>   -5.8088    1.0000 </r>
       <r>   -5.7722    1.0000 </r>
       <r>   -5.3552    1.0000 </r>
       <r>   -5.3307    1.0000 </r>
       <r>   -5.3307    1.0000 </r>
       <r>   -5.1577    1.0000 </r>
       <r>   -4.0382    1.0000 </r>
       <r>   -4.0263    1.0000 </r>
       <r>   -4.0257    1.0000 </r>
       <r>   -4.0257    1.0000 </r>
       <r>   -3.9749    1.0000 </r>
       <r>   -3.9444    1.0000 </r>
       <r>   -3.9444    1.0000 </r>
       <r>   -3.9246    1.0000 </r>
       <r>   -3.8319    1.0000 </r>
       <r>   -3.8138    1.0000 </r>
       <r>   -3.8138    1.0000 </r>
       <r>   -3.8039    1.0000 </r>
       <r>   -3.7146    1.0000 </r>
       <r>   -3.7146    1.0000 </r>
       <r>   -3.6847    1.0000 </r>
       <r>   -3.1368    1.0000 </r>
       <r>   -2.1223    1.0000 </r>
       <r>   -2.1197    1.0000 </r>
       <r>   -2.0371    1.0000 </r>
       <r>   -2.0238    1.0000 </r>
       <r>   -2.0238    1.0000 </r>
       <r>   -2.0014    1.0000 </r>
       <r>   -1.9516    1.0000 </r>
       <r>   -1.9388    1.0000 </r>
       <r>   -1.9388    1.0000 </r>
       <r>   -1.5903    1.0000 </r>
       <r>   -0.9597    1.0000 </r>
       <r>   -0.9597    1.0000 </r>
       <r>   -0.9531    1.0000 </r>
       <r>   -0.9290    1.0000 </r>
       <r>   -0.8199    1.0000 </r>
       <r>   -0.8199    1.0000 </r>
       <r>   -0.8100    1.0000 </r>
       <r>   -0.6682    1.0000 </r>
       <r>    0.0096    1.0000 </r>
       <r>    0.0232    1.0000 </r>
       <r>    0.0232    1.0000 </r>
       <r>    0.0470    1.0000 </r>
       <r>    0.0645    1.0000 </r>
       <r>    0.1765    1.0000 </r>
       <r>    0.1765    1.0000 </r>
       <r>    0.4792    1.0000 </r>
       <r>    1.9481    1.0000 </r>
       <r>    1.9696    1.0000 </r>
       <r>    1.9696    1.0000 </r>
       <r>    2.0111    1.0000 </r>
       <r>    2.0111    1.0000 </r>
       <r>    2.0117    1.0000 </r>
       <r>    2.0172    1.0000 </r>
       <r>    2.0213    1.0000 </r>
       <r>    2.0213    1.0000 </r>
       <r>    2.0217    1.0000 </r>
       <r>    2.0226    1.0000 </r>
       <r>    2.0551    1.0000 </r>
       <r>    2.1137    1.0000 </r>
       <r>    2.1167    1.0000 </r>
       <r>    2.1213    1.0000 </r>
       <r>    2.1213    1.0000 </r>
       <r>    2.1499    1.0000 </r>
       <r>    2.3163    1.0000 </r>
       <r>    2.3163    1.0000 </r>
       <r>    2.3546    1.0000 </r>
       <r>    2.8328    1.0000 </r>
       <r>    2.8328    1.0000 </r>
       <r>    2.8952    1.0000 </r>
       <r>    2.9073    1.0000 </r>
       <r>    2.9210    1.0000 </r>
       <r>    2.9210    1.0000 </r>
       <r>    2.9700    1.0000 </r>
       <r>    2.9804    1.0000 </r>
       <r>    2.9804    1.0000 </r>
       <r>    3.0082    1.0000 </r>
       <r>    3.2539    1.0000 </r>
       <r>    3.2680    1.0000 </r>
       <r>    3.2680    1.0000 </r>
       <r>    3.2744    1.0000 </r>
       <r>    3.3414    1.0000 </r>
       <r>    3.3671    1.0000 </r>
       <r>    3.3724    1.0000 </r>
       <r>    3.3724    1.0000 </r>
       <r>    3.4595    1.0000 </r>
       <r>    3.5623    1.0000 </r>
       <r>    3.5623    1.0000 </r>
       <r>    3.5717    1.0000 </r>
       <r>    3.6821    1.0000 </r>
       <r>    3.8727    1.0000 </r>
       <r>    3.8727    1.0000 </r>
       <r>    3.8778    1.0000 </r>
       <r>    3.8854    1.0000 </r>
       <r>    3.9347    1.0000 </r>
       <r>    3.9422    1.0000 </r>
       <r>    4.1291    1.0000 </r>
       <r>    4.1291    1.0000 </r>
       <r>    4.1947    1.0000 </r>
       <r>    4.5132    1.0000 </r>
       <r>    4.5132    1.0000 </r>
       <r>    4.6263    1.0000 </r>
       <r>    4.6263    1.0000 </r>
       <r>    5.1141    1.0000 </r>
       <r>    5.1392    1.0000 </r>
       <r>    5.3511    1.0000 </r>
       <r>    5.3511    1.0000 </r>
       <r>    6.4001    0.9828 </r>
       <r>    6.4083    0.9702 </r>
       <r>    7.3666    0.0000 </r>
       <r>    7.3977    0.0000 </r>
       <r>    7.6809    0.0000 </r>
       <r>    7.6856    0.0000 </r>
       <r>    7.6856    0.0000 </r>
       <r>    7.6869    0.0000 </r>
       <r>    7.7342    0.0000 </r>
       <r>    7.7342    0.0000 </r>
       <r>    7.8760    0.0000 </r>
       <r>    7.9620    0.0000 </r>
       <r>    8.4033    0.0000 </r>
       <r>    8.4033    0.0000 </r>
       <r>    8.4108    0.0000 </r>
       <r>    8.4123    0.0000 </r>
       <r>    8.4123    0.0000 </r>
       <r>    8.4159    0.0000 </r>
       <r>    8.4174    0.0000 </r>
       <r>    8.4223    0.0000 </r>
       <r>    8.5231    0.0000 </r>
       <r>    8.5320    0.0000 </r>
       <r>    8.5394    0.0000 </r>
       <r>    8.5394    0.0000 </r>
       <r>    8.5769    0.0000 </r>
       <r>    8.6152    0.0000 </r>
       <r>    8.6516    0.0000 </r>
       <r>    8.6516    0.0000 </r>
       <r>    8.7238    0.0000 </r>
       <r>    8.7238    0.0000 </r>
       <r>    8.7492    0.0000 </r>
       <r>    8.8937    0.0000 </r>
       <r>    9.2356    0.0000 </r>
       <r>    9.2457    0.0000 </r>
       <r>    9.2613    0.0000 </r>
       <r>    9.2616    0.0000 </r>
      </set>
      <set comment="kpoint 8">
       <r>   -5.7324    1.0000 </r>
       <r>   -5.7031    1.0000 </r>
       <r>   -5.6797    1.0000 </r>
       <r>   -5.5143    1.0000 </r>
       <r>   -4.7819    1.0000 </r>
       <r>   -4.7673    1.0000 </r>
[...]
        <r>  0.0013  0.0004  0.0000 </r>
       </set>
       <set comment="band 138">
        <r>  0.0000  0.0000  0.0000 </r>
        <r>  0.0014  0.0056  0.0000 </r>
        <r>  0.0014  0.0056  0.0000 </r>
        <r>  0.0007  0.0018  0.0000 </r>
        <r>  0.0006  0.0060  0.0000 </r>
        <r>  0.0014  0.0056  0.0000 </r>
        <r>  0.0007  0.0018  0.0000 </r>
        <r>  0.0014  0.0056  0.0000 </r>
        <r>  0.0006  0.0003  0.0000 </r>
        <r>  0.0014  0.0056  0.0000 </r>
        <r>  0.0006  0.0060  0.0000 </r>
        <r>  0.0007  0.0018  0.0000 </r>
        <r>  0.0006  0.0060  0.0000 </r>
        <r>  0.0006  0.0060  0.0000 </r>
        <r>  0.0005  0.0001  0.0000 </r>
        <r>  0.0014  0.0056  0.0000 </r>
        <r>  0.0051  0.0008  0.0000 </r>
        <r>  0.0005  0.0001  0.0000 </r>
        <r>  0.0014  0.0056  0.0000 </r>
        <r>  0.0007  0.0018  0.0000 </r>
        <r>  0.0006  0.0003  0.0000 </r>
        <r>  0.0014  0.0056  0.0000 </r>
        <r>  0.0005  0.0001  0.0000 </r>
        <r>  0.0051  0.0008  0.0000 </r>
        <r>  0.0006  0.0003  0.0000 </r>
        <r>  0.0005  0.0001  0.0000 </r>
        <r>  0.0006  0.0003  0.0000 </r>
        <r>  0.0000  0.0003  0.0000 </r>
        <r>  0.0005  0.0013  0.0000 </r>
        <r>  0.0005  0.0013  0.0000 </r>
        <r>  0.0016  0.0023  0.0000 </r>
        <r>  0.0008  0.0005  0.0000 </r>
        <r>  0.0005  0.0013  0.0000 </r>
        <r>  0.0016  0.0023  0.0000 </r>
        <r>  0.0005  0.0013  0.0000 </r>
        <r>  0.0003  0.0041  0.0000 </r>
        <r>  0.0005  0.0013  0.0000 </r>
        <r>  0.0008  0.0005  0.0000 </r>
        <r>  0.0016  0.0023  0.0000 </r>
        <r>  0.0008  0.0005  0.0000 </r>
        <r>  0.0008  0.0005  0.0000 </r>
        <r>  0.0006  0.0088  0.0000 </r>
        <r>  0.0005  0.0013  0.0000 </r>
        <r>  0.0000  0.0042  0.0000 </r>
        <r>  0.0006  0.0088  0.0000 </r>
        <r>  0.0005  0.0013  0.0000 </r>
        <r>  0.0016  0.0023  0.0000 </r>
        <r>  0.0003  0.0041  0.0000 </r>
        <r>  0.0005  0.0013  0.0000 </r>
        <r>  0.0006  0.0088  0.0000 </r>
        <r>  0.0000  0.0042  0.0000 </r>
        <r>  0.0003  0.0041  0.0000 </r>
        <r>  0.0006  0.0088  0.0000 </r>
        <r>  0.0003  0.0041  0.0000 </r>
       </set>
       <set comment="band 139">
        <r>  0.0000  0.0015  0.0000 </r>
        <r>  0.0000  0.0036  0.0000 </r>
        <r>  0.0000  0.0036  0.0000 </r>
        <r>  0.0012  0.0022  0.0000 </r>
        <r>  0.0023  0.0022  0.0000 </r>
        <r>  0.0000  0.0036  0.0000 </r>
        <r>  0.0012  0.0022  0.0000 </r>
        <r>  0.0000  0.0036  0.0000 </r>
        <r>  0.0028  0.0016  0.0000 </r>
        <r>  0.0000  0.0036  0.0000 </r>
        <r>  0.0023  0.0022  0.0000 </r>
        <r>  0.0012  0.0022  0.0000 </r>
        <r>  0.0023  0.0022  0.0000 </r>
        <r>  0.0023  0.0022  0.0000 </r>
        <r>  0.0000  0.0029  0.0000 </r>
        <r>  0.0000  0.0036  0.0000 </r>
        <r>  0.0000  0.0016  0.0000 </r>
        <r>  0.0000  0.0029  0.0000 </r>
        <r>  0.0000  0.0036  0.0000 </r>
        <r>  0.0012  0.0022  0.0000 </r>
        <r>  0.0028  0.0016  0.0000 </r>
        <r>  0.0000  0.0036  0.0000 </r>
        <r>  0.0000  0.0029  0.0000 </r>
        <r>  0.0000  0.0016  0.0000 </r>
        <r>  0.0028  0.0016  0.0000 </r>
        <r>  0.0000  0.0029  0.0000 </r>
        <r>  0.0028  0.0016  0.0000 </r>
        <r>  0.0003  0.0000  0.0000 </r>
        <r>  0.0003  0.0068  0.0000 </r>
        <r>  0.0003  0.0068  0.0000 </r>
        <r>  0.0001  0.0019  0.0000 </r>
        <r>  0.0000  0.0023  0.0000 </r>
        <r>  0.0003  0.0068  0.0000 </r>
        <r>  0.0001  0.0019  0.0000 </r>
        <r>  0.0003  0.0068  0.0000 </r>
        <r>  0.0000  0.0024  0.0000 </r>
        <r>  0.0003  0.0067  0.0000 </r>
        <r>  0.0000  0.0023  0.0000 </r>
        <r>  0.0001  0.0019  0.0000 </r>
        <r>  0.0000  0.0023  0.0000 </r>
        <r>  0.0000  0.0023  0.0000 </r>
        <r>  0.0000  0.0091  0.0000 </r>
        <r>  0.0003  0.0068  0.0000 </r>
        <r>  0.0004  0.0000  0.0000 </r>
        <r>  0.0000  0.0091  0.0000 </r>
        <r>  0.0003  0.0068  0.0000 </r>
        <r>  0.0001  0.0019  0.0000 </r>
        <r>  0.0000  0.0024  0.0000 </r>
        <r>  0.0003  0.0068  0.0000 </r>
        <r>  0.0000  0.0091  0.0000 </r>
        <r>  0.0004  0.0000  0.0000 </r>
        <r>  0.0000  0.0024  0.0000 </r>
        <r>  0.0000  0.0091  0.0000 </r>
        <r>  0.0000  0.0024  0.0000 </r>
       </set>
       <set comment="band 140">
        <r>  0.0000  0.0062  0.0000 </r>
        <r>  0.0002  0.0022  0.0000 </r>
        <r>  0.0002  0.0022  0.0000 </r>
        <r>  0.0002  0.0024  0.0000 </r>
        <r>  0.0004  0.0049  0.0000 </r>
        <r>  0.0002  0.0022  0.0000 </r>
        <r>  0.0002  0.0024  0.0000 </r>
        <r>  0.0002  0.0022  0.0000 </r>
        <r>  0.0002  0.0060  0.0000 </r>
        <r>  0.0002  0.0022  0.0000 </r>
        <r>  0.0004  0.0050  0.0000 </r>
        <r>  0.0002  0.0024  0.0000 </r>
        <r>  0.0004  0.0049  0.0000 </r>
        <r>  0.0004  0.0050  0.0000 </r>
        <r>  0.0016  0.0027  0.0000 </r>
        <r>  0.0002  0.0022  0.0000 </r>
        <r>  0.0000  0.0013  0.0000 </r>
        <r>  0.0016  0.0027  0.0000 </r>
        <r>  0.0002  0.0022  0.0000 </r>
        <r>  0.0002  0.0024  0.0000 </r>
        <r>  0.0002  0.0060  0.0000 </r>
        <r>  0.0002  0.0022  0.0000 </r>
        <r>  0.0016  0.0027  0.0000 </r>
        <r>  0.0000  0.0013  0.0000 </r>
        <r>  0.0002  0.0060  0.0000 </r>
        <r>  0.0016  0.0027  0.0000 </r>
        <r>  0.0002  0.0060  0.0000 </r>
        <r>  0.0000  0.0084  0.0000 </r>
        <r>  0.0000  0.0027  0.0000 </r>
        <r>  0.0000  0.0027  0.0000 </r>
        <r>  0.0020  0.0025  0.0000 </r>
        <r>  0.0002  0.0019  0.0000 </r>
        <r>  0.0000  0.0027  0.0000 </r>
        <r>  0.0020  0.0025  0.0000 </r>
        <r>  0.0000  0.0027  0.0000 </r>
        <r>  0.0022  0.0014  0.0000 </r>
        <r>  0.0000  0.0027  0.0000 </r>
        <r>  0.0002  0.0019  0.0000 </r>
        <r>  0.0020  0.0025  0.0000 </r>
        <r>  0.0002  0.0019  0.0000 </r>
        <r>  0.0002  0.0019  0.0000 </r>
        <r>  0.0000  0.0018  0.0000 </r>
        <r>  0.0000  0.0027  0.0000 </r>
        <r>  0.0000  0.0096  0.0000 </r>
        <r>  0.0000  0.0018  0.0000 </r>
        <r>  0.0000  0.0027  0.0000 </r>
        <r>  0.0020  0.0025  0.0000 </r>
        <r>  0.0021  0.0014  0.0000 </r>
        <r>  0.0000  0.0027  0.0000 </r>
        <r>  0.0000  0.0018  0.0000 </r>
        <r>  0.0000  0.0096  0.0000 </r>
        <r>  0.0022  0.0014  0.0000 </r>
        <r>  0.0000  0.0018  0.0000 </r>
        <r>  0.0021  0.0014  0.0000 </r>
       </set>
       <set comment="band 141">
        <r>  0.0000  0.0000  0.0000 </r>
        <r>  0.0005  0.0064  0.0000 </r>
        <r>  0.0005  0.0064  0.0000 </r>
        <r>  0.0004  0.0037  0.0000 </r>
        <r>  0.0003  0.0065  0.0000 </r>
        <r>  0.0005  0.0064  0.0000 </r>
        <r>  0.0004  0.0037  0.0000 </r>
        <r>  0.0005  0.0064  0.0000 </r>
        <r>  0.0001  0.0033  0.0000 </r>
        <r>  0.0005  0.0064  0.0000 </r>
        <r>  0.0003  0.0065  0.0000 </r>
        <r>  0.0004  0.0037  0.0000 </r>
        <r>  0.0003  0.0065  0.0000 </r>
        <r>  0.0003  0.0065  0.0000 </r>
        <r>  0.0006  0.0095  0.0000 </r>
        <r>  0.0005  0.0064  0.0000 </r>
        <r>  0.0000  0.0006  0.0000 </r>
        <r>  0.0006  0.0095  0.0000 </r>
        <r>  0.0005  0.0064  0.0000 </r>
        <r>  0.0004  0.0037  0.0000 </r>
        <r>  0.0001  0.0033  0.0000 </r>
        <r>  0.0005  0.0064  0.0000 </r>
        <r>  0.0006  0.0095  0.0000 </r>
        <r>  0.0000  0.0006  0.0000 </r>
        <r>  0.0001  0.0033  0.0000 </r>
        <r>  0.0006  0.0095  0.0000 </r>
        <r>  0.0001  0.0033  0.0000 </r>
        <r>  0.0067  0.0000  0.0000 </r>
        <r>  0.0006  0.0031  0.0000 </r>
        <r>  0.0006  0.0032  0.0000 </r>
        <r>  0.0023  0.0041  0.0000 </r>
        <r>  0.0007  0.0023  0.0000 </r>
        <r>  0.0006  0.0032  0.0000 </r>
        <r>  0.0023  0.0041  0.0000 </r>
        <r>  0.0006  0.0032  0.0000 </r>
        <r>  0.0013  0.0038  0.0000 </r>
        <r>  0.0006  0.0031  0.0000 </r>
        <r>  0.0007  0.0023  0.0000 </r>
        <r>  0.0023  0.0041  0.0000 </r>
        <r>  0.0007  0.0023  0.0000 </r>
        <r>  0.0007  0.0022  0.0000 </r>
        <r>  0.0004  0.0033  0.0000 </r>
        <r>  0.0006  0.0032  0.0000 </r>
        <r>  0.0030  0.0001  0.0000 </r>
        <r>  0.0004  0.0033  0.0000 </r>
        <r>  0.0006  0.0032  0.0000 </r>
        <r>  0.0023  0.0041  0.0000 </r>
        <r>  0.0013  0.0038  0.0000 </r>
        <r>  0.0006  0.0031  0.0000 </r>
        <r>  0.0004  0.0033  0.0000 </r>
        <r>  0.0030  0.0001  0.0000 </r>
        <r>  0.0013  0.0038  0.0000 </r>
        <r>  0.0004  0.0033  0.0000 </r>
        <r>  0.0013  0.0038  0.0000 </r>
       </set>
       <set comment="band 142">
        <r>  0.0000  0.0200  0.0000 </r>
        <r>  0.0002  0.0020  0.0000 </r>
        <r>  0.0002  0.0021  0.0000 </r>
        <r>  0.0009  0.0086  0.0000 </r>
        <r>  0.0010  0.0039  0.0000 </r>
        <r>  0.0002  0.0021  0.0000 </r>
        <r>  0.0009  0.0085  0.0000 </r>
        <r>  0.0002  0.0021  0.0000 </r>
        <r>  0.0000  0.0062  0.0000 </r>
        <r>  0.0002  0.0020  0.0000 </r>
        <r>  0.0010  0.0039  0.0000 </r>
        <r>  0.0008  0.0084  0.0000 </r>
        <r>  0.0010  0.0040  0.0000 </r>
        <r>  0.0010  0.0040  0.0000 </r>
        <r>  0.0009  0.0040  0.0000 </r>
        <r>  0.0002  0.0021  0.0000 </r>
        <r>  0.0000  0.0087  0.0000 </r>
        <r>  0.0009  0.0040  0.0000 </r>
        <r>  0.0002  0.0020  0.0000 </r>
        <r>  0.0009  0.0087  0.0000 </r>
        <r>  0.0000  0.0061  0.0000 </r>
        <r>  0.0002  0.0020  0.0000 </r>
        <r>  0.0009  0.0042  0.0000 </r>
        <r>  0.0000  0.0087  0.0000 </r>
        <r>  0.0000  0.0061  0.0000 </r>
        <r>  0.0009  0.0041  0.0000 </r>
        <r>  0.0000  0.0061  0.0000 </r>
        <r>  0.0000  0.0043  0.0000 </r>
        <r>  0.0038  0.0023  0.0000 </r>
        <r>  0.0037  0.0022  0.0000 </r>
        <r>  0.0000  0.0019  0.0000 </r>
        <r>  0.0000  0.0059  0.0000 </r>
        <r>  0.0037  0.0023  0.0000 </r>
        <r>  0.0000  0.0020  0.0000 </r>
        <r>  0.0038  0.0023  0.0000 </r>
        <r>  0.0002  0.0044  0.0000 </r>
        <r>  0.0037  0.0023  0.0000 </r>
        <r>  0.0000  0.0059  0.0000 </r>
        <r>  0.0000  0.0020  0.0000 </r>
        <r>  0.0000  0.0059  0.0000 </r>
        <r>  0.0000  0.0059  0.0000 </r>
        <r>  0.0008  0.0006  0.0000 </r>
        <r>  0.0037  0.0022  0.0000 </r>
        <r>  0.0001  0.0059  0.0000 </r>
        <r>  0.0008  0.0007  0.0000 </r>
        <r>  0.0038  0.0023  0.0000 </r>
        <r>  0.0000  0.0019  0.0000 </r>
        <r>  0.0002  0.0044  0.0000 </r>
        <r>  0.0038  0.0024  0.0000 </r>
        <r>  0.0008  0.0006  0.0000 </r>
        <r>  0.0001  0.0059  0.0000 </r>
        <r>  0.0002  0.0044  0.0000 </r>
        <r>  0.0008  0.0006  0.0000 </r>
        <r>  0.0002  0.0044  0.0000 </r>
       </set>
       <set comment="band 143">
        <r>  0.0101  0.0000  0.0000 </r>
        <r>  0.0007  0.0029  0.0000 </r>
        <r>  0.0008  0.0029  0.0000 </r>
        <r>  0.0039  0.0034  0.0000 </r>
        <r>  0.0004  0.0004  0.0000 </r>
        <r>  0.0008  0.0029  0.0000 </r>
        <r>  0.0039  0.0034  0.0000 </r>
        <r>  0.0007  0.0029  0.0000 </r>
        <r>  0.0005  0.0018  0.0000 </r>
        <r>  0.0008  0.0029  0.0000 </r>
        <r>  0.0004  0.0004  0.0000 </r>
        <r>  0.0038  0.0034  0.0000 </r>
        <r>  0.0004  0.0004  0.0000 </r>
        <r>  0.0004  0.0004  0.0000 </r>
        <r>  0.0015  0.0066  0.0000 </r>
        <r>  0.0008  0.0029  0.0000 </r>
        <r>  0.0018  0.0000  0.0000 </r>
        <r>  0.0015  0.0066  0.0000 </r>
        <r>  0.0008  0.0029  0.0000 </r>
        <r>  0.0039  0.0034  0.0000 </r>
        <r>  0.0005  0.0018  0.0000 </r>
        <r>  0.0008  0.0029  0.0000 </r>
        <r>  0.0015  0.0066  0.0000 </r>
        <r>  0.0018  0.0000  0.0000 </r>
        <r>  0.0005  0.0018  0.0000 </r>
        <r>  0.0015  0.0066  0.0000 </r>
        <r>  0.0005  0.0018  0.0000 </r>
        <r>  0.0000  0.0000  0.0000 </r>
        <r>  0.0003  0.0107  0.0000 </r>
        <r>  0.0003  0.0107  0.0000 </r>
        <r>  0.0004  0.0009  0.0000 </r>
        <r>  0.0002  0.0056  0.0000 </r>
        <r>  0.0003  0.0107  0.0000 </r>
        <r>  0.0004  0.0009  0.0000 </r>
        <r>  0.0003  0.0107  0.0000 </r>
        <r>  0.0010  0.0035  0.0000 </r>
        <r>  0.0003  0.0107  0.0000 </r>
        <r>  0.0002  0.0056  0.0000 </r>
        <r>  0.0004  0.0009  0.0000 </r>
        <r>  0.0002  0.0055  0.0000 </r>
        <r>  0.0002  0.0056  0.0000 </r>
        <r>  0.0001  0.0037  0.0000 </r>
        <r>  0.0003  0.0107  0.0000 </r>
        <r>  0.0000  0.0005  0.0000 </r>
        <r>  0.0001  0.0037  0.0000 </r>
        <r>  0.0003  0.0107  0.0000 </r>
        <r>  0.0004  0.0009  0.0000 </r>
        <r>  0.0010  0.0035  0.0000 </r>
        <r>  0.0003  0.0107  0.0000 </r>
        <r>  0.0001  0.0037  0.0000 </r>
        <r>  0.0000  0.0005  0.0000 </r>
        <r>  0.0010  0.0035  0.0000 </r>
        <r>  0.0001  0.0037  0.0000 </r>
        <r>  0.0009  0.0035  0.0000 </r>
       </set>
       <set comment="band 144">
        <r>  0.0010  0.0081  0.0000 </r>
        <r>  0.0009  0.0034  0.0000 </r>
        <r>  0.0005  0.0044  0.0000 </r>
        <r>  0.0001  0.0074  0.0000 </r>
        <r>  0.0006  0.0069  0.0000 </r>
        <r>  0.0000  0.0028  0.0000 </r>
        <r>  0.0009  0.0070  0.0000 </r>
        <r>  0.0001  0.0022  0.0000 </r>
        <r>  0.0005  0.0037  0.0000 </r>
        <r>  0.0000  0.0020  0.0000 </r>
        <r>  0.0005  0.0107  0.0000 </r>
        <r>  0.0010  0.0058  0.0000 </r>
        <r>  0.0010  0.0097  0.0000 </r>
        <r>  0.0006  0.0092  0.0000 </r>
        <r>  0.0006  0.0034  0.0000 </r>
        <r>  0.0005  0.0045  0.0000 </r>
        <r>  0.0016  0.0043  0.0000 </r>
        <r>  0.0008  0.0073  0.0000 </r>
        <r>  0.0002  0.0029  0.0000 </r>
        <r>  0.0002  0.0058  0.0000 </r>
        <r>  0.0011  0.0029  0.0000 </r>
        <r>  0.0008  0.0040  0.0000 </r>
        <r>  0.0003  0.0074  0.0000 </r>
        <r>  0.0021  0.0044  0.0000 </r>
        <r>  0.0005  0.0020  0.0000 </r>
        <r>  0.0001  0.0033  0.0000 </r>
        <r>  0.0001  0.0040  0.0000 </r>
        <r>  0.0000  0.0003  0.0000 </r>
        <r>  0.0049  0.0027  0.0000 </r>
        <r>  0.0024  0.0032  0.0000 </r>
        <r>  0.0008  0.0028  0.0000 </r>
        <r>  0.0049  0.0003  0.0000 </r>
        <r>  0.0003  0.0017  0.0000 </r>
        <r>  0.0007  0.0029  0.0000 </r>
        <r>  0.0012  0.0021  0.0000 </r>
        <r>  0.0039  0.0043  0.0000 </r>
        <r>  0.0009  0.0018  0.0000 </r>
        <r>  0.0034  0.0007  0.0000 </r>
        <r>  0.0011  0.0030  0.0000 </r>
        <r>  0.0042  0.0010  0.0000 </r>
        <r>  0.0036  0.0006  0.0000 </r>
        <r>  0.0003  0.0029  0.0000 </r>
        <r>  0.0025  0.0034  0.0000 </r>
        <r>  0.0000  0.0046  0.0000 </r>
        <r>  0.0005  0.0019  0.0000 </r>
        <r>  0.0014  0.0025  0.0000 </r>
        <r>  0.0011  0.0029  0.0000 </r>
        <r>  0.0028  0.0046  0.0000 </r>
        <r>  0.0056  0.0036  0.0000 </r>
        <r>  0.0001  0.0024  0.0000 </r>
        <r>  0.0001  0.0045  0.0000 </r>
        <r>  0.0033  0.0047  0.0000 </r>
        <r>  0.0008  0.0020  0.0000 </r>
        <r>  0.0022  0.0042  0.0000 </r>
       </set>
      </set>
     </set>
    </set>
   </array>
  </projected>
 </calculation>
 <structure name="finalpos" >
  <crystal>
   <varray name="basis" >
    <v>       9.97646553       0.00000000       5.75991507 </v>
    <v>       3.32548851       9.40590192       5.75991507 </v>
    <v>       0.00000000       0.00000000      11.51983014 </v>
   </varray>
   <i name="volume">   1080.99386112 </i>
   <varray name="rec_basis" >
    <v>       0.10023590      -0.03543874       0.00000000 </v>
    <v>       0.00000000       0.10631623       0.00000000 </v>
    <v>      -0.05011795      -0.03543874       0.08680684 </v>
   </varray>
  </crystal>
  <varray name="positions" >
   <v>       0.29166667       0.29166667       0.29166667 </v>
   <v>       0.29166667       0.29166667       0.62500000 </v>
   <v>       0.29166667       0.29166667       0.95833333 </v>
   <v>       0.29166667       0.62500000       0.29166667 </v>
   <v>       0.29166667       0.62500000       0.62500000 </v>
   <v>       0.29166667       0.62500000       0.95833333 </v>
   <v>       0.29166667       0.95833333       0.29166667 </v>
   <v>       0.29166667       0.95833333       0.62500000 </v>
   <v>       0.29166667       0.95833333       0.95833333 </v>
   <v>       0.62500000       0.29166667       0.29166667 </v>
   <v>       0.62500000       0.29166667       0.62500000 </v>
   <v>       0.62500000       0.29166667       0.95833333 </v>
   <v>       0.62500000       0.62500000       0.29166667 </v>
   <v>       0.62500000       0.62500000       0.62500000 </v>
   <v>       0.62500000       0.62500000       0.95833333 </v>
   <v>       0.62500000       0.95833333       0.29166667 </v>
   <v>       0.62500000       0.95833333       0.62500000 </v>
   <v>       0.62500000       0.95833333       0.95833333 </v>
   <v>       0.95833333       0.29166667       0.29166667 </v>
   <v>       0.95833333       0.29166667       0.62500000 </v>
   <v>       0.95833333       0.29166667       0.95833333 </v>
   <v>       0.95833333       0.62500000       0.29166667 </v>
   <v>       0.95833333       0.62500000       0.62500000 </v>
   <v>       0.95833333       0.62500000       0.95833333 </v>
   <v>       0.95833333       0.95833333       0.29166667 </v>
   <v>       0.95833333       0.95833333       0.62500000 </v>
   <v>       0.95833333       0.95833333       0.95833333 </v>
   <v>       0.04166667       0.04166667       0.04166667 </v>
   <v>       0.04166667       0.04166667       0.37500000 </v>
   <v>       0.04166667       0.04166667       0.70833333 </v>
   <v>       0.04166667       0.37500000       0.04166667 </v>
   <v>       0.04166667       0.37500000       0.37500000 </v>
   <v>       0.04166667       0.37500000       0.70833333 </v>
   <v>       0.04166667       0.70833333       0.04166667 </v>
   <v>       0.04166667       0.70833333       0.37500000 </v>
   <v>       0.04166667       0.70833333       0.70833333 </v>
   <v>       0.37500000       0.04166667       0.04166667 </v>
   <v>       0.37500000       0.04166667       0.37500000 </v>
   <v>       0.37500000       0.04166667       0.70833333 </v>
   <v>       0.37500000       0.37500000       0.04166667 </v>
   <v>       0.37500000       0.37500000       0.37500000 </v>
   <v>       0.37500000       0.37500000       0.70833333 </v>
   <v>       0.37500000       0.70833333       0.04166667 </v>
   <v>       0.37500000       0.70833333       0.37500000 </v>
   <v>       0.37500000       0.70833333       0.70833333 </v>
   <v>       0.70833333       0.04166667       0.04166667 </v>
   <v>       0.70833333       0.04166667       0.37500000 </v>
   <v>       0.70833333       0.04166667       0.70833333 </v>
   <v>       0.70833333       0.37500000       0.04166667 </v>
   <v>       0.70833333       0.37500000       0.37500000 </v>
   <v>       0.70833333       0.37500000       0.70833333 </v>
   <v>       0.70833333       0.70833333       0.04166667 </v>
   <v>       0.70833333       0.70833333       0.37500000 </v>
   <v>       0.70833333       0.70833333       0.70833333 </v>
  </varray>
 </structure>
</modeling>
