 vasp.5.4.4.18Apr17-6-g9f103f2a35 (build Jun 19 2019 10:34:07) complex          
  
 executed on               LB-5.4 date 2023.05.15  18:42:44
 running on   96 total cores
 distrk:  each k-point on   24 cores,    4 groups
 distr:  one band on NCORES_PER_BAND=   1 cores,   24 groups


--------------------------------------------------------------------------------------------------------


 INCAR:
 POTCAR:    PAW_PBE B 06Sep2000                   
 POTCAR:    PAW_PBE Si 05Jan2001                  

 ----------------------------------------------------------------------------- 
|                                                                             |
|           W    W    AA    RRRRR   N    N  II  N    N   GGGG   !!!           |
|           W    W   A  A   R    R  NN   N  II  NN   N  G    G  !!!           |
|           W    W  A    A  R    R  N N  N  II  N N  N  G       !!!           |
|           W WW W  AAAAAA  RRRRR   N  N N  II  N  N N  G  GGG   !            |
|           WW  WW  A    A  R   R   N   NN  II  N   NN  G    G                |
|           W    W  A    A  R    R  N    N  II  N    N   GGGG   !!!           |
|                                                                             |
|      For optimal performance we recommend to set                            |
|        NCORE= 4 - approx SQRT( number of cores)                             |
|      NCORE specifies how many cores store one orbital (NPAR=cpu/NCORE).     |
|      This setting can  greatly improve the performance of VASP for DFT.     |
|      The default,   NCORE=1            might be grossly inefficient         |
|      on modern multi-core architectures or massively parallel machines.     |
|      Do your own testing !!!!                                               |
|      Unfortunately you need to use the default for GW and RPA calculations. |
|      (for HF NCORE is supported but not extensively tested yet)             |
|                                                                             |
 ----------------------------------------------------------------------------- 


 ----------------------------------------------------------------------------- 
|                                                                             |
|           W    W    AA    RRRRR   N    N  II  N    N   GGGG   !!!           |
|           W    W   A  A   R    R  NN   N  II  NN   N  G    G  !!!           |
|           W    W  A    A  R    R  N N  N  II  N N  N  G       !!!           |
|           W WW W  AAAAAA  RRRRR   N  N N  II  N  N N  G  GGG   !            |
|           WW  WW  A    A  R   R   N   NN  II  N   NN  G    G                |
|           W    W  A    A  R    R  N    N  II  N    N   GGGG   !!!           |
|                                                                             |
|      You have enabled k-point parallelism (KPAR>1).                         |
|      This developmental code was originally  written by Paul Kent at ORNL,  |
|      and carefully double checked in Vienna.                                |
|      GW as well as linear response parallelism added by Martijn Marsman     |
|      and Georg Kresse.                                                      |
|      Carefully verify results versus KPAR=1.                                |
|      Report problems to Paul Kent and Vienna.                               |
|                                                                             |
 ----------------------------------------------------------------------------- 

 POTCAR:    PAW_PBE B 06Sep2000                   
   VRHFIN =B: s2p1                                                              
   LEXCH  = PE                                                                  
   EATOM  =    71.1703 eV,    5.2309 Ry                                         
                                                                                
   TITEL  = PAW_PBE B 06Sep2000                                                 
   LULTRA =        F    use ultrasoft PP ?                                      
   IUNSCR =        1    unscreen: 0-lin 1-nonlin 2-no                           
   RPACOR =    1.200    partial core radius                                     
   POMASS =   10.811; ZVAL   =    3.000    mass and valenz                      
   RCORE  =    1.700    outmost cutoff radius                                   
   RWIGS  =    1.710; RWIGS  =    0.905    wigner-seitz radius (au A)           
   ENMAX  =  318.614; ENMIN  =  238.960 eV                                      
   ICORE  =        2    local potential                                         
   LCOR   =        T    correct aug charges                                     
   LPAW   =        T    paw PP                                                  
   EAUG   =  535.514                                                            
   DEXC   =    0.000                                                            
   RMAX   =    1.732    core radius for proj-oper                               
   RAUG   =    1.300    factor for augmentation sphere                          
   RDEP   =    1.757    radius for radial grids                                 
   RDEPT  =    1.436    core radius for aug-charge                              
                                                                                
   Atomic configuration                                                         
    4 entries                                                                   
     n  l   j            E        occ.                                          
     1  0  0.50      -180.5896   2.0000                                         
     2  0  0.50        -9.4431   2.0000                                         
     2  1  0.50        -3.6068   1.0000                                         
     3  2  1.50        -4.0817   0.0000                                         
   Description                                                                  
     l       E           TYP  RCUT    TYP  RCUT                                 
     0     -9.4430752     23  1.500                                             
     0      0.8675899     23  1.500                                             
     1     -3.6067955     23  1.700                                             
     1      6.1086146     23  1.700                                             
     2     -4.0817478      7  1.700                                             
  local pseudopotential read in
  partial core-charges read in
  partial kinetic energy density read in
  atomic valenz-charges read in
  non local Contribution for L=           0  read in
    real space projection operators read in
  non local Contribution for L=           0  read in
    real space projection operators read in
  non local Contribution for L=           1  read in
    real space projection operators read in
  non local Contribution for L=           1  read in
    real space projection operators read in
    PAW grid and wavefunctions read in
 
   number of l-projection  operators is LMAX  =           4
   number of lm-projection operators is LMMAX =           8
 
 POTCAR:    PAW_PBE Si 05Jan2001                  
   VRHFIN =Si: s2p2                                                             
   LEXCH  = PE                                                                  
   EATOM  =   103.0669 eV,    7.5752 Ry                                         
                                                                                
   TITEL  = PAW_PBE Si 05Jan2001                                                
   LULTRA =        F    use ultrasoft PP ?                                      
   IUNSCR =        1    unscreen: 0-lin 1-nonlin 2-no                           
   RPACOR =    1.500    partial core radius                                     
   POMASS =   28.085; ZVAL   =    4.000    mass and valenz                      
   RCORE  =    1.900    outmost cutoff radius                                   
   RWIGS  =    2.480; RWIGS  =    1.312    wigner-seitz radius (au A)           
   ENMAX  =  245.345; ENMIN  =  184.009 eV                                      
   ICORE  =        2    local potential                                         
   LCOR   =        T    correct aug charges                                     
   LPAW   =        T    paw PP                                                  
   EAUG   =  322.069                                                            
   DEXC   =    0.000                                                            
   RMAX   =    1.950    core radius for proj-oper                               
   RAUG   =    1.300    factor for augmentation sphere                          
   RDEP   =    1.993    radius for radial grids                                 
   RDEPT  =    1.837    core radius for aug-charge                              
                                                                                
   Atomic configuration                                                         
    6 entries                                                                   
     n  l   j            E        occ.                                          
     1  0  0.50     -1785.8828   2.0000                                         
     2  0  0.50      -139.4969   2.0000                                         
     2  1  1.50       -95.5546   6.0000                                         
     3  0  0.50       -10.8127   2.0000                                         
     3  1  0.50        -4.0811   2.0000                                         
     3  2  1.50        -4.0817   0.0000                                         
   Description                                                                  
     l       E           TYP  RCUT    TYP  RCUT                                 
     0    -10.8127223     23  1.900                                             
     0     -7.6451159     23  1.900                                             
     1     -4.0811372     23  1.900                                             
     1      2.4879257     23  1.900                                             
     2     -4.0817478      7  1.900                                             
  local pseudopotential read in
  partial core-charges read in
  partial kinetic energy density read in
  atomic valenz-charges read in
  non local Contribution for L=           0  read in
    real space projection operators read in
  non local Contribution for L=           0  read in
    real space projection operators read in
  non local Contribution for L=           1  read in
    real space projection operators read in
  non local Contribution for L=           1  read in
    real space projection operators read in
    PAW grid and wavefunctions read in
 
   number of l-projection  operators is LMAX  =           4
   number of lm-projection operators is LMMAX =           8
 

 ----------------------------------------------------------------------------- 
|                                                                             |
|  ADVICE TO THIS USER RUNNING 'VASP/VAMP'   (HEAR YOUR MASTER'S VOICE ...):  |
|                                                                             |
|      You have a (more or less) 'large supercell' and for larger cells       |
|      it might be more efficient to use real space projection opertators     |
|      So try LREAL= Auto  in the INCAR   file.                               |
|      Mind:          For very  accurate calculation you might also keep the  |
|      reciprocal projection scheme          (i.e. LREAL=.FALSE.)             |
|                                                                             |
 ----------------------------------------------------------------------------- 

  PAW_PBE B 06Sep2000                   :
 energy of atom  1       EATOM=  -71.1703
 kinetic energy error for atom=    0.0009 (will be added to EATOM!!)
  PAW_PBE Si 05Jan2001                  :
 energy of atom  2       EATOM= -103.0669
 kinetic energy error for atom=    0.0004 (will be added to EATOM!!)
 
 
 POSCAR: Si53 B1                                 
  positions in direct lattice
  velocities in cartesian coordinates
 exchange correlation table for  LEXCH =        8
   RHO(1)=    0.500       N(1)  =     2000
   RHO(2)=  100.500       N(2)  =     4000
 


--------------------------------------------------------------------------------------------------------


 ion  position               nearest neighbor table
   1  0.292  0.292  0.292-  32 2.35  40 2.35  41 2.35  38 2.35
   2  0.292  0.292  0.625-  33 2.35  41 2.35  42 2.35  39 2.35
   3  0.292  0.292  0.958-  31 2.35  40 2.35  42 2.35  37 2.35
   4  0.292  0.625  0.292-  35 2.35  43 2.35  44 2.35  41 2.35
   5  0.292  0.625  0.625-  36 2.35  44 2.35  45 2.35  42 2.35
   6  0.292  0.625  0.958-  34 2.35  43 2.35  45 2.35  40 2.35
   7  0.292  0.958  0.292-  29 2.35  37 2.35  38 2.35  44 2.35
   8  0.292  0.958  0.625-  30 2.35  38 2.35  39 2.35  45 2.35
   9  0.292  0.958  0.958-  28 2.35  37 2.35  39 2.35  43 2.35
  10  0.625  0.292  0.292-  41 2.35  49 2.35  50 2.35  47 2.35
  11  0.625  0.292  0.625-  42 2.35  50 2.35  51 2.35  48 2.35
  12  0.625  0.292  0.958-  40 2.35  49 2.35  51 2.35  46 2.35
  13  0.625  0.625  0.292-  44 2.35  52 2.35  53 2.35  50 2.35
  14  0.625  0.625  0.625-  45 2.35  53 2.35  54 2.35  51 2.35
  15  0.625  0.625  0.958-  43 2.35  52 2.35  54 2.35  49 2.35
  16  0.625  0.958  0.292-  38 2.35  46 2.35  47 2.35  53 2.35
  17  0.625  0.958  0.625-  39 2.35  47 2.35  48 2.35  54 2.35
  18  0.625  0.958  0.958-  37 2.35  46 2.35  48 2.35  52 2.35
  19  0.958  0.292  0.292-  50 2.35  32 2.35  31 2.35  29 2.35
  20  0.958  0.292  0.625-  51 2.35  33 2.35  32 2.35  30 2.35
  21  0.958  0.292  0.958-  49 2.35  31 2.35  33 2.35  28 2.35
  22  0.958  0.625  0.292-  53 2.35  35 2.35  34 2.35  32 2.35
  23  0.958  0.625  0.625-  54 2.35  36 2.35  35 2.35  33 2.35
  24  0.958  0.625  0.958-  52 2.35  34 2.35  36 2.35  31 2.35
  25  0.958  0.958  0.292-  47 2.35  29 2.35  28 2.35  35 2.35
  26  0.958  0.958  0.625-  48 2.35  30 2.35  29 2.35  36 2.35
  27  0.958  0.958  0.958-  46 2.35  28 2.35  30 2.35  34 2.35
  28  0.042  0.042  0.042-   9 2.35  27 2.35  25 2.35  21 2.35
  29  0.042  0.042  0.375-   7 2.35  25 2.35  26 2.35  19 2.35
  30  0.042  0.042  0.708-   8 2.35  26 2.35  27 2.35  20 2.35
  31  0.042  0.375  0.042-   3 2.35  21 2.35  19 2.35  24 2.35
  32  0.042  0.375  0.375-   1 2.35  19 2.35  20 2.35  22 2.35
  33  0.042  0.375  0.708-   2 2.35  20 2.35  21 2.35  23 2.35
  34  0.042  0.708  0.042-   6 2.35  24 2.35  22 2.35  27 2.35
  35  0.042  0.708  0.375-   4 2.35  22 2.35  23 2.35  25 2.35
  36  0.042  0.708  0.708-   5 2.35  23 2.35  24 2.35  26 2.35
  37  0.375  0.042  0.042-  18 2.35   9 2.35   7 2.35   3 2.35
  38  0.375  0.042  0.375-  16 2.35   8 2.35   7 2.35   1 2.35
  39  0.375  0.042  0.708-  17 2.35   9 2.35   8 2.35   2 2.35
  40  0.375  0.375  0.042-  12 2.35   3 2.35   1 2.35   6 2.35
  41  0.375  0.375  0.375-  10 2.35   2 2.35   1 2.35   4 2.35
  42  0.375  0.375  0.708-  11 2.35   3 2.35   2 2.35   5 2.35
  43  0.375  0.708  0.042-  15 2.35   6 2.35   4 2.35   9 2.35
  44  0.375  0.708  0.375-  13 2.35   5 2.35   4 2.35   7 2.35
  45  0.375  0.708  0.708-  14 2.35   6 2.35   5 2.35   8 2.35
  46  0.708  0.042  0.042-  27 2.35  18 2.35  16 2.35  12 2.35
  47  0.708  0.042  0.375-  25 2.35  17 2.35  16 2.35  10 2.35
  48  0.708  0.042  0.708-  26 2.35  18 2.35  17 2.35  11 2.35
  49  0.708  0.375  0.042-  21 2.35  12 2.35  10 2.35  15 2.35
  50  0.708  0.375  0.375-  19 2.35  11 2.35  10 2.35  13 2.35
  51  0.708  0.375  0.708-  20 2.35  12 2.35  11 2.35  14 2.35
  52  0.708  0.708  0.042-  24 2.35  15 2.35  13 2.35  18 2.35
  53  0.708  0.708  0.375-  22 2.35  14 2.35  13 2.35  16 2.35
  54  0.708  0.708  0.708-  23 2.35  15 2.35  14 2.35  17 2.35
 
  LATTYP: Found a face centered cubic cell.
 ALAT       =    16.2915000202
  
  Lattice vectors:
  
 A1 = (   9.9764655300,   0.0000000000,   5.7599150700)
 A2 = (   3.3254885100,   9.4059019200,   5.7599150700)
 A3 = (   0.0000000000,   0.0000000000,  11.5198301400)


Analysis of symmetry for initial positions (statically):
=====================================================================
 Subroutine PRICEL returns:
 Original cell was already a primitive cell.
 

 Routine SETGRP: Setting up the symmetry group for a 
 face centered cubic supercell.


 Subroutine GETGRP returns: Found 24 space group operations
 (whereof  6 operations were pure point group operations)
 out of a pool of 48 trial point group operations.


The static configuration has the point symmetry C_3v.
 The point group associated with its full space group is T_d .


Analysis of symmetry for dynamics (positions and initial velocities):
=====================================================================
 Subroutine PRICEL returns:
 Original cell was already a primitive cell.
 

 Routine SETGRP: Setting up the symmetry group for a 
 face centered cubic supercell.


 Subroutine GETGRP returns: Found 24 space group operations
 (whereof  6 operations were pure point group operations)
 out of a pool of 48 trial point group operations.


The dynamic configuration has the point symmetry C_3v.
 The point group associated with its full space group is T_d .


 Subroutine INISYM returns: Found 24 space group operations
 (whereof  6 operations are pure point group operations),
 and found     1 'primitive' translations

 
 
 KPOINTS: Automatic kpoint scheme                 

Automatic generation of k-mesh.
Space group operators:
 irot       det(A)        alpha          n_x          n_y          n_z        tau_x        tau_y        tau_z
    1     1.000000     0.000000     1.000000     0.000000     0.000000     0.000000     0.000000     0.000000
    2     1.000000   120.000000    -0.471405    -0.333333    -0.816497     0.000000     0.000000     0.000000
    3     1.000000   120.000000     0.471405     0.333333     0.816497     0.000000     0.000000     0.000000
    4    -1.000000   180.000000     0.288675     0.816497    -0.500000     0.000000     0.000000     0.000000
    5    -1.000000   180.000000     0.577350    -0.816497     0.000000     0.000000     0.000000     0.000000
    6    -1.000000   180.000000     0.866025     0.000000    -0.500000     0.000000     0.000000     0.000000
    7    -1.000000    90.000000    -0.816497    -0.577350    -0.000000     0.166667     0.000000     0.000000
    8    -1.000000   180.000000     0.866025     0.000000     0.500000     0.166667     0.000000     0.000000
    9    -1.000000    90.000000     0.408248    -0.577350     0.707107     0.166667     0.000000     0.000000
   10     1.000000   180.000000     0.816497     0.577350     0.000000     0.000000     0.000000     0.166667
   11     1.000000   120.000000     0.942809    -0.333333     0.000000     0.000000     0.000000     0.166667
   12     1.000000   120.000000    -0.000000    -1.000000    -0.000000     0.000000     0.000000     0.166667
   13    -1.000000    90.000000     0.816497     0.577350    -0.000000     0.000000     0.166667    -0.000000
   14    -1.000000    90.000000     0.408248    -0.577350    -0.707107     0.000000     0.166667    -0.000000
   15    -1.000000   180.000000     0.288675     0.816497     0.500000     0.000000     0.166667    -0.000000
   16     1.000000   120.000000    -0.000000     1.000000    -0.000000     0.166667     0.000000     0.000000
   17     1.000000   120.000000     0.471405     0.333333    -0.816497     0.166667     0.000000     0.000000
   18     1.000000   180.000000    -0.408248     0.577350     0.707107     0.166667     0.000000     0.000000
   19    -1.000000    90.000000    -0.408248     0.577350    -0.707107     0.000000     0.000000     0.166667
   20    -1.000000   180.000000     0.000000    -0.000000     1.000000     0.000000     0.000000     0.166667
   21    -1.000000    90.000000    -0.408248     0.577350     0.707107     0.000000     0.000000     0.166667
   22     1.000000   120.000000    -0.942809     0.333333     0.000000     0.000000     0.166667    -0.000000
   23     1.000000   180.000000    -0.408248     0.577350    -0.707107     0.000000     0.166667    -0.000000
   24     1.000000   120.000000    -0.471405    -0.333333     0.816497     0.000000     0.166667    -0.000000
 
 Subroutine IBZKPT returns following result:
 ===========================================
 
 Found      8 irreducible k-points:
 
 Following reciprocal coordinates:
            Coordinates               Weight
  0.000000  0.000000  0.000000      1.000000
  0.250000  0.000000  0.000000      8.000000
  0.500000  0.000000  0.000000      4.000000
  0.250000  0.250000  0.000000      6.000000
  0.500000  0.250000  0.000000     24.000000
 -0.250000  0.250000  0.000000     12.000000
  0.500000  0.500000  0.000000      3.000000
 -0.250000  0.500000  0.250000      6.000000
 
 Following cartesian coordinates:
            Coordinates               Weight
  0.000000  0.000000  0.000000      1.000000
  0.025059 -0.008860  0.000000      8.000000
  0.050118 -0.017719  0.000000      4.000000
  0.025059  0.017719  0.000000      6.000000
  0.050118  0.008860  0.000000     24.000000
 -0.025059  0.035439  0.000000     12.000000
  0.050118  0.035439  0.000000      3.000000
 -0.037588  0.053158  0.021702      6.000000
 


--------------------------------------------------------------------------------------------------------




 Dimension of arrays:
   k-points           NKPTS =      8   k-points in BZ     NKDIM =      8   number of bands    NBANDS=    144
   number of dos      NEDOS =    301   number of ions     NIONS =     54
   non local maximal  LDIM  =      4   non local SUM 2l+1 LMDIM =      8
   total plane-waves  NPLWV = 343000
   max r-space proj   IRMAX =      1   max aug-charges    IRDMAX=  10807
   dimension x,y,z NGX =    70 NGY =   70 NGZ =   70
   dimension x,y,z NGXF=   140 NGYF=  140 NGZF=  140
   support grid    NGXF=   140 NGYF=  140 NGZF=  140
   ions per type =               1  53
   NGX,Y,Z   is equivalent  to a cutoff of  10.10, 10.10, 10.10 a.u.
   NGXF,Y,Z  is equivalent  to a cutoff of  20.20, 20.20, 20.20 a.u.

 SYSTEM =  Si                                      
 POSCAR =  Si53 B1                                 

 Startparameter for this run:
   NWRITE =      2    write-flag & timer
   PREC   = normal    normal or accurate (medium, high low for compatibility)
   ISTART =      1    job   : 0-new  1-cont  2-samecut
   ICHARG =      0    charge: 1-file 2-atom 10-const
   ISPIN  =      1    spin polarized calculation?
   LNONCOLLINEAR =      F non collinear calculations
   LSORBIT =      F    spin-orbit coupling
   INIWAV =      1    electr: 0-lowe 1-rand  2-diag
   LASPH  =      F    aspherical Exc in radial PAW
   METAGGA=      F    non-selfconsistent MetaGGA calc.

 Electronic Relaxation 1
   ENCUT  =  550.0 eV  40.42 Ry    6.36 a.u.  22.03 22.03 22.03*2*pi/ulx,y,z
   ENINI  =  550.0     initial cutoff
   ENAUG  =  535.5 eV  augmentation charge cutoff
   NELM   =    200;   NELMIN=  2; NELMDL=  0     # of ELM steps 
   EDIFF  = 0.1E-04   stopping-criterion for ELM
   LREAL  =      F    real-space projection
   NLSPLINE    = F    spline interpolate recip. space projectors
   LCOMPAT=      F    compatible to vasp.4.4
   GGA_COMPAT  = T    GGA compatible to vasp.4.4-vasp.4.6
   LMAXPAW     = -100 max onsite density
   LMAXMIX     =    2 max onsite mixed and CHGCAR
   VOSKOWN=      0    Vosko Wilk Nusair interpolation
   ROPT   =    0.00000   0.00000
 Ionic relaxation
   EDIFFG = -.5E-01   stopping-criterion for IOM
   NSW    =    100    number of steps for IOM
   NBLOCK =      1;   KBLOCK =    100    inner block; outer block 
   IBRION =      2    ionic relax: 0-MD 1-quasi-New 2-CG
   NFREE  =      1    steps in history (QN), initial steepest desc. (CG)
   ISIF   =      2    stress and relaxation
   IWAVPR =     11    prediction:  0-non 1-charg 2-wave 3-comb
   ISYM   =      2    0-nonsym 1-usesym 2-fastsym
   LCORR  =      T    Harris-Foulkes like correction to forces

   POTIM  = 0.5000    time-step for ionic-motion
   TEIN   =    0.0    initial temperature
   TEBEG  =    0.0;   TEEND  =   0.0 temperature during run
   SMASS  =  -3.00    Nose mass-parameter (am)
   estimated Nose-frequenzy (Omega)   =  0.10E-29 period in steps =****** mass=  -0.303E-26a.u.
   SCALEE = 1.0000    scale energy and forces
   NPACO  =    256;   APACO  = 16.0  distance and # of slots for P.C.
   PSTRESS=    0.0 pullay stress

  Mass of Ions in am
   POMASS =  10.81 28.09
  Ionic Valenz
   ZVAL   =   3.00  4.00
  Atomic Wigner-Seitz radii
   RWIGS  =  -1.00 -1.00
  virtual crystal weights 
   VCA    =   1.00  1.00
   NELECT =     216.0000    total number of electrons
   NUPDOWN=      -1.0000    fix difference up-down

 DOS related values:
   EMIN   =  10.00;   EMAX   =-10.00  energy-range for DOS
   EFERMI =   0.00
   ISMEAR =     0;   SIGMA  =   0.05  broadening in eV -4-tet -1-fermi 0-gaus

 Electronic relaxation 2 (details)
   IALGO  =     38    algorithm
   LDIAG  =      T    sub-space diagonalisation (order eigenvalues)
   LSUBROT=      F    optimize rotation matrix (better conditioning)
   TURBO    =      0    0=normal 1=particle mesh
   IRESTART =      0    0=no restart 2=restart with 2 vectors
   NREBOOT  =      0    no. of reboots
   NMIN     =      0    reboot dimension
   EREF     =   0.00    reference energy to select bands
   IMIX   =      4    mixing-type and parameters
     AMIX     =   0.20;   BMIX     =  1.00
     AMIX_MAG =   0.80;   BMIX_MAG =  1.00
     AMIN     =   0.10
     WC   =   100.;   INIMIX=   1;  MIXPRE=   1;  MAXMIX= -45

 Intra band minimization:
   WEIMIN = 0.0010     energy-eigenvalue tresh-hold
   EBREAK =  0.17E-07  absolut break condition
   DEPER  =   0.30     relativ break condition  

   TIME   =   0.40     timestep for ELM

  volume/ion in A,a.u.               =      20.02       135.09
  Fermi-wavevector in a.u.,A,eV,Ry     =   0.957088  1.808633 12.463162  0.916017
  Thomas-Fermi vector in A             =   2.086074
 
 Write flags
   LWAVE        =      T    write WAVECAR
   LDOWNSAMPLE  =      F    k-point downsampling of WAVECAR
   LCHARG       =      T    write CHGCAR
   LVTOT        =      F    write LOCPOT, total local potential
   LVHAR        =      F    write LOCPOT, Hartree potential only
   LELF         =      F    write electronic localiz. function (ELF)
   LORBIT       =     10    0 simple, 1 ext, 2 COOP (PROOUT), +10 PAW based schemes


 Dipole corrections
   LMONO  =      F    monopole corrections only (constant potential shift)
   LDIPOL =      F    correct potential (dipole corrections)
   IDIPOL =      0    1-x, 2-y, 3-z, 4-all directions 
   EPSILON=  1.0000000 bulk dielectric constant

 Exchange correlation treatment:
   GGA     =    --    GGA type
   LEXCH   =     8    internal setting for exchange type
   VOSKOWN=      0    Vosko Wilk Nusair interpolation
   LHFCALC =     F    Hartree Fock is set to
   LHFONE  =     F    Hartree Fock one center treatment
   AEXX    =    0.0000 exact exchange contribution

 Linear response parameters
   LEPSILON=     F    determine dielectric tensor
   LRPA    =     F    only Hartree local field effects (RPA)
   LNABLA  =     F    use nabla operator in PAW spheres
   LVEL    =     F    velocity operator in full k-point grid
   LINTERFAST=   F  fast interpolation
   KINTER  =     0    interpolate to denser k-point grid
   CSHIFT  =0.1000    complex shift for real part using Kramers Kronig
   OMEGAMAX=  -1.0    maximum frequency
   DEG_THRESHOLD= 0.2000000E-02 threshold for treating states as degnerate
   RTIME   =   -0.100 relaxation time in fs
  (WPLASMAI=    0.000 imaginary part of plasma frequency in eV, 0.658/RTIME)
   DFIELD  = 0.0000000 0.0000000 0.0000000 field for delta impulse in time
 
 Orbital magnetization related:
   ORBITALMAG=     F  switch on orbital magnetization
   LCHIMAG   =     F  perturbation theory with respect to B field
   DQ        =  0.001000  dq finite difference perturbation B field
   LLRAUG    =     F  two centre corrections for induced B field



--------------------------------------------------------------------------------------------------------


 conjugate gradient relaxation of ions
 charge density and potential will be updated during run
 non-spin polarized calculation
 Variant of blocked Davidson
 Davidson routine will perform the subspace rotation
 perform sub-space diagonalisation
    after iterative eigenvector-optimisation
 modified Broyden-mixing scheme, WC =      100.0
 initial mixing is a Kerker type mixing with AMIX =  0.2000 and BMIX =      1.0000
 Hartree-type preconditioning will be used
 using additional bands           36
 reciprocal scheme for non local part
 use partial core corrections
 calculate Harris-corrections to forces 
   (improved forces if not selfconsistent)
 use gradient corrections 
 use of overlap-Matrix (Vanderbilt PP)
 Gauss-broadening in eV      SIGMA  =   0.05


--------------------------------------------------------------------------------------------------------


  energy-cutoff  :      550.00
  volume of cell :     1080.99
      direct lattice vectors                 reciprocal lattice vectors
     9.976465530  0.000000000  5.759915070     0.100235900 -0.035438742  0.000000000
     3.325488510  9.405901920  5.759915070     0.000000000  0.106316227  0.000000000
     0.000000000  0.000000000 11.519830140    -0.050117950 -0.035438742  0.086806836

  length of vectors
    11.519830124 11.519830136 11.519830140     0.106316227  0.106316227  0.106316227


 
 old parameters found on file WAVECAR:
  energy-cutoff  :      550.00
  volume of cell :     1080.99
      direct lattice vectors                 reciprocal lattice vectors
     9.976465530  0.000000000  5.759915070     0.100235900 -0.035438742  0.000000000
     3.325488510  9.405901920  5.759915070     0.000000000  0.106316227  0.000000000
     0.000000000  0.000000000 11.519830140    -0.050117950 -0.035438742  0.086806836

  length of vectors

 
 k-points in units of 2pi/SCALE and weight: Automatic kpoint scheme                 
   0.00000000  0.00000000  0.00000000       0.016
   0.02505897 -0.00885969  0.00000000       0.125
   0.05011795 -0.01771937  0.00000000       0.062
   0.02505897  0.01771937  0.00000000       0.094
   0.05011795  0.00885969  0.00000000       0.375
  -0.02505897  0.03543874  0.00000000       0.188
   0.05011795  0.03543874  0.00000000       0.047
  -0.03758846  0.05315811  0.02170171       0.094
 
 k-points in reciprocal lattice and weights: Automatic kpoint scheme                 
   0.00000000  0.00000000  0.00000000       0.016
   0.25000000  0.00000000  0.00000000       0.125
   0.50000000  0.00000000  0.00000000       0.062
   0.25000000  0.25000000  0.00000000       0.094
   0.50000000  0.25000000  0.00000000       0.375
  -0.25000000  0.25000000  0.00000000       0.188
   0.50000000  0.50000000  0.00000000       0.047
  -0.25000000  0.50000000  0.25000000       0.094
 
 position of ions in fractional coordinates (direct lattice) 
   0.29166667  0.29166667  0.29166667
   0.29166667  0.29166667  0.62500000
   0.29166667  0.29166667  0.95833333
   0.29166667  0.62500000  0.29166667
   0.29166667  0.62500000  0.62500000
   0.29166667  0.62500000  0.95833333
   0.29166667  0.95833333  0.29166667
   0.29166667  0.95833333  0.62500000
   0.29166667  0.95833333  0.95833333
   0.62500000  0.29166667  0.29166667
   0.62500000  0.29166667  0.62500000
   0.62500000  0.29166667  0.95833333
   0.62500000  0.62500000  0.29166667
   0.62500000  0.62500000  0.62500000
   0.62500000  0.62500000  0.95833333
   0.62500000  0.95833333  0.29166667
   0.62500000  0.95833333  0.62500000
   0.62500000  0.95833333  0.95833333
   0.95833333  0.29166667  0.29166667
   0.95833333  0.29166667  0.62500000
   0.95833333  0.29166667  0.95833333
   0.95833333  0.62500000  0.29166667
   0.95833333  0.62500000  0.62500000
   0.95833333  0.62500000  0.95833333
   0.95833333  0.95833333  0.29166667
   0.95833333  0.95833333  0.62500000
   0.95833333  0.95833333  0.95833333
   0.04166667  0.04166667  0.04166667
   0.04166667  0.04166667  0.37500000
   0.04166667  0.04166667  0.70833333
   0.04166667  0.37500000  0.04166667
   0.04166667  0.37500000  0.37500000
   0.04166667  0.37500000  0.70833333
   0.04166667  0.70833333  0.04166667
   0.04166667  0.70833333  0.37500000
   0.04166667  0.70833333  0.70833333
   0.37500000  0.04166667  0.04166667
   0.37500000  0.04166667  0.37500000
   0.37500000  0.04166667  0.70833333
   0.37500000  0.37500000  0.04166667
   0.37500000  0.37500000  0.37500000
   0.37500000  0.37500000  0.70833333
   0.37500000  0.70833333  0.04166667
   0.37500000  0.70833333  0.37500000
   0.37500000  0.70833333  0.70833333
   0.70833333  0.04166667  0.04166667
   0.70833333  0.04166667  0.37500000
   0.70833333  0.04166667  0.70833333
   0.70833333  0.37500000  0.04166667
   0.70833333  0.37500000  0.37500000
   0.70833333  0.37500000  0.70833333
   0.70833333  0.70833333  0.04166667
   0.70833333  0.70833333  0.37500000
   0.70833333  0.70833333  0.70833333
 
 position of ions in cartesian coordinates  (Angst):
   3.87973659  2.74338806  6.71990091
   3.87973659  2.74338806 10.55984429
   3.87973659  2.74338806 14.39978767
   4.98823276  5.87868870  8.63987260
   4.98823276  5.87868870 12.47981598
   4.98823276  5.87868870 16.31975937
   6.09672893  9.01398934 10.55984429
   6.09672893  9.01398934 14.39978767
   6.09672893  9.01398934 18.23973106
   7.20522510  2.74338806  8.63987260
   7.20522510  2.74338806 12.47981598
   7.20522510  2.74338806 16.31975937
   8.31372128  5.87868870 10.55984429
   8.31372128  5.87868870 14.39978767
   8.31372128  5.87868870 18.23973106
   9.42221745  9.01398934 12.47981598
   9.42221745  9.01398934 16.31975937
   9.42221745  9.01398934 20.15970275
  10.53071362  2.74338806 10.55984429
  10.53071362  2.74338806 14.39978767
  10.53071362  2.74338806 18.23973106
  11.63920979  5.87868870 12.47981598
  11.63920979  5.87868870 16.31975937
  11.63920979  5.87868870 20.15970275
  12.74770596  9.01398934 14.39978767
  12.74770596  9.01398934 18.23973106
  12.74770596  9.01398934 22.07967444
   0.55424808  0.39191258  0.95998584
   0.55424808  0.39191258  4.79992922
   0.55424808  0.39191258  8.63987260
   1.66274425  3.52721322  2.87995753
   1.66274425  3.52721322  6.71990091
   1.66274425  3.52721322 10.55984430
   2.77124042  6.66251386  4.79992922
   2.77124042  6.66251386  8.63987261
   2.77124042  6.66251386 12.47981599
   3.87973659  0.39191258  2.87995753
   3.87973659  0.39191258  6.71990091
   3.87973659  0.39191258 10.55984430
   4.98823277  3.52721322  4.79992922
   4.98823277  3.52721322  8.63987261
   4.98823277  3.52721322 12.47981599
   6.09672894  6.66251386  6.71990091
   6.09672894  6.66251386 10.55984430
   6.09672894  6.66251386 14.39978768
   7.20522511  0.39191258  4.79992922
   7.20522511  0.39191258  8.63987261
   7.20522511  0.39191258 12.47981599
   8.31372128  3.52721322  6.71990091
   8.31372128  3.52721322 10.55984430
   8.31372128  3.52721322 14.39978768
   9.42221745  6.66251386  8.63987260
   9.42221745  6.66251386 12.47981599
   9.42221745  6.66251386 16.31975937
 


--------------------------------------------------------------------------------------------------------


 k-point  1 :   0.0000 0.0000 0.0000  plane waves:   31415
 k-point  2 :   0.2500 0.0000 0.0000  plane waves:   31608
 k-point  3 :   0.5000 0.0000 0.0000  plane waves:   31638
 k-point  4 :   0.2500 0.2500 0.0000  plane waves:   31695
 k-point  5 :   0.5000 0.2500 0.0000  plane waves:   31649
 k-point  6 :  -0.2500 0.2500 0.0000  plane waves:   31674
 k-point  7 :   0.5000 0.5000 0.0000  plane waves:   31716
 k-point  8 :  -0.2500 0.5000 0.2500  plane waves:   31684

 maximum and minimum number of plane-waves per node :     31716    31415

 maximum number of plane-waves:     31716
 maximum index in each direction: 
   IXMAX=   22   IYMAX=   22   IZMAX=   22
   IXMIN=  -22   IYMIN=  -22   IZMIN=  -22


 serial   3D FFT for wavefunctions
 parallel 3D FFT for charge:
    minimum data exchange during FFTs selected (reduces bandwidth)


 total amount of memory used by VASP MPI-rank0   140598. kBytes
=======================================================================

   base      :      30000. kBytes
   nonl-proj :      59902. kBytes
   fftplans  :       5382. kBytes
   grid      :      20451. kBytes
   one-center:        165. kBytes
   wavefun   :      24698. kBytes
 
     INWAV:  cpu time   10.2711: real time   10.4067
 Broyden mixing: mesh for mixing (old mesh)
   NGX = 45   NGY = 45   NGZ = 45
  (NGX  =140   NGY  =140   NGZ  =140)
  gives a total of  91125 points

 charge density for first step will be calculated from the start-wavefunctions


--------------------------------------------------------------------------------------------------------


 Maximum index for augmentation-charges          503 (set IRDMAX)


--------------------------------------------------------------------------------------------------------


 initial charge from wavefunction
 First call to EWALD:  gamma=   0.173
 Maximum number of real-space cells 3x 3x 3
 Maximum number of reciprocal cells 3x 3x 3

    FEWALD:  cpu time    0.0675: real time    0.0680


--------------------------------------- Iteration      1(   1)  ---------------------------------------


    POTLOK:  cpu time    0.0966: real time    0.1032
    SETDIJ:  cpu time    0.0065: real time    0.0067
     EDDAV:  cpu time    3.2375: real time    3.2749
       DOS:  cpu time    0.0167: real time    0.0179
    CHARGE:  cpu time    0.1705: real time    0.1716
    MIXING:  cpu time    0.0111: real time    0.0117
    --------------------------------------------
      LOOP:  cpu time    3.5389: real time    3.5860

 eigenvalue-minimisations  :  1728
 total energy-change (2. order) :-0.2863369E+03  (-0.2518943E-07)
 number of electron     215.9999999 magnetization 
 augmentation part      -12.2081082 magnetization 

 Broyden mixing:
  rms(total) = 0.46667E-04    rms(broyden)= 0.46667E-04
  rms(prec ) = 0.97650E-04
  weight for this iteration     100.00

 Free energy of the ion-electron system (eV)
  ---------------------------------------------------
  alpha Z        PSCENC =        93.27357238
  Ewald energy   TEWEN  =     -6115.53854741
  -Hartree energ DENC   =      -406.32733904
  -exchange      EXHF   =         0.00000000
  -V(xc)+E(xc)   XCENC  =      -467.65285899
  PAW double counting   =     23044.30477375   -22117.01064010
  entropy T*S    EENTRO =        -0.00000000
  eigenvalues    EBANDS =       148.92183963
  atomic energy  EATOM  =      5533.69225236
  Solvation  Ediel_sol  =         0.00000000
  ---------------------------------------------------
  free energy    TOTEN  =      -286.33694742 eV

  energy without entropy =     -286.33694742  energy(sigma->0) =     -286.33694742


--------------------------------------------------------------------------------------------------------




--------------------------------------- Iteration      1(   2)  ---------------------------------------


    POTLOK:  cpu time    0.1316: real time    0.1330
    SETDIJ:  cpu time    0.0216: real time    0.0218
     EDDAV:  cpu time    2.8975: real time    2.9242
       DOS:  cpu time    0.0071: real time    0.0072
    --------------------------------------------
      LOOP:  cpu time    3.0578: real time    3.0861

 eigenvalue-minimisations  :  1728
 total energy-change (2. order) :-0.5209586E-08  (-0.8559872E-08)
 number of electron     215.9999999 magnetization 
 augmentation part      -12.2081082 magnetization 

 Free energy of the ion-electron system (eV)
  ---------------------------------------------------
  alpha Z        PSCENC =        93.27357238
  Ewald energy   TEWEN  =     -6115.53854741
  -Hartree energ DENC   =      -406.32736192
  -exchange      EXHF   =         0.00000000
  -V(xc)+E(xc)   XCENC  =      -467.65285691
  PAW double counting   =     23044.31619822   -22117.02207209
  entropy T*S    EENTRO =        -0.00000000
  eigenvalues    EBANDS =       148.92186794
  atomic energy  EATOM  =      5533.69225236
  Solvation  Ediel_sol  =         0.00000000
  ---------------------------------------------------
  free energy    TOTEN  =      -286.33694743 eV

  energy without entropy =     -286.33694743  energy(sigma->0) =     -286.33694743


--------------------------------------------------------------------------------------------------------




 average (electrostatic) potential at core
  the test charge radii are     0.7672  0.9892
  (the norm of the test charge is              1.0000)
       1 -26.5802       2 -83.3075       3 -83.3075       4 -83.3075       5 -83.4411
       6 -83.3075       7 -83.3075       8 -83.3075       9 -83.4281      10 -83.3075
      11 -83.4411      12 -83.3075      13 -83.4411      14 -83.4411      15 -83.4754
      16 -83.3075      17 -83.4754      18 -83.4754      19 -83.3075      20 -83.3075
      21 -83.4281      22 -83.3075      23 -83.4754      24 -83.4754      25 -83.4281
      26 -83.4754      27 -83.4281      28 -83.4773      29 -83.4175      30 -83.4175
      31 -83.4175      32 -83.1061      33 -83.4175      34 -83.4175      35 -83.4175
      36 -83.4830      37 -83.4175      38 -83.1061      39 -83.4175      40 -83.1061
      41 -83.1061      42 -83.3539      43 -83.4175      44 -83.3539      45 -83.3539
      46 -83.4175      47 -83.4175      48 -83.4830      49 -83.4175      50 -83.3539
      51 -83.3539      52 -83.4830      53 -83.3539      54 -83.4830
 
 
 
 E-fermi :   6.0696     XC(G=0):  -9.4021     alpha+bet :-11.8640


 k-point     1 :       0.0000    0.0000    0.0000
  band No.  band energies     occupation 
      1      -6.2470      2.00000
      2      -4.9438      2.00000
      3      -4.9129      2.00000
      4      -4.9129      2.00000
      5      -4.9129      2.00000
      6      -4.8711      2.00000
      7      -4.8711      2.00000
      8      -4.8711      2.00000
      9      -4.7306      2.00000
     10      -4.3716      2.00000
     11      -4.3716      2.00000
     12      -4.3277      2.00000
     13      -4.3277      2.00000
     14      -4.3277      2.00000
     15      -4.0125      2.00000
     16      -3.0523      2.00000
     17      -3.0523      2.00000
     18      -3.0523      2.00000
     19      -3.0271      2.00000
     20      -3.0271      2.00000
     21      -2.9910      2.00000
     22      -2.9910      2.00000
     23      -2.9910      2.00000
     24      -2.8884      2.00000
     25      -2.8884      2.00000
     26      -2.8884      2.00000
     27      -2.3324      2.00000
     28      -1.1229      2.00000
     29      -1.1229      2.00000
     30      -1.1229      2.00000
     31      -1.0951      2.00000
     32      -1.0951      2.00000
     33      -1.0580      2.00000
     34      -1.0580      2.00000
     35      -1.0580      2.00000
     36      -0.9374      2.00000
     37      -0.9374      2.00000
     38      -0.9374      2.00000
     39      -0.5759      2.00000
     40       0.3430      2.00000
     41       0.3612      2.00000
     42       0.3612      2.00000
     43       0.3612      2.00000
     44       0.4110      2.00000
     45       0.4110      2.00000
     46       0.4110      2.00000
     47       0.4147      2.00000
     48       0.6863      2.00000
     49       0.6863      2.00000
     50       0.7659      2.00000
     51       0.7659      2.00000
     52       0.7659      2.00000
     53       1.1011      2.00000
     54       1.2364      2.00000
     55       1.2364      2.00000
     56       1.2364      2.00000
     57       1.2386      2.00000
     58       1.2386      2.00000
     59       1.2386      2.00000
     60       1.2756      2.00000
     61       1.3455      2.00000
     62       1.3455      2.00000
     63       1.5661      2.00000
     64       1.5661      2.00000
     65       1.5661      2.00000
     66       3.2532      2.00000
     67       3.2532      2.00000
     68       3.2532      2.00000
     69       3.2810      2.00000
     70       3.2810      2.00000
     71       3.2810      2.00000
     72       3.2842      2.00000
     73       3.2842      2.00000
     74       3.2842      2.00000
     75       3.3263      2.00000
     76       3.3263      2.00000
     77       3.3263      2.00000
     78       3.5682      2.00000
     79       3.5682      2.00000
     80       3.5682      2.00000
     81       3.5768      2.00000
     82       3.6018      2.00000
     83       3.6018      2.00000
     84       3.6257      2.00000
     85       3.6257      2.00000
     86       3.6257      2.00000
     87       3.8563      2.00000
     88       3.8563      2.00000
     89       3.8563      2.00000
     90       4.6597      2.00000
     91       4.6597      2.00000
     92       4.6597      2.00000
     93       4.6619      2.00000
     94       4.6619      2.00000
     95       4.6700      2.00000
     96       4.6700      2.00000
     97       4.6700      2.00000
     98       4.7354      2.00000
     99       4.7354      2.00000
    100       4.7472      2.00000
    101       4.7472      2.00000
    102       4.7472      2.00000
    103       5.0861      2.00000
    104       5.0861      2.00000
    105       5.0861      2.00000
    106       5.8329      2.00000
    107       5.8329      2.00000
    108       5.8329      2.00000
    109       6.4269      0.00000
    110       6.4325      0.00000
    111       6.4325      0.00000
    112       6.4493      0.00000
    113       6.4493      0.00000
    114       6.4493      0.00000
    115       7.2315      0.00000
    116       7.2396      0.00000
    117       7.2396      0.00000
    118       7.2396      0.00000
    119       7.2503      0.00000
    120       7.2503      0.00000
    121       7.2503      0.00000
    122       7.3048      0.00000
    123       7.3048      0.00000
    124       7.3048      0.00000
    125       7.3213      0.00000
    126       7.3213      0.00000
    127       7.4256      0.00000
    128       7.4256      0.00000
    129       7.4256      0.00000
    130       7.4394      0.00000
    131       7.5169      0.00000
    132       7.5770      0.00000
    133       7.5770      0.00000
    134       7.5770      0.00000
    135       7.7055      0.00000
    136       7.7884      0.00000
    137       7.7884      0.00000
    138       7.7884      0.00000
    139       7.8113      0.00000
    140       7.8113      0.00000
    141       8.2983      0.00000
    142       8.2983      0.00000
    143       8.2983      0.00000
    144       9.0756      0.00000

 k-point     2 :       0.2500    0.0000    0.0000
  band No.  band energies     occupation 
      1      -6.1584      2.00000
      2      -5.4514      2.00000
      3      -5.0190      2.00000
      4      -5.0190      2.00000
      5      -4.9994      2.00000
      6      -4.7485      2.00000
      7      -4.7485      2.00000
      8      -4.6946      2.00000
      9      -4.5846      2.00000
     10      -4.5846      2.00000
     11      -4.4247      2.00000
     12      -4.2308      2.00000
     13      -3.8230      2.00000
     14      -3.8230      2.00000
     15      -3.7085      2.00000
     16      -3.5903      2.00000
     17      -3.5903      2.00000
     18      -3.4496      2.00000
     19      -3.0333      2.00000
     20      -3.0333      2.00000
     21      -2.9859      2.00000
     22      -2.9360      2.00000
     23      -2.9360      2.00000
     24      -2.7734      2.00000
     25      -2.7087      2.00000
     26      -2.7087      2.00000
     27      -2.3089      2.00000
     28      -1.3505      2.00000
     29      -1.3505      2.00000
     30      -1.2553      2.00000
     31      -1.1433      2.00000
     32      -1.1433      2.00000
     33      -1.0970      2.00000
     34      -1.0432      2.00000
     35      -1.0432      2.00000
     36      -0.8948      2.00000
     37      -0.7145      2.00000
     38      -0.5699      2.00000
     39      -0.5699      2.00000
     40      -0.4140      2.00000
     41      -0.0975      2.00000
     42      -0.0975      2.00000
     43      -0.0880      2.00000
     44       0.0536      2.00000
     45       0.0536      2.00000
     46       0.3191      2.00000
     47       0.8621      2.00000
     48       0.8621      2.00000
     49       0.8906      2.00000
     50       1.2876      2.00000
     51       1.2876      2.00000
     52       1.3422      2.00000
     53       1.4135      2.00000
     54       1.4262      2.00000
     55       1.4262      2.00000
     56       1.4659      2.00000
     57       1.4783      2.00000
     58       1.4783      2.00000
     59       1.5274      2.00000
     60       1.6409      2.00000
     61       1.6409      2.00000
     62       1.7096      2.00000
     63       1.7918      2.00000
     64       1.7918      2.00000
     65       1.9918      2.00000
     66       2.8024      2.00000
     67       2.8024      2.00000
     68       2.8336      2.00000
     69       3.1237      2.00000
     70       3.1481      2.00000
     71       3.1481      2.00000
     72       3.2473      2.00000
     73       3.2473      2.00000
     74       3.2631      2.00000
     75       3.2737      2.00000
     76       3.2781      2.00000
     77       3.2781      2.00000
     78       3.3015      2.00000
     79       3.3360      2.00000
     80       3.3360      2.00000
     81       3.4460      2.00000
     82       3.4460      2.00000
     83       3.5660      2.00000
     84       3.5751      2.00000
     85       3.6521      2.00000
     86       3.6521      2.00000
     87       3.8611      2.00000
     88       3.8611      2.00000
     89       3.9791      2.00000
     90       4.0217      2.00000
     91       4.0603      2.00000
     92       4.0603      2.00000
     93       4.3843      2.00000
     94       4.4126      2.00000
     95       4.4126      2.00000
     96       4.4585      2.00000
     97       4.4585      2.00000
     98       4.5881      2.00000
     99       4.5881      2.00000
    100       4.5950      2.00000
    101       4.7167      2.00000
    102       4.8263      2.00000
    103       4.8263      2.00000
    104       5.0495      2.00000
    105       5.0932      2.00000
    106       5.0932      2.00000
    107       5.7003      2.00000
    108       5.7003      2.00000
    109       6.5933      0.00000
    110       6.6015      0.00000
    111       6.6015      0.00000
    112       6.8849      0.00000
    113       6.8849      0.00000
    114       6.8916      0.00000
    115       6.9898      0.00000
    116       7.0188      0.00000
    117       7.0188      0.00000
    118       7.3204      0.00000
    119       7.5502      0.00000
    120       7.5616      0.00000
    121       7.5616      0.00000
    122       7.6874      0.00000
    123       7.7447      0.00000
    124       7.7447      0.00000
    125       7.7821      0.00000
    126       7.8108      0.00000
    127       7.8314      0.00000
    128       7.8314      0.00000
    129       7.8825      0.00000
    130       7.8853      0.00000
    131       7.8853      0.00000
    132       7.9322      0.00000
    133       7.9453      0.00000
    134       7.9453      0.00000
    135       8.0443      0.00000
    136       8.1139      0.00000
    137       8.1139      0.00000
    138       8.3343      0.00000
    139       8.5002      0.00000
    140       8.5002      0.00000
    141       8.5008      0.00000
    142       8.5513      0.00000
    143       8.5513      0.00000
    144       8.9996      0.00000

 k-point     3 :       0.5000    0.0000    0.0000
  band No.  band energies     occupation 
      1      -5.9417      2.00000
      2      -5.8323      2.00000
      3      -5.0285      2.00000
      4      -5.0088      2.00000
      5      -5.0088      2.00000
      6      -4.9206      2.00000
      7      -4.9206      2.00000
      8      -4.7550      2.00000
      9      -4.1737      2.00000
     10      -4.1737      2.00000
     11      -4.1416      2.00000
     12      -4.1379      2.00000
     13      -4.1379      2.00000
     14      -4.0099      2.00000
     15      -3.8449      2.00000
     16      -3.2084      2.00000
     17      -3.2084      2.00000
     18      -3.2060      2.00000
     19      -3.1756      2.00000
     20      -3.1756      2.00000
     21      -3.0279      2.00000
     22      -3.0279      2.00000
     23      -3.0168      2.00000
     24      -2.9807      2.00000
     25      -2.9124      2.00000
     26      -2.9124      2.00000
     27      -2.3683      2.00000
     28      -1.2628      2.00000
     29      -1.1766      2.00000
     30      -1.1766      2.00000
     31      -1.1341      2.00000
     32      -1.0936      2.00000
     33      -1.0936      2.00000
     34      -1.0305      2.00000
     35      -0.8675      2.00000
     36      -0.8675      2.00000
     37      -0.8352      2.00000
     38      -0.8352      2.00000
     39      -0.7802      2.00000
     40      -0.6090      2.00000
     41      -0.3121      2.00000
     42      -0.3121      2.00000
     43      -0.2672      2.00000
     44      -0.1973      2.00000
     45      -0.1973      2.00000
     46       0.0982      2.00000
     47       1.2158      2.00000
     48       1.2460      2.00000
     49       1.2460      2.00000
     50       1.3330      2.00000
     51       1.3330      2.00000
     52       1.4443      2.00000
     53       1.6381      2.00000
     54       1.6682      2.00000
     55       1.6682      2.00000
     56       1.7017      2.00000
     57       1.8501      2.00000
     58       1.8501      2.00000
     59       2.0445      2.00000
     60       2.0643      2.00000
     61       2.0643      2.00000
     62       2.1533      2.00000
     63       2.1617      2.00000
     64       2.1617      2.00000
     65       2.6427      2.00000
     66       2.6427      2.00000
     67       2.6614      2.00000
     68       2.6614      2.00000
     69       2.6904      2.00000
     70       2.7029      2.00000
     71       2.9207      2.00000
     72       2.9207      2.00000
     73       2.9321      2.00000
     74       2.9963      2.00000
     75       2.9963      2.00000
     76       3.1003      2.00000
     77       3.1079      2.00000
     78       3.1079      2.00000
     79       3.1528      2.00000
     80       3.1791      2.00000
     81       3.2995      2.00000
     82       3.2995      2.00000
     83       3.3491      2.00000
     84       3.3877      2.00000
     85       3.6733      2.00000
     86       3.6733      2.00000
     87       3.6872      2.00000
     88       3.7766      2.00000
     89       3.7766      2.00000
     90       3.9372      2.00000
     91       3.9584      2.00000
     92       3.9750      2.00000
     93       3.9750      2.00000
     94       4.0351      2.00000
     95       4.0351      2.00000
     96       4.3126      2.00000
     97       4.3801      2.00000
     98       4.4014      2.00000
     99       4.4014      2.00000
    100       4.4438      2.00000
    101       4.4776      2.00000
    102       4.4776      2.00000
    103       4.7211      2.00000
    104       4.7211      2.00000
    105       5.2277      2.00000
    106       5.2277      2.00000
    107       5.5105      2.00000
    108       5.5105      2.00000
    109       6.7067      0.00000
    110       6.7067      0.00000
    111       6.7222      0.00000
    112       6.8144      0.00000
    113       6.8701      0.00000
    114       6.8701      0.00000
    115       7.2670      0.00000
    116       7.6536      0.00000
    117       7.6536      0.00000
    118       7.6731      0.00000
    119       7.6833      0.00000
    120       7.7021      0.00000
    121       7.7021      0.00000
    122       8.0203      0.00000
    123       8.0798      0.00000
    124       8.1353      0.00000
    125       8.1353      0.00000
    126       8.1545      0.00000
    127       8.2621      0.00000
    128       8.2813      0.00000
    129       8.2813      0.00000
    130       8.3949      0.00000
    131       8.4094      0.00000
    132       8.4094      0.00000
    133       8.4455      0.00000
    134       8.4641      0.00000
    135       8.4641      0.00000
    136       8.8768      0.00000
    137       8.8768      0.00000
    138       8.9371      0.00000
    139       8.9371      0.00000
    140       9.0174      0.00000
    141       9.0514      0.00000
    142       9.0517      0.00000
    143       9.0544      0.00000
    144       9.1276      0.00000

 k-point     4 :       0.2500    0.2500    0.0000
  band No.  band energies     occupation 
      1      -6.1285      2.00000
      2      -5.2527      2.00000
      3      -5.2271      2.00000
      4      -5.2081      2.00000
      5      -5.2081      2.00000
      6      -4.9957      2.00000
      7      -4.4067      2.00000
      8      -4.4063      2.00000
      9      -4.4063      2.00000
     10      -4.3793      2.00000
     11      -4.2734      2.00000
     12      -4.2189      2.00000
     13      -4.2189      2.00000
     14      -4.0014      2.00000
     15      -3.5423      2.00000
     16      -3.5150      2.00000
     17      -3.5150      2.00000
     18      -3.4529      2.00000
     19      -3.3252      2.00000
     20      -3.2038      2.00000
     21      -3.2038      2.00000
     22      -3.1756      2.00000
     23      -2.8767      2.00000
     24      -2.4765      2.00000
     25      -2.4377      2.00000
     26      -2.4377      2.00000
     27      -2.1816      2.00000
     28      -1.5616      2.00000
     29      -1.5234      2.00000
     30      -1.5234      2.00000
     31      -1.3995      2.00000
     32      -1.0813      2.00000
     33      -1.0813      2.00000
     34      -1.0732      2.00000
     35      -0.9900      2.00000
     36      -0.7171      2.00000
     37      -0.5235      2.00000
     38      -0.4857      2.00000
     39      -0.4857      2.00000
     40      -0.4161      2.00000
     41      -0.3570      2.00000
     42      -0.3356      2.00000
     43      -0.3356      2.00000
     44      -0.1149      2.00000
     45       0.5110      2.00000
     46       0.5710      2.00000
     47       0.5710      2.00000
     48       0.7337      2.00000
     49       1.2862      2.00000
     50       1.3150      2.00000
     51       1.3150      2.00000
     52       1.3987      2.00000
     53       1.4302      2.00000
     54       1.4330      2.00000
     55       1.4330      2.00000
     56       1.4596      2.00000
     57       1.5736      2.00000
     58       1.6027      2.00000
     59       1.6134      2.00000
     60       1.6134      2.00000
     61       1.8147      2.00000
     62       1.9184      2.00000
     63       1.9184      2.00000
     64       1.9234      2.00000
     65       2.3062      2.00000
     66       2.8366      2.00000
     67       2.8366      2.00000
     68       2.8391      2.00000
     69       2.8613      2.00000
     70       2.9334      2.00000
     71       2.9434      2.00000
     72       2.9434      2.00000
     73       3.0220      2.00000
     74       3.0371      2.00000
     75       3.0371      2.00000
     76       3.2874      2.00000
     77       3.3210      2.00000
     78       3.3210      2.00000
     79       3.3667      2.00000
     80       3.6312      2.00000
     81       3.6396      2.00000
     82       3.6396      2.00000
     83       3.6683      2.00000
     84       3.6933      2.00000
     85       3.6971      2.00000
     86       3.6971      2.00000
     87       3.7009      2.00000
     88       3.9267      2.00000
     89       3.9267      2.00000
     90       3.9992      2.00000
     91       4.0216      2.00000
     92       4.0216      2.00000
     93       4.0365      2.00000
     94       4.1404      2.00000
     95       4.1860      2.00000
     96       4.1860      2.00000
     97       4.2897      2.00000
     98       4.2974      2.00000
     99       4.4758      2.00000
    100       4.4758      2.00000
    101       4.5009      2.00000
    102       5.0118      2.00000
    103       5.0325      2.00000
    104       5.1053      2.00000
    105       5.1053      2.00000
    106       5.1561      2.00000
    107       5.4837      2.00000
    108       5.4837      2.00000
    109       6.2906      0.00000
    110       6.8216      0.00000
    111       6.8953      0.00000
    112       7.0902      0.00000
    113       7.0941      0.00000
    114       7.1046      0.00000
    115       7.1046      0.00000
    116       7.3839      0.00000
    117       7.3839      0.00000
    118       7.4253      0.00000
    119       7.4557      0.00000
    120       7.4863      0.00000
    121       7.4873      0.00000
    122       7.4873      0.00000
    123       7.5085      0.00000
    124       7.8418      0.00000
    125       7.8418      0.00000
    126       7.8429      0.00000
    127       7.8551      0.00000
    128       8.0040      0.00000
    129       8.1257      0.00000
    130       8.1257      0.00000
    131       8.1419      0.00000
    132       8.1454      0.00000
    133       8.1574      0.00000
    134       8.1647      0.00000
    135       8.1647      0.00000
    136       8.2805      0.00000
    137       8.3300      0.00000
    138       8.3478      0.00000
    139       8.3478      0.00000
    140       8.3543      0.00000
    141       8.8315      0.00000
    142       8.8315      0.00000
    143       8.8597      0.00000
    144       8.9940      0.00000

 k-point     5 :       0.5000    0.2500    0.0000
  band No.  band energies     occupation 
      1      -5.9285      2.00000
      2      -5.6790      2.00000
      3      -5.4465      2.00000
      4      -5.2288      2.00000
      5      -5.1500      2.00000
      6      -4.7511      2.00000
      7      -4.5383      2.00000
      8      -4.5268      2.00000
      9      -4.3075      2.00000
     10      -4.1438      2.00000
     11      -4.1013      2.00000
     12      -4.0271      2.00000
     13      -3.9648      2.00000
     14      -3.8698      2.00000
     15      -3.6448      2.00000
     16      -3.6425      2.00000
     17      -3.5928      2.00000
     18      -3.4785      2.00000
     19      -3.4255      2.00000
     20      -3.3890      2.00000
     21      -3.3189      2.00000
     22      -3.0140      2.00000
     23      -2.6900      2.00000
     24      -2.6174      2.00000
     25      -2.5469      2.00000
     26      -2.4943      2.00000
     27      -2.2123      2.00000
     28      -1.4673      2.00000
     29      -1.4615      2.00000
     30      -1.4213      2.00000
     31      -1.4103      2.00000
     32      -1.2942      2.00000
     33      -1.1104      2.00000
     34      -1.0173      2.00000
     35      -1.0139      2.00000
     36      -0.9564      2.00000
     37      -0.7094      2.00000
     38      -0.6500      2.00000
     39      -0.6134      2.00000
     40      -0.6097      2.00000
     41      -0.5139      2.00000
     42      -0.3001      2.00000
     43      -0.1452      2.00000
     44       0.0761      2.00000
     45       0.0779      2.00000
     46       0.2236      2.00000
     47       0.7646      2.00000
     48       0.8321      2.00000
     49       0.9366      2.00000
     50       1.6149      2.00000
     51       1.6262      2.00000
     52       1.7257      2.00000
     53       1.7422      2.00000
     54       1.8396      2.00000
     55       1.8437      2.00000
     56       1.9704      2.00000
     57       1.9833      2.00000
     58       2.1353      2.00000
     59       2.1735      2.00000
     60       2.2323      2.00000
     61       2.2526      2.00000
     62       2.2594      2.00000
     63       2.3171      2.00000
     64       2.3349      2.00000
     65       2.4342      2.00000
     66       2.4730      2.00000
     67       2.5395      2.00000
     68       2.6486      2.00000
     69       2.6957      2.00000
     70       2.7296      2.00000
     71       2.7428      2.00000
     72       2.8129      2.00000
     73       2.8315      2.00000
     74       2.8420      2.00000
     75       2.9444      2.00000
     76       2.9478      2.00000
     77       3.0681      2.00000
     78       3.0995      2.00000
     79       3.1004      2.00000
     80       3.1605      2.00000
     81       3.1792      2.00000
     82       3.2090      2.00000
     83       3.4015      2.00000
     84       3.5204      2.00000
     85       3.5492      2.00000
     86       3.5739      2.00000
     87       3.5925      2.00000
     88       3.6493      2.00000
     89       3.7926      2.00000
     90       3.8113      2.00000
     91       3.9019      2.00000
     92       3.9268      2.00000
     93       4.0015      2.00000
     94       4.0629      2.00000
     95       4.0994      2.00000
     96       4.1047      2.00000
     97       4.1689      2.00000
     98       4.2244      2.00000
     99       4.2596      2.00000
    100       4.2786      2.00000
    101       4.4522      2.00000
    102       4.5559      2.00000
    103       4.7275      2.00000
    104       4.8031      2.00000
    105       4.8969      2.00000
    106       5.0471      2.00000
    107       5.2805      2.00000
    108       5.5016      2.00000
    109       6.4890      0.00000
    110       7.0541      0.00000
    111       7.2100      0.00000
    112       7.2149      0.00000
    113       7.2290      0.00000
    114       7.4384      0.00000
    115       7.4635      0.00000
    116       7.4643      0.00000
    117       7.7097      0.00000
    118       7.7665      0.00000
    119       7.8435      0.00000
    120       7.8503      0.00000
    121       7.9329      0.00000
    122       8.0398      0.00000
    123       8.0587      0.00000
    124       8.1146      0.00000
    125       8.2810      0.00000
    126       8.3091      0.00000
    127       8.3345      0.00000
    128       8.3348      0.00000
    129       8.3790      0.00000
    130       8.4050      0.00000
    131       8.4422      0.00000
    132       8.5683      0.00000
    133       8.6628      0.00000
    134       8.6645      0.00000
    135       8.7067      0.00000
    136       8.7110      0.00000
    137       8.7825      0.00000
    138       8.7938      0.00000
    139       8.8775      0.00000
    140       8.9100      0.00000
    141       8.9351      0.00000
    142       8.9467      0.00000
    143       8.9701      0.00000
    144       8.9819      0.00000

 k-point     6 :      -0.2500    0.2500    0.0000
  band No.  band energies     occupation 
      1      -6.0133      2.00000
      2      -5.5617      2.00000
      3      -5.5034      2.00000
      4      -5.0779      2.00000
      5      -5.0178      2.00000
      6      -4.6875      2.00000
      7      -4.6700      2.00000
      8      -4.6223      2.00000
      9      -4.5110      2.00000
     10      -4.2354      2.00000
     11      -4.1496      2.00000
     12      -4.1201      2.00000
     13      -4.0103      2.00000
     14      -3.8824      2.00000
     15      -3.5852      2.00000
     16      -3.5620      2.00000
     17      -3.5225      2.00000
     18      -3.4127      2.00000
     19      -3.2403      2.00000
     20      -3.1933      2.00000
     21      -3.0749      2.00000
     22      -3.0313      2.00000
     23      -3.0276      2.00000
     24      -2.8213      2.00000
     25      -2.7280      2.00000
     26      -2.4821      2.00000
     27      -2.1484      2.00000
     28      -1.7865      2.00000
     29      -1.2133      2.00000
     30      -1.1607      2.00000
     31      -1.0787      2.00000
     32      -1.0530      2.00000
     33      -1.0266      2.00000
     34      -1.0192      2.00000
     35      -0.9551      2.00000
     36      -0.8891      2.00000
     37      -0.8831      2.00000
     38      -0.8412      2.00000
     39      -0.8271      2.00000
     40      -0.6891      2.00000
     41      -0.6771      2.00000
     42      -0.3887      2.00000
     43       0.2132      2.00000
     44       0.2769      2.00000
     45       0.3225      2.00000
     46       0.4324      2.00000
     47       0.4908      2.00000
     48       0.5082      2.00000
     49       0.6996      2.00000
     50       1.4978      2.00000
     51       1.5021      2.00000
     52       1.7162      2.00000
     53       1.7216      2.00000
     54       1.7542      2.00000
     55       1.7575      2.00000
     56       1.8506      2.00000
     57       1.8822      2.00000
     58       1.9113      2.00000
     59       1.9839      2.00000
     60       2.1180      2.00000
     61       2.1296      2.00000
     62       2.1559      2.00000
     63       2.1785      2.00000
     64       2.3356      2.00000
     65       2.4199      2.00000
     66       2.5786      2.00000
     67       2.5880      2.00000
     68       2.6199      2.00000
     69       2.6307      2.00000
     70       2.7223      2.00000
     71       2.7836      2.00000
     72       2.7875      2.00000
     73       2.8746      2.00000
     74       3.0433      2.00000
     75       3.0689      2.00000
     76       3.1110      2.00000
     77       3.1257      2.00000
     78       3.1430      2.00000
     79       3.2397      2.00000
     80       3.2526      2.00000
     81       3.2942      2.00000
     82       3.3975      2.00000
     83       3.4040      2.00000
     84       3.4463      2.00000
     85       3.5443      2.00000
     86       3.5642      2.00000
     87       3.7336      2.00000
     88       3.7556      2.00000
     89       3.7784      2.00000
     90       3.7830      2.00000
     91       3.8897      2.00000
     92       3.9354      2.00000
     93       4.0779      2.00000
     94       4.1469      2.00000
     95       4.2651      2.00000
     96       4.3644      2.00000
     97       4.3800      2.00000
     98       4.4451      2.00000
     99       4.4544      2.00000
    100       4.4702      2.00000
    101       4.5107      2.00000
    102       4.5428      2.00000
    103       4.6204      2.00000
    104       4.7673      2.00000
    105       4.9128      2.00000
    106       4.9400      2.00000
    107       5.1484      2.00000
    108       5.7095      2.00000
    109       6.6401      0.00000
    110       6.9301      0.00000
    111       6.9431      0.00000
    112       7.1165      0.00000
    113       7.1983      0.00000
    114       7.4196      0.00000
    115       7.4241      0.00000
    116       7.4651      0.00000
    117       7.4731      0.00000
    118       7.6001      0.00000
    119       7.6010      0.00000
    120       7.6454      0.00000
    121       7.6864      0.00000
    122       7.8009      0.00000
    123       7.8128      0.00000
    124       8.0999      0.00000
    125       8.1407      0.00000
    126       8.2444      0.00000
    127       8.2804      0.00000
    128       8.2938      0.00000
    129       8.2964      0.00000
    130       8.3028      0.00000
    131       8.3194      0.00000
    132       8.3947      0.00000
    133       8.4005      0.00000
    134       8.4356      0.00000
    135       8.4397      0.00000
    136       8.6317      0.00000
    137       8.6640      0.00000
    138       8.6731      0.00000
    139       8.9039      0.00000
    140       8.9081      0.00000
    141       8.9300      0.00000
    142       8.9466      0.00000
    143       9.0124      0.00000
    144       9.0617      0.00000

 k-point     7 :       0.5000    0.5000    0.0000
  band No.  band energies     occupation 
      1      -5.7938      2.00000
      2      -5.7623      2.00000
      3      -5.3404      2.00000
      4      -5.3159      2.00000
      5      -5.3159      2.00000
      6      -5.1404      2.00000
      7      -4.0314      2.00000
      8      -4.0161      2.00000
      9      -4.0153      2.00000
     10      -4.0153      2.00000
     11      -3.9551      2.00000
     12      -3.9298      2.00000
     13      -3.9298      2.00000
     14      -3.9129      2.00000
     15      -3.8204      2.00000
     16      -3.8012      2.00000
     17      -3.8012      2.00000
     18      -3.7906      2.00000
     19      -3.6931      2.00000
     20      -3.6931      2.00000
     21      -3.6668      2.00000
     22      -3.1142      2.00000
     23      -2.1083      2.00000
     24      -2.1060      2.00000
     25      -2.0236      2.00000
     26      -2.0102      2.00000
     27      -2.0102      2.00000
     28      -1.9867      2.00000
     29      -1.9373      2.00000
     30      -1.9243      2.00000
     31      -1.9243      2.00000
     32      -1.5730      2.00000
     33      -0.9469      2.00000
     34      -0.9469      2.00000
     35      -0.9399      2.00000
     36      -0.9150      2.00000
     37      -0.8005      2.00000
     38      -0.8005      2.00000
     39      -0.7900      2.00000
     40      -0.6477      2.00000
     41       0.0203      2.00000
     42       0.0349      2.00000
     43       0.0349      2.00000
     44       0.0585      2.00000
     45       0.0818      2.00000
     46       0.1945      2.00000
     47       0.1945      2.00000
     48       0.5066      2.00000
     49       1.9583      2.00000
     50       1.9809      2.00000
     51       1.9809      2.00000
     52       2.0236      2.00000
     53       2.0243      2.00000
     54       2.0243      2.00000
     55       2.0341      2.00000
     56       2.0361      2.00000
     57       2.0364      2.00000
     58       2.0364      2.00000
     59       2.0369      2.00000
     60       2.0708      2.00000
     61       2.1295      2.00000
     62       2.1381      2.00000
     63       2.1396      2.00000
     64       2.1396      2.00000
     65       2.1706      2.00000
     66       2.3389      2.00000
     67       2.3389      2.00000
     68       2.3792      2.00000
     69       2.8444      2.00000
     70       2.8444      2.00000
     71       2.9103      2.00000
     72       2.9237      2.00000
     73       2.9378      2.00000
     74       2.9378      2.00000
     75       2.9849      2.00000
     76       2.9974      2.00000
     77       2.9974      2.00000
     78       3.0246      2.00000
     79       3.2625      2.00000
     80       3.2809      2.00000
     81       3.2809      2.00000
     82       3.2924      2.00000
     83       3.3527      2.00000
     84       3.3799      2.00000
     85       3.3873      2.00000
     86       3.3873      2.00000
     87       3.4803      2.00000
     88       3.5872      2.00000
     89       3.5882      2.00000
     90       3.5882      2.00000
     91       3.6984      2.00000
     92       3.8818      2.00000
     93       3.8818      2.00000
     94       3.8887      2.00000
     95       3.8973      2.00000
     96       3.9529      2.00000
     97       3.9595      2.00000
     98       4.1456      2.00000
     99       4.1456      2.00000
    100       4.2348      2.00000
    101       4.5291      2.00000
    102       4.5291      2.00000
    103       4.6408      2.00000
    104       4.6408      2.00000
    105       5.1277      2.00000
    106       5.1539      2.00000
    107       5.3774      2.00000
    108       5.3774      2.00000
    109       6.4240      0.00000
    110       6.4319      0.00000
    111       7.3843      0.00000
    112       7.4143      0.00000
    113       7.6984      0.00000
    114       7.7036      0.00000
    115       7.7036      0.00000
    116       7.7062      0.00000
    117       7.7591      0.00000
    118       7.7591      0.00000
    119       7.9022      0.00000
    120       7.9873      0.00000
    121       8.4218      0.00000
    122       8.4218      0.00000
    123       8.4279      0.00000
    124       8.4288      0.00000
    125       8.4288      0.00000
    126       8.4365      0.00000
    127       8.4380      0.00000
    128       8.4384      0.00000
    129       8.5436      0.00000
    130       8.5528      0.00000
    131       8.5614      0.00000
    132       8.5614      0.00000
    133       8.5999      0.00000
    134       8.6386      0.00000
    135       8.6739      0.00000
    136       8.6739      0.00000
    137       8.7410      0.00000
    138       8.7410      0.00000
    139       8.7665      0.00000
    140       8.9179      0.00000
    141       9.2499      0.00000
    142       9.2629      0.00000
    143       9.2759      0.00000
    144       9.2759      0.00000

 k-point     8 :      -0.2500    0.5000    0.2500
  band No.  band energies     occupation 
      1      -5.7248      2.00000
      2      -5.6893      2.00000
      3      -5.6634      2.00000
      4      -5.4954      2.00000
      5      -4.7672      2.00000
      6      -4.7540      2.00000
      7      -4.7155      2.00000
      8      -4.6364      2.00000
      9      -3.9683      2.00000
     10      -3.9483      2.00000
     11      -3.9473      2.00000
     12      -3.9408      2.00000
     13      -3.8940      2.00000
     14      -3.8778      2.00000
     15      -3.8285      2.00000
     16      -3.8073      2.00000
     17      -3.6826      2.00000
     18      -3.6791      2.00000
     19      -3.6354      2.00000
     20      -3.3841      2.00000
     21      -3.0595      2.00000
     22      -3.0200      2.00000
     23      -2.9599      2.00000
     24      -2.7211      2.00000
     25      -2.0879      2.00000
     26      -2.0844      2.00000
     27      -2.0182      2.00000
     28      -2.0112      2.00000
     29      -1.9012      2.00000
     30      -1.7267      2.00000
     31      -1.1499      2.00000
     32      -1.1383      2.00000
     33      -1.1353      2.00000
     34      -1.1351      2.00000
     35      -0.9592      2.00000
     36      -0.8821      2.00000
     37      -0.8613      2.00000
     38      -0.7537      2.00000
     39      -0.3632      2.00000
     40      -0.3512      2.00000
     41      -0.3436      2.00000
     42      -0.3310      2.00000
     43      -0.2542      2.00000
     44      -0.2073      2.00000
     45      -0.1799      2.00000
     46       0.0974      2.00000
     47       1.0120      2.00000
     48       1.0628      2.00000
     49       1.0743      2.00000
     50       1.1727      2.00000
     51       1.8565      2.00000
     52       1.8592      2.00000
     53       1.8737      2.00000
     54       1.9193      2.00000
     55       1.9476      2.00000
     56       2.1078      2.00000
     57       2.4232      2.00000
     58       2.4268      2.00000
     59       2.4333      2.00000
     60       2.4343      2.00000
     61       2.4834      2.00000
     62       2.4855      2.00000
     63       2.4870      2.00000
     64       2.4887      2.00000
     65       2.4981      2.00000
     66       2.5229      2.00000
     67       2.5385      2.00000
     68       2.5418      2.00000
     69       2.5546      2.00000
     70       2.5898      2.00000
     71       2.6070      2.00000
     72       2.6141      2.00000
     73       2.6168      2.00000
     74       2.6369      2.00000
     75       2.7797      2.00000
     76       2.8473      2.00000
     77       3.0000      2.00000
     78       3.0267      2.00000
     79       3.0433      2.00000
     80       3.0596      2.00000
     81       3.1367      2.00000
     82       3.1618      2.00000
     83       3.1847      2.00000
     84       3.3114      2.00000
     85       3.5476      2.00000
     86       3.5532      2.00000
     87       3.5718      2.00000
     88       3.5921      2.00000
     89       3.6194      2.00000
     90       3.6463      2.00000
     91       3.7103      2.00000
[...]
   50        0.752   0.933   0.000   1.685
   51        0.752   0.934   0.000   1.685
   52        0.752   0.942   0.000   1.695
   53        0.752   0.933   0.000   1.685
   54        0.752   0.942   0.000   1.695
--------------------------------------------------
tot         40.524  50.749   0.000  91.273
 
    CHARGE:  cpu time    0.1595: real time    0.1609
    FORLOC:  cpu time    0.0334: real time    0.0336
    FORNL :  cpu time    1.5377: real time    1.5493
    STRESS:  cpu time    5.7744: real time    5.8254
    FORCOR:  cpu time    0.1012: real time    0.1020
    FORHAR:  cpu time    0.0461: real time    0.0464
    MIXING:  cpu time    0.0109: real time    0.0109
    OFIELD:  cpu time    0.0001: real time    0.0001

  FORCE on cell =-STRESS in cart. coord.  units (eV):
  Direction    XX          YY          ZZ          XY          YZ          ZX
  --------------------------------------------------------------------------------------
  Alpha Z    93.27357    93.27357    93.27357
  Ewald   -2038.91532 -2038.91532 -2038.91532    -0.00000    -0.00000    -0.00000
  Hartree   136.51713   136.51713   136.51713    -0.00000     0.00000     0.00000
  E(xc)    -682.66394  -682.66394  -682.66396    -0.00001    -0.00001    -0.00001
  Local    -781.72467  -781.72477  -781.72428     0.00014     0.00024     0.00034
  n-local  2045.00402  2061.52696  2076.01878    -2.32422    -0.95801     0.67743
  augment  -309.29923  -309.29913  -309.29963    -0.00014    -0.00025    -0.00035
  Kinetic  1509.36945  1535.48561  1558.50930    -1.65475    -1.36066     0.96213
  Fock        0.00000     0.00000     0.00000     0.00000     0.00000     0.00000
  -------------------------------------------------------------------------------------
  Total      12.49224    12.49224    12.49224     0.00000    -0.00000     0.00000
  in kB      18.51516    18.51516    18.51516     0.00000    -0.00000     0.00000
  external pressure =       18.52 kB  Pullay stress =        0.00 kB


 VOLUME and BASIS-vectors are now :
 -----------------------------------------------------------------------------
  energy-cutoff  :      550.00
  volume of cell :     1080.99
      direct lattice vectors                 reciprocal lattice vectors
     9.976465530  0.000000000  5.759915070     0.100235900 -0.035438742  0.000000000
     3.325488510  9.405901920  5.759915070     0.000000000  0.106316227  0.000000000
     0.000000000  0.000000000 11.519830140    -0.050117950 -0.035438742  0.086806836

  length of vectors
    11.519830124 11.519830136 11.519830140     0.106316227  0.106316227  0.106316227


 FORCES acting on ions
    electron-ion (+dipol)            ewald-force                    non-local-force                 convergence-correction
 -----------------------------------------------------------------------------------------------
   -.180E-06 -.704E-07 -.254E-06   0.119E-06 -.630E-07 0.716E-11   -.434E-18 -.520E-17 -.113E-16   -.348E-07 -.246E-07 -.603E-07
   -.400E+01 -.283E+01 -.400E+01   0.358E+01 0.253E+01 0.348E+01   0.427E+00 0.302E+00 0.518E+00   -.126E-02 -.888E-03 -.329E-02
   -.400E+01 -.283E+01 0.400E+01   0.358E+01 0.253E+01 -.348E+01   0.427E+00 0.302E+00 -.518E+00   -.126E-02 -.888E-03 0.329E-02
   -.316E+01 -.438E+00 -.547E+01   0.280E+01 0.312E+00 0.484E+01   0.363E+00 0.121E+00 0.629E+00   -.158E-02 -.180E-02 -.273E-02
   -.669E+00 0.236E+00 0.154E-05   0.791E+00 -.280E+00 0.275E-12   -.101E+00 0.357E-01 0.121E-16   -.908E-02 0.321E-02 0.250E-07
   -.316E+01 -.438E+00 0.547E+01   0.280E+01 0.312E+00 -.484E+01   0.363E+00 0.121E+00 -.629E+00   -.158E-02 -.180E-02 0.273E-02
   -.846E+00 0.610E+01 -.147E+01   0.785E+00 -.538E+01 0.136E+01   0.640E-01 -.725E+00 0.111E+00   0.322E-03 0.358E-02 0.558E-03
   -.846E+00 0.610E+01 0.147E+01   0.785E+00 -.538E+01 -.136E+01   0.640E-01 -.725E+00 -.111E+00   0.322E-03 0.358E-02 -.558E-03
   -.362E+00 0.128E+00 0.413E-07   0.458E+00 -.162E+00 -.409E-11   -.940E-01 0.332E-01 -.312E-16   -.558E-02 0.197E-02 -.155E-07
   -.147E+01 -.283E+01 -.547E+01   0.123E+01 0.253E+01 0.484E+01   0.235E+00 0.302E+00 0.629E+00   -.222E-02 -.888E-03 -.273E-02
   0.810E-06 -.709E+00 0.154E-05   0.117E-06 0.839E+00 0.297E-12   0.607E-17 -.107E+00 -.104E-16   0.145E-07 -.963E-02 0.250E-07
   -.147E+01 -.283E+01 0.547E+01   0.123E+01 0.253E+01 -.484E+01   0.235E+00 0.302E+00 -.629E+00   -.222E-02 -.888E-03 0.273E-02
   0.334E+00 0.236E+00 -.579E+00   -.395E+00 -.280E+00 0.685E+00   0.505E-01 0.357E-01 -.874E-01   0.454E-02 0.321E-02 -.786E-02
   0.334E+00 0.236E+00 0.579E+00   -.395E+00 -.280E+00 -.685E+00   0.505E-01 0.357E-01 0.874E-01   0.454E-02 0.321E-02 0.786E-02
   -.691E+00 -.488E+00 0.426E-06   0.608E+00 0.430E+00 0.461E-11   0.788E-01 0.557E-01 -.382E-16   0.127E-02 0.901E-03 0.849E-08
   0.169E+01 0.610E+01 -.178E-05   -.157E+01 -.538E+01 0.782E-11   -.128E+00 -.725E+00 -.165E-16   -.644E-03 0.358E-02 -.355E-07
   -.345E+00 0.488E+00 -.598E+00   0.304E+00 -.430E+00 0.527E+00   0.394E-01 -.557E-01 0.682E-01   0.637E-03 -.901E-03 0.110E-02
   -.345E+00 0.488E+00 0.598E+00   0.304E+00 -.430E+00 -.527E+00   0.394E-01 -.557E-01 -.682E-01   0.637E-03 -.901E-03 -.110E-02
   0.547E+01 -.283E+01 -.147E+01   -.481E+01 0.253E+01 0.136E+01   -.663E+00 0.302E+00 0.111E+00   0.348E-02 -.888E-03 0.558E-03
   0.547E+01 -.283E+01 0.147E+01   -.481E+01 0.253E+01 -.136E+01   -.663E+00 0.302E+00 -.111E+00   0.348E-02 -.888E-03 -.558E-03
   -.583E-07 -.384E+00 0.413E-07   0.128E-06 0.486E+00 -.409E-11   0.130E-16 -.997E-01 -.330E-16   -.901E-08 -.592E-02 -.155E-07
   0.632E+01 -.438E+00 -.178E-05   -.559E+01 0.312E+00 0.783E-11   -.727E+00 0.121E+00 -.867E-17   0.316E-02 -.180E-02 -.355E-07
   0.345E+00 -.488E+00 -.598E+00   -.304E+00 0.430E+00 0.527E+00   -.394E-01 0.557E-01 0.682E-01   -.637E-03 0.901E-03 0.110E-02
   0.345E+00 -.488E+00 0.598E+00   -.304E+00 0.430E+00 -.527E+00   -.394E-01 0.557E-01 -.682E-01   -.637E-03 0.901E-03 -.110E-02
   0.181E+00 0.128E+00 -.314E+00   -.229E+00 -.162E+00 0.397E+00   0.470E-01 0.332E-01 -.814E-01   0.279E-02 0.197E-02 -.484E-02
   0.691E+00 0.488E+00 0.760E-06   -.608E+00 -.430E+00 0.180E-11   -.788E-01 -.557E-01 -.538E-16   -.127E-02 -.901E-03 0.292E-07
   0.181E+00 0.128E+00 0.314E+00   -.229E+00 -.162E+00 -.397E+00   0.470E-01 0.332E-01 0.814E-01   0.279E-02 0.197E-02 0.484E-02
   0.578E-06 0.328E-06 0.896E-06   -.115E-06 0.612E-07 0.513E-11   0.867E-17 -.347E-17 -.382E-16   -.194E-07 -.137E-07 -.335E-07
   0.199E+01 0.141E+01 0.131E+01   -.177E+01 -.125E+01 -.128E+01   -.190E+00 -.134E+00 -.282E-01   0.248E-02 0.175E-02 0.777E-03
   0.199E+01 0.141E+01 -.131E+01   -.177E+01 -.125E+01 0.128E+01   -.190E+00 -.134E+00 0.282E-01   0.248E-02 0.175E-02 -.777E-03
   0.137E+01 -.336E+00 0.238E+01   -.125E+01 0.211E+00 -.217E+01   -.103E+00 0.111E+00 -.179E+00   0.146E-02 -.112E-02 0.254E-02
   0.992E+01 -.351E+01 -.171E-05   -.911E+01 0.322E+01 0.420E-11   -.796E+00 0.281E+00 -.208E-16   0.347E-03 -.123E-03 -.276E-08
   0.137E+01 -.336E+00 -.238E+01   -.125E+01 0.211E+00 0.217E+01   -.103E+00 0.111E+00 0.179E+00   0.146E-02 -.112E-02 -.254E-02
   0.616E+00 -.248E+01 0.107E+01   -.518E+00 0.230E+01 -.897E+00   -.868E-01 0.157E+00 -.150E+00   0.102E-02 -.239E-02 0.176E-02
   0.616E+00 -.248E+01 -.107E+01   -.518E+00 0.230E+01 0.897E+00   -.868E-01 0.157E+00 0.150E+00   0.102E-02 -.239E-02 -.176E-02
   -.255E+00 0.901E-01 -.516E-06   0.253E+00 -.895E-01 -.706E-11   0.198E-02 -.700E-03 -.590E-16   -.218E-02 0.769E-03 0.323E-07
   0.141E+00 0.141E+01 0.238E+01   -.219E+00 -.125E+01 -.217E+01   0.705E-01 -.134E+00 -.179E+00   -.567E-03 0.175E-02 0.254E-02
   -.939E-06 0.105E+02 -.171E-05   -.977E-07 -.967E+01 0.419E-11   -.867E-17 -.844E+00 -.486E-16   -.160E-08 0.368E-03 -.276E-08
   0.141E+00 0.141E+01 -.238E+01   -.219E+00 -.125E+01 0.217E+01   0.705E-01 -.134E+00 0.179E+00   -.567E-03 0.175E-02 -.254E-02
   -.496E+01 -.351E+01 0.859E+01   0.456E+01 0.322E+01 -.789E+01   0.398E+00 0.281E+00 -.689E+00   -.173E-03 -.123E-03 0.300E-03
   -.496E+01 -.351E+01 -.859E+01   0.456E+01 0.322E+01 0.789E+01   0.398E+00 0.281E+00 0.689E+00   -.173E-03 -.123E-03 -.300E-03
   0.134E+01 0.946E+00 -.124E-05   -.887E+00 -.627E+00 -.135E-10   -.480E+00 -.339E+00 0.139E-16   -.657E-02 -.465E-02 0.571E-08
   -.123E+01 -.248E+01 0.937E-06   0.104E+01 0.230E+01 -.535E-11   0.174E+00 0.157E+00 -.295E-16   -.203E-02 -.239E-02 -.421E-08
   0.669E+00 -.946E+00 0.116E+01   -.443E+00 0.627E+00 -.768E+00   -.240E+00 0.339E+00 -.416E+00   -.329E-02 0.465E-02 -.569E-02
   0.669E+00 -.946E+00 -.116E+01   -.443E+00 0.627E+00 0.768E+00   -.240E+00 0.339E+00 0.416E+00   -.329E-02 0.465E-02 0.569E-02
   -.213E+01 0.141E+01 0.107E+01   0.199E+01 -.125E+01 -.897E+00   0.119E+00 -.134E+00 -.150E+00   -.191E-02 0.175E-02 0.176E-02
   -.213E+01 0.141E+01 -.107E+01   0.199E+01 -.125E+01 0.897E+00   0.119E+00 -.134E+00 0.150E+00   -.191E-02 0.175E-02 -.176E-02
   -.223E-06 -.270E+00 -.516E-06   -.122E-06 0.269E+00 -.711E-11   -.139E-16 0.210E-02 -.694E-16   0.187E-07 -.231E-02 0.323E-07
   -.274E+01 -.336E+00 0.937E-06   0.251E+01 0.211E+00 -.535E-11   0.206E+00 0.111E+00 -.243E-16   -.293E-02 -.112E-02 -.421E-08
   -.669E+00 0.946E+00 0.116E+01   0.443E+00 -.627E+00 -.768E+00   0.240E+00 -.339E+00 -.416E+00   0.329E-02 -.465E-02 -.569E-02
   -.669E+00 0.946E+00 -.116E+01   0.443E+00 -.627E+00 0.768E+00   0.240E+00 -.339E+00 0.416E+00   0.329E-02 -.465E-02 0.569E-02
   0.127E+00 0.901E-01 -.221E+00   -.127E+00 -.895E-01 0.219E+00   -.990E-03 -.700E-03 0.172E-02   0.109E-02 0.769E-03 -.188E-02
   -.134E+01 -.946E+00 -.185E-05   0.887E+00 0.627E+00 -.787E-12   0.480E+00 0.339E+00 0.468E-16   0.657E-02 0.465E-02 -.206E-07
   0.127E+00 0.901E-01 0.221E+00   -.127E+00 -.895E-01 -.219E+00   -.990E-03 -.700E-03 -.172E-02   0.109E-02 0.769E-03 0.188E-02
 -----------------------------------------------------------------------------------------------
   -.434E-05 -.312E-05 -.743E-05   0.266E-13 0.304E-13 0.336E-13   -.621E-15 -.224E-15 -.260E-16   -.578E-07 -.408E-07 -.100E-06
 
 
 POSITION                                       TOTAL-FORCE (eV/Angst)
 -----------------------------------------------------------------------------------
      3.87974      2.74339      6.71990        -0.000000     -0.000000      0.000000
      3.89627      2.75508     10.50585         0.002925      0.002068     -0.005311
      3.89627      2.75508     14.45378         0.002925      0.002068      0.005311
      4.98091      5.82292      8.62719        -0.000071     -0.006404     -0.000122
      4.99298      5.87701     12.47982         0.012008     -0.004246      0.000000
      4.98091      5.82292     16.33244        -0.000071     -0.006404      0.000122
      6.12058      9.04638     10.60115         0.002995      0.002268      0.005188
      6.12058      9.04638     14.35848         0.002995      0.002268     -0.005188
      6.09950      9.01301     18.23973        -0.003607      0.001275      0.000000
      7.15020      2.75508      8.62719        -0.006062      0.002068     -0.000122
      7.20523      2.74842     12.47982        -0.000000      0.012737      0.000000
      7.15020      2.75508     16.33244        -0.006062      0.002068      0.000122
      8.31135      5.87701     10.56396        -0.006004     -0.004246      0.010400
      8.31135      5.87701     14.39568        -0.006004     -0.004246     -0.010400
      8.30745      5.87425     18.23973        -0.002310     -0.001634      0.000000
      9.37452      9.04638     12.47982        -0.005991      0.002268      0.000000
      9.41908      9.01842     16.31433        -0.001155      0.001634     -0.002001
      9.41908      9.01842     20.16513        -0.001155      0.001634      0.002001
     10.56920      2.75508     10.60115         0.003137      0.002068      0.005188
     10.56920      2.75508     14.35848         0.003137      0.002068     -0.005188
     10.53071      2.74633     18.23973        -0.000000     -0.003826      0.000000
     11.65385      5.82292     12.47982         0.000141     -0.006404      0.000000
     11.64235      5.87425     16.31433         0.001155     -0.001634     -0.002001
     11.64235      5.87425     20.16513         0.001155     -0.001634      0.002001
     12.74632      9.01301     14.40219         0.001804      0.001275     -0.003124
     12.75398      9.01842     18.23973         0.002310      0.001634      0.000000
     12.74632      9.01301     22.07727         0.001804      0.001275      0.003124
      0.55425      0.39191      0.95999        -0.000000     -0.000000      0.000000
      0.56259      0.39781      4.79452         0.027769      0.019635      0.006213
      0.56259      0.39781      8.64528         0.027769      0.019635     -0.006213
      1.66535      3.51690      2.88448         0.015678     -0.014563      0.027155
      1.90403      3.44191      6.71990         0.012562     -0.004441     -0.000000
      1.66535      3.51690     10.55532         0.015678     -0.014563     -0.027155
      2.77697      6.66103      4.80986         0.012091     -0.024708      0.020942
      2.77697      6.66103      8.62994         0.012091     -0.024708     -0.020942
      2.77128      6.66250     12.47982        -0.001949      0.000689      0.000000
      3.87088      0.39781      2.88448        -0.008504      0.019635      0.027155
      3.87974      0.64783      6.71990        -0.000000      0.013324     -0.000000
      3.87088      0.39781     10.55532        -0.008504      0.019635     -0.027155
      4.86759      3.44191      5.00889        -0.006281     -0.004441      0.010879
      4.86759      3.44191      8.43092        -0.006281     -0.004441     -0.010879
      4.98364      3.52396     12.47982        -0.035804     -0.025318     -0.000000
      6.08526      6.66103      6.71990        -0.024182     -0.024708     -0.000000
      6.09443      6.66576     10.55586        -0.017902      0.025318     -0.031007
      6.09443      6.66576     14.40377        -0.017902      0.025318      0.031007
      7.20574      0.39781      4.80986        -0.019265      0.019635      0.020942
      7.20574      0.39781      8.62994        -0.019265      0.019635     -0.020942
      7.20523      0.39196     12.47982        -0.000000     -0.002068      0.000000
      8.30850      3.51690      6.71990        -0.031356     -0.014563     -0.000000
      8.31602      3.52396     10.55586         0.017902     -0.025318     -0.031007
      8.31602      3.52396     14.40377         0.017902     -0.025318      0.031007
      9.42220      6.66250      8.63991         0.000975      0.000689     -0.001688
      9.42681      6.66576     12.47982         0.035804      0.025318     -0.000000
      9.42220      6.66250     16.31972         0.000975      0.000689      0.001688
 -----------------------------------------------------------------------------------
    total drift:                               -0.000004     -0.000003     -0.000008


--------------------------------------------------------------------------------------------------------



  FREE ENERGIE OF THE ION-ELECTRON SYSTEM (eV)
  ---------------------------------------------------
  free  energy   TOTEN  =      -287.72443146 eV

  energy  without entropy=     -287.72443146  energy(sigma->0) =     -287.72443146
 
 d Force = 0.1456431E-01[ 0.298E-02, 0.261E-01]  d Energy = 0.1457908E-01-0.148E-04
 d Force = 0.3356766E+00[ 0.269E+00, 0.402E+00]  d Ewald  = 0.3355301E+00 0.147E-03


--------------------------------------------------------------------------------------------------------


    POTLOK:  cpu time    0.0899: real time    0.0905


--------------------------------------------------------------------------------------------------------


 Conjugate gradient step on ions:
 trial-energy change:   -0.014579  1 .order   -0.014564   -0.026148   -0.002981
  (g-gl).g =-0.849E-03      g.g   = 0.214E-01  gl.gl    = 0.301E+00
 g(Force)  = 0.214E-01   g(Stress)= 0.000E+00 ortho     =-0.886E-04
 gamma     =  -0.00282
 trial     =   1.22148
 opt step  =   1.37864  (harmonic =   1.37864) maximal distance =0.01121770
 next E    =  -287.724608   (d E  =  -0.01476)


--------------------------------------------------------------------------------------------------------


  
 reached required accuracy - stopping structural energy minimisation
 writing wavefunctions
     LOOP+:  cpu time   33.8691: real time   34.2118
    4ORBIT:  cpu time    0.0000: real time    0.0000
 


 total charge     
 
# of ion       s       p       d       tot
------------------------------------------
    1        0.658   1.138   0.000   1.796
    2        0.752   0.930   0.000   1.682
    3        0.752   0.930   0.000   1.682
    4        0.753   0.931   0.000   1.683
    5        0.752   0.945   0.000   1.696
    6        0.753   0.930   0.000   1.683
    7        0.752   0.931   0.000   1.683
    8        0.752   0.931   0.000   1.683
    9        0.752   0.945   0.000   1.697
   10        0.753   0.931   0.000   1.684
   11        0.752   0.945   0.000   1.697
   12        0.753   0.931   0.000   1.684
   13        0.752   0.945   0.000   1.697
   14        0.752   0.945   0.000   1.697
   15        0.752   0.942   0.000   1.694
   16        0.753   0.930   0.000   1.683
   17        0.752   0.942   0.000   1.694
   18        0.752   0.942   0.000   1.694
   19        0.753   0.932   0.000   1.685
   20        0.753   0.932   0.000   1.685
   21        0.752   0.945   0.000   1.698
   22        0.753   0.931   0.000   1.684
   23        0.752   0.942   0.000   1.694
   24        0.752   0.942   0.000   1.694
   25        0.752   0.946   0.000   1.698
   26        0.752   0.942   0.000   1.694
   27        0.752   0.946   0.000   1.698
   28        0.752   0.944   0.000   1.696
   29        0.753   0.942   0.000   1.695
   30        0.753   0.942   0.000   1.695
   31        0.752   0.942   0.000   1.694
   32        0.752   0.903   0.000   1.655
   33        0.752   0.942   0.000   1.694
   34        0.752   0.942   0.000   1.695
   35        0.752   0.942   0.000   1.695
   36        0.752   0.943   0.000   1.695
   37        0.752   0.942   0.000   1.694
   38        0.751   0.903   0.000   1.654
   39        0.752   0.942   0.000   1.694
   40        0.750   0.903   0.000   1.653
   41        0.750   0.903   0.000   1.653
   42        0.752   0.931   0.000   1.683
   43        0.752   0.942   0.000   1.694
   44        0.752   0.933   0.000   1.684
   45        0.752   0.933   0.000   1.684
   46        0.753   0.943   0.000   1.695
   47        0.753   0.943   0.000   1.695
   48        0.752   0.942   0.000   1.695
   49        0.753   0.943   0.000   1.695
   50        0.752   0.933   0.000   1.685
   51        0.752   0.934   0.000   1.685
   52        0.752   0.942   0.000   1.695
   53        0.752   0.933   0.000   1.685
   54        0.752   0.942   0.000   1.695
--------------------------------------------------
tot         40.524  50.749   0.000  91.273
 

 total amount of memory used by VASP MPI-rank0   140598. kBytes
=======================================================================

   base      :      30000. kBytes
   nonl-proj :      59902. kBytes
   fftplans  :       5382. kBytes
   grid      :      20451. kBytes
   one-center:        165. kBytes
   wavefun   :      24698. kBytes
 
  
  
 General timing and accounting informations for this job:
 ========================================================
  
                  Total CPU time used (sec):      237.248
                            User time (sec):      229.786
                          System time (sec):        7.462
                         Elapsed time (sec):      243.158
  
                   Maximum memory used (kb):      431256.
                   Average memory used (kb):           0.
  
                          Minor page faults:        36049
                          Major page faults:            0
                 Voluntary context switches:         5615
