<?xml version="1.0" encoding="ISO-8859-1"?>
<modeling>
 <generator>
  <i name="program" type="string">vasp </i>
  <i name="version" type="string">5.4.4.18Apr17-6-g9f103f2a35  </i>
  <i name="subversion" type="string">(build Jun 19 2019 10:34:07) complex            parallel </i>
  <i name="platform" type="string">LB-5.4 </i>
  <i name="date" type="string">2023 05 15 </i>
  <i name="time" type="string">18:42:44 </i>
 </generator>
 <incar>
  <i type="string" name="SYSTEM"> Si</i>
  <i type="string" name="PREC">normal</i>
  <i type="string" name="ALGO"> Normal</i>
  <i type="int" name="ISPIN">     1</i>
  <i name="AMIX">      0.20000000</i>
  <i type="int" name="NELM">   200</i>
  <i type="int" name="IBRION">     2</i>
  <i name="EDIFF">      0.00001000</i>
  <i name="EDIFFG">     -0.05000000</i>
  <i type="int" name="NSW">   100</i>
  <i type="int" name="ISIF">     2</i>
  <i type="int" name="ISYM">     2</i>
  <i name="ENCUT">    550.00000000</i>
  <i name="NELECT">    216.00000000</i>
  <i type="logical" name="LREAL"> F  </i>
  <i type="int" name="ISMEAR">     0</i>
  <i name="SIGMA">      0.05000000</i>
  <i type="logical" name="LWAVE"> T  </i>
  <i type="logical" name="LCHARG"> T  </i>
  <i type="int" name="LORBIT">    10</i>
  <v type="int" name="KPOINT_BSE">    -1     0     0     0</v>
  <i type="int" name="NELM">   200</i>
 </incar>
 <structure name="primitive_cell" >
  <crystal>
   <varray name="basis" >
    <v>       9.97646553       0.00000000       5.75991507 </v>
    <v>       3.32548851       9.40590192       5.75991507 </v>
    <v>       0.00000000       0.00000000      11.51983014 </v>
   </varray>
   <i name="volume">   1080.99386112 </i>
   <varray name="rec_basis" >
    <v>       0.10023590      -0.03543874       0.00000000 </v>
    <v>       0.00000000       0.10631623       0.00000000 </v>
    <v>      -0.05011795      -0.03543874       0.08680684 </v>
   </varray>
  </crystal>
  <varray name="positions" >
   <v>       0.29166667       0.29166667       0.29166667 </v>
   <v>       0.04166667       0.37500000       0.37500000 </v>
   <v>       0.37500000       0.37500000       0.04166667 </v>
   <v>       0.37500000       0.37500000       0.37500000 </v>
   <v>       0.37500000       0.04166667       0.37500000 </v>
   <v>      -0.04166667       0.29166667       0.29166667 </v>
   <v>      -0.37500000       0.29166667      -0.04166667 </v>
   <v>      -0.04166667       0.29166667      -0.37500000 </v>
   <v>      -0.37500000       0.29166667       0.29166667 </v>
   <v>      -0.37500000      -0.04166667       0.29166667 </v>
   <v>      -0.04166667      -0.37500000       0.29166667 </v>
   <v>       0.29166667      -0.04166667       0.29166667 </v>
   <v>       0.29166667      -0.37500000      -0.04166667 </v>
   <v>       0.29166667      -0.04166667      -0.37500000 </v>
   <v>       0.29166667      -0.37500000       0.29166667 </v>
   <v>       0.29166667       0.29166667      -0.04166667 </v>
   <v>       0.29166667       0.29166667      -0.37500000 </v>
   <v>      -0.29166667       0.37500000       0.04166667 </v>
   <v>       0.04166667       0.04166667       0.37500000 </v>
   <v>      -0.29166667       0.04166667       0.04166667 </v>
   <v>       0.04166667       0.04166667      -0.29166667 </v>
   <v>      -0.29166667       0.04166667       0.37500000 </v>
   <v>       0.37500000      -0.29166667       0.04166667 </v>
   <v>       0.04166667       0.37500000       0.04166667 </v>
   <v>       0.04166667       0.37500000      -0.29166667 </v>
   <v>       0.04166667      -0.29166667       0.04166667 </v>
   <v>       0.04166667      -0.29166667       0.37500000 </v>
   <v>       0.37500000       0.04166667       0.04166667 </v>
   <v>       0.37500000       0.04166667      -0.29166667 </v>
   <v>      -0.04166667      -0.04166667      -0.37500000 </v>
   <v>      -0.37500000      -0.37500000      -0.04166667 </v>
   <v>      -0.37500000      -0.04166667      -0.04166667 </v>
   <v>      -0.04166667      -0.37500000      -0.04166667 </v>
   <v>      -0.37500000      -0.04166667      -0.37500000 </v>
   <v>      -0.04166667      -0.37500000      -0.37500000 </v>
   <v>      -0.29166667       0.37500000       0.37500000 </v>
   <v>      -0.29166667       0.37500000      -0.29166667 </v>
   <v>      -0.29166667      -0.29166667       0.37500000 </v>
   <v>       0.37500000      -0.29166667      -0.29166667 </v>
   <v>       0.37500000      -0.29166667       0.37500000 </v>
   <v>       0.37500000       0.37500000      -0.29166667 </v>
   <v>      -0.37500000       0.29166667      -0.37500000 </v>
   <v>      -0.04166667       0.29166667      -0.04166667 </v>
   <v>      -0.37500000      -0.37500000       0.29166667 </v>
   <v>      -0.04166667      -0.04166667      -0.04166667 </v>
   <v>      -0.37500000      -0.37500000      -0.37500000 </v>
   <v>      -0.04166667      -0.04166667       0.29166667 </v>
   <v>       0.29166667      -0.37500000      -0.37500000 </v>
   <v>       0.29166667      -0.04166667      -0.04166667 </v>
   <v>      -0.29166667       0.04166667      -0.29166667 </v>
   <v>       0.04166667       0.04166667       0.04166667 </v>
   <v>      -0.29166667      -0.29166667      -0.29166667 </v>
   <v>      -0.29166667      -0.29166667       0.04166667 </v>
   <v>       0.04166667      -0.29166667      -0.29166667 </v>
  </varray>
 </structure>
 <varray name="primitive_index" >
  <v type="int" >        1 </v>
  <v type="int" >       32 </v>
  <v type="int" >       40 </v>
  <v type="int" >       41 </v>
  <v type="int" >       38 </v>
  <v type="int" >       19 </v>
  <v type="int" >       12 </v>
  <v type="int" >       20 </v>
  <v type="int" >       10 </v>
  <v type="int" >       16 </v>
  <v type="int" >       22 </v>
  <v type="int" >        7 </v>
  <v type="int" >        6 </v>
  <v type="int" >        8 </v>
  <v type="int" >        4 </v>
  <v type="int" >        3 </v>
  <v type="int" >        2 </v>
  <v type="int" >       49 </v>
  <v type="int" >       29 </v>
  <v type="int" >       46 </v>
  <v type="int" >       30 </v>
  <v type="int" >       47 </v>
  <v type="int" >       43 </v>
  <v type="int" >       31 </v>
  <v type="int" >       33 </v>
  <v type="int" >       34 </v>
  <v type="int" >       35 </v>
  <v type="int" >       37 </v>
  <v type="int" >       39 </v>
  <v type="int" >       26 </v>
  <v type="int" >       15 </v>
  <v type="int" >       18 </v>
  <v type="int" >       24 </v>
  <v type="int" >       17 </v>
  <v type="int" >       23 </v>
  <v type="int" >       50 </v>
  <v type="int" >       51 </v>
  <v type="int" >       53 </v>
  <v type="int" >       45 </v>
  <v type="int" >       44 </v>
  <v type="int" >       42 </v>
  <v type="int" >       11 </v>
  <v type="int" >       21 </v>
  <v type="int" >       13 </v>
  <v type="int" >       27 </v>
  <v type="int" >       14 </v>
  <v type="int" >       25 </v>
  <v type="int" >        5 </v>
  <v type="int" >        9 </v>
  <v type="int" >       48 </v>
  <v type="int" >       28 </v>
  <v type="int" >       54 </v>
  <v type="int" >       52 </v>
  <v type="int" >       36 </v>
 </varray>
 <kpoints>
  <generation param="Gamma">
   <v type="int" name="divisions">       4        4        4 </v>
   <v name="usershift">      0.00000000       0.00000000       0.00000000 </v>
   <v name="genvec1">      0.25000000       0.00000000       0.00000000 </v>
   <v name="genvec2">      0.00000000       0.25000000       0.00000000 </v>
   <v name="genvec3">     -0.00000000      -0.00000000       0.25000000 </v>
   <v name="shift">      0.00000000       0.00000000       0.00000000 </v>
  </generation>
  <varray name="kpointlist" >
   <v>       0.00000000       0.00000000       0.00000000 </v>
   <v>       0.25000000       0.00000000       0.00000000 </v>
   <v>       0.50000000       0.00000000       0.00000000 </v>
   <v>       0.25000000       0.25000000       0.00000000 </v>
   <v>       0.50000000       0.25000000       0.00000000 </v>
   <v>      -0.25000000       0.25000000       0.00000000 </v>
   <v>       0.50000000       0.50000000       0.00000000 </v>
   <v>      -0.25000000       0.50000000       0.25000000 </v>
  </varray>
  <varray name="weights" >
   <v>       0.01562500 </v>
   <v>       0.12500000 </v>
   <v>       0.06250000 </v>
   <v>       0.09375000 </v>
   <v>       0.37500000 </v>
   <v>       0.18750000 </v>
   <v>       0.04687500 </v>
   <v>       0.09375000 </v>
  </varray>
 </kpoints>
 <parameters>
  <separator name="general" >
   <i type="string" name="SYSTEM">Si</i>
   <i type="logical" name="LCOMPAT"> F  </i>
  </separator>
  <separator name="electronic" >
   <i type="string" name="PREC">normal</i>
   <i name="ENMAX">    550.00000000</i>
   <i name="ENAUG">    535.51400000</i>
   <i name="EDIFF">      0.00001000</i>
   <i type="int" name="IALGO">    38</i>
   <i type="int" name="IWAVPR">    11</i>
   <i type="int" name="NBANDS">   144</i>
   <i name="NELECT">    216.00000000</i>
   <i type="int" name="TURBO">     0</i>
   <i type="int" name="IRESTART">     0</i>
   <i type="int" name="NREBOOT">     0</i>
   <i type="int" name="NMIN">     0</i>
   <i name="EREF">      0.00000000</i>
   <separator name="electronic smearing" >
    <i type="int" name="ISMEAR">     0</i>
    <i name="SIGMA">      0.05000000</i>
    <i name="KSPACING">      0.50000000</i>
    <i type="logical" name="KGAMMA"> T  </i>
   </separator>
   <separator name="electronic projectors" >
    <i type="logical" name="LREAL"> F  </i>
    <v name="ROPT">      0.00000000      0.00000000</v>
    <i type="int" name="LMAXPAW">  -100</i>
    <i type="int" name="LMAXMIX">     2</i>
    <i type="logical" name="NLSPLINE"> F  </i>
   </separator>
   <separator name="electronic startup" >
    <i type="int" name="ISTART">     1</i>
    <i type="int" name="ICHARG">     0</i>
    <i type="int" name="INIWAV">     1</i>
   </separator>
   <separator name="electronic spin" >
    <i type="int" name="ISPIN">     1</i>
    <i type="logical" name="LNONCOLLINEAR"> F  </i>
    <v name="MAGMOM">      1.00000000      1.00000000      1.00000000      1.00000000      1.00000000      1.00000000      1.00000000      1.00000000      1.00000000      1.00000000      1.00000000      1.00000000      1.00000000      1.00000000      1.00000000      1.00000000      1.00000000      1.00000000      1.00000000      1.00000000
      1.00000000      1.00000000      1.00000000      1.00000000      1.00000000      1.00000000      1.00000000      1.00000000      1.00000000      1.00000000      1.00000000      1.00000000      1.00000000      1.00000000      1.00000000      1.00000000      1.00000000      1.00000000      1.00000000      1.00000000
      1.00000000      1.00000000      1.00000000      1.00000000      1.00000000      1.00000000      1.00000000      1.00000000      1.00000000      1.00000000      1.00000000      1.00000000      1.00000000      1.00000000</v>
    <i name="NUPDOWN">     -1.00000000</i>
    <i type="logical" name="LSORBIT"> F  </i>
    <v name="SAXIS">      0.00000000      0.00000000      1.00000000</v>
    <i type="logical" name="LSPIRAL"> F  </i>
    <v name="QSPIRAL">      0.00000000      0.00000000      0.00000000</v>
    <i type="logical" name="LZEROZ"> F  </i>
   </separator>
   <separator name="electronic exchange-correlation" >
    <i type="logical" name="LASPH"> F  </i>
    <i type="logical" name="LMETAGGA"> F  </i>
   </separator>
   <separator name="electronic convergence" >
    <i type="int" name="NELM">   200</i>
    <i type="int" name="NELMDL">     0</i>
    <i type="int" name="NELMIN">     2</i>
    <i name="ENINI">    550.00000000</i>
    <separator name="electronic convergence detail" >
     <i type="logical" name="LDIAG"> T  </i>
     <i type="logical" name="LSUBROT"> F  </i>
     <i name="WEIMIN">      0.00100000</i>
     <i name="EBREAK">      0.00000002</i>
     <i name="DEPER">      0.30000000</i>
     <i type="int" name="NRMM">     4</i>
     <i name="TIME">      0.40000000</i>
    </separator>
   </separator>
   <separator name="electronic mixer" >
    <i name="AMIX">      0.20000000</i>
    <i name="BMIX">      1.00000000</i>
    <i name="AMIN">      0.10000000</i>
    <i name="AMIX_MAG">      0.80000000</i>
    <i name="BMIX_MAG">      1.00000000</i>
    <separator name="electronic mixer details" >
     <i type="int" name="IMIX">     4</i>
     <i type="logical" name="MIXFIRST"> F  </i>
     <i type="int" name="MAXMIX">   -45</i>
     <i name="WC">    100.00000000</i>
     <i type="int" name="INIMIX">     1</i>
     <i type="int" name="MIXPRE">     1</i>
     <i type="int" name="MREMOVE">     5</i>
    </separator>
   </separator>
   <separator name="electronic dipolcorrection" >
    <i type="logical" name="LDIPOL"> F  </i>
    <i type="logical" name="LMONO"> F  </i>
    <i type="int" name="IDIPOL">     0</i>
    <i name="EPSILON">      1.00000000</i>
    <v name="DIPOL">   -100.00000000   -100.00000000   -100.00000000</v>
    <i name="EFIELD">      0.00000000</i>
   </separator>
  </separator>
  <separator name="grids" >
   <i type="int" name="NGX">    70</i>
   <i type="int" name="NGY">    70</i>
   <i type="int" name="NGZ">    70</i>
   <i type="int" name="NGXF">   140</i>
   <i type="int" name="NGYF">   140</i>
   <i type="int" name="NGZF">   140</i>
   <i type="logical" name="ADDGRID"> F  </i>
  </separator>
  <separator name="ionic" >
   <i type="int" name="NSW">   100</i>
   <i type="int" name="IBRION">     2</i>
   <i type="int" name="MDALGO">     0</i>
   <i type="int" name="ISIF">     2</i>
   <i name="PSTRESS">      0.00000000</i>
   <i name="EDIFFG">     -0.05000000</i>
   <i type="int" name="NFREE">     1</i>
   <i name="POTIM">      0.50000000</i>
   <i name="SMASS">     -3.00000000</i>
   <i name="SCALEE">      1.00000000</i>
  </separator>
  <separator name="ionic md" >
   <i name="TEBEG">      0.00010000</i>
   <i name="TEEND">      0.00010000</i>
   <i type="int" name="NBLOCK">     1</i>
   <i type="int" name="KBLOCK">   100</i>
   <i type="int" name="NPACO">   256</i>
   <i name="APACO">     16.00000000</i>
  </separator>
  <separator name="symmetry" >
   <i type="int" name="ISYM">     2</i>
   <i name="SYMPREC">      0.00001000</i>
  </separator>
  <separator name="dos" >
   <i type="int" name="LORBIT">    10</i>
   <v name="RWIGS">     -1.00000000     -1.00000000</v>
   <i type="int" name="NEDOS">   301</i>
   <i name="EMIN">     10.00000000</i>
   <i name="EMAX">    -10.00000000</i>
   <i name="EFERMI">      0.00000000</i>
  </separator>
  <separator name="writing" >
   <i type="int" name="NWRITE">     2</i>
   <i type="logical" name="LWAVE"> T  </i>
   <i type="logical" name="LDOWNSAMPLE"> F  </i>
   <i type="logical" name="LCHARG"> T  </i>
   <i type="logical" name="LPARD"> F  </i>
   <i type="logical" name="LVTOT"> F  </i>
   <i type="logical" name="LVHAR"> F  </i>
   <i type="logical" name="LELF"> F  </i>
   <i type="logical" name="LOPTICS"> F  </i>
   <v name="STM">      0.00000000      0.00000000      0.00000000      0.00000000      0.00000000      0.00000000      0.00000000</v>
  </separator>
  <separator name="performance" >
   <i type="int" name="NPAR">    24</i>
   <i type="int" name="NSIM">     4</i>
   <i type="int" name="NBLK">    -1</i>
   <i type="logical" name="LPLANE"> T  </i>
   <i type="logical" name="LSCALAPACK"> T  </i>
   <i type="logical" name="LSCAAWARE"> F  </i>
   <i type="logical" name="LSCALU"> F  </i>
   <i type="logical" name="LASYNC"> F  </i>
   <i type="logical" name="LORBITALREAL"> F  </i>
  </separator>
  <separator name="miscellaneous" >
   <i type="int" name="IDIOT">     3</i>
   <i type="int" name="ISPECIAL">     0</i>
   <i type="logical" name="LMUSIC"> F  </i>
   <v name="POMASS">     10.81100000     28.08500000</v>
   <v name="DARWINR">      0.00000000      0.00000000</v>
   <v name="DARWINV">      1.00000000      1.00000000</v>
   <i type="logical" name="LCORR"> T  </i>
  </separator>
  <i type="logical" name="GGA_COMPAT"> T  </i>
  <i type="logical" name="LBERRY"> F  </i>
  <i type="int" name="ICORELEVEL">     0</i>
  <i type="logical" name="LDAU"> F  </i>
  <i type="int" name="I_CONSTRAINED_M">     0</i>
  <separator name="electronic exchange-correlation" >
   <i type="string" name="GGA">--</i>
   <i type="int" name="VOSKOWN">     0</i>
   <i type="logical" name="LHFCALC"> F  </i>
   <i type="string" name="PRECFOCK"></i>
   <i type="logical" name="LSYMGRAD"> F  </i>
   <i type="logical" name="LHFONE"> F  </i>
   <i type="logical" name="LRHFCALC"> F  </i>
   <i type="logical" name="LTHOMAS"> F  </i>
   <i type="logical" name="LMODELHF"> F  </i>
   <i name="ENCUT4O">     -1.00000000</i>
   <i type="int" name="EXXOEP">     0</i>
   <i type="int" name="FOURORBIT">     0</i>
   <i name="AEXX">      0.00000000</i>
   <i name="HFALPHA">      0.00000000</i>
   <i name="MCALPHA">      0.00000000</i>
   <i name="ALDAX">      1.00000000</i>
   <i name="AGGAX">      1.00000000</i>
   <i name="ALDAC">      1.00000000</i>
   <i name="AGGAC">      1.00000000</i>
   <i type="int" name="NKREDX">     1</i>
   <i type="int" name="NKREDY">     1</i>
   <i type="int" name="NKREDZ">     1</i>
   <i type="logical" name="SHIFTRED"> F  </i>
   <i type="logical" name="ODDONLY"> F  </i>
   <i type="logical" name="EVENONLY"> F  </i>
   <i type="int" name="LMAXFOCK">     0</i>
   <i type="int" name="NMAXFOCKAE">     0</i>
   <i type="logical" name="LFOCKAEDFT"> F  </i>
   <i name="HFSCREEN">      0.00000000</i>
   <i name="HFSCREENC">      0.00000000</i>
   <i type="int" name="NBANDSGWLOW">     0</i>
  </separator>
  <separator name="vdW DFT" >
   <i type="logical" name="LUSE_VDW"> F  </i>
   <i name="Zab_VDW">     -0.84910000</i>
   <i name="PARAM1">      0.12340000</i>
   <i name="PARAM2">      1.00000000</i>
   <i name="PARAM3">      0.00000000</i>
  </separator>
  <separator name="model GW" >
   <i type="int" name="MODEL_GW">     0</i>
   <i name="MODEL_EPS0">     12.01104290</i>
   <i name="MODEL_ALPHA">      1.00000000</i>
  </separator>
  <separator name="linear response parameters" >
   <i type="logical" name="LEPSILON"> F  </i>
   <i type="logical" name="LRPA"> F  </i>
   <i type="logical" name="LNABLA"> F  </i>
   <i type="logical" name="LVEL"> F  </i>
   <i type="int" name="KINTER">     0</i>
   <i name="CSHIFT">      0.10000000</i>
   <i name="OMEGAMAX">     -1.00000000</i>
   <i name="DEG_THRESHOLD">      0.00200000</i>
   <i name="RTIME">     -0.10000000</i>
   <i name="WPLASMAI">      0.00000000</i>
   <v name="DFIELD">      0.00000000      0.00000000      0.00000000</v>
   <v name="WPLASMA">      0.00000000      0.00000000      0.00000000      0.00000000      0.00000000      0.00000000      0.00000000      0.00000000      0.00000000</v>
  </separator>
  <separator name="orbital magnetization" >
   <i type="logical" name="NUCIND"> F  </i>
   <v name="MAGPOS">      0.00000000      0.00000000      0.00000000</v>
   <i type="logical" name="LNICSALL"> T  </i>
   <i type="logical" name="ORBITALMAG"> F  </i>
   <i type="logical" name="LMAGBLOCH"> F  </i>
   <i type="logical" name="LCHIMAG"> F  </i>
   <i type="logical" name="LGAUGE"> T  </i>
   <i type="int" name="MAGATOM">     0</i>
   <v name="MAGDIPOL">      0.00000000      0.00000000      0.00000000</v>
   <v name="AVECCONST">      0.00000000      0.00000000      0.00000000</v>
  </separator>
  <separator name="response functions" >
   <i type="logical" name="LADDER"> F  </i>
   <i type="logical" name="LRPAFORCE"> F  </i>
   <i type="logical" name="LFXC"> F  </i>
   <i type="logical" name="LHARTREE"> T  </i>
   <i type="int" name="IBSE">     0</i>
   <v type="int" name="KPOINT">    -1     0     0     0</v>
   <i type="logical" name="LTCTE"> F  </i>
   <i type="logical" name="LTETE"> F  </i>
   <i type="logical" name="LTRIPLET"> F  </i>
   <i type="logical" name="LFXCEPS"> F  </i>
   <i type="logical" name="LFXHEG"> F  </i>
   <i type="int" name="NATURALO">     2</i>
   <i type="logical" name="L2ORDER"> F  </i>
   <i type="logical" name="LMP2LT"> F  </i>
   <i type="logical" name="LUSEW"> F  </i>
   <i name="ENCUTGW">     -2.00000000</i>
   <i name="ENCUTGWSOFT">     -2.00000000</i>
   <i name="ENCUTLF">     -1.00000000</i>
   <i type="int" name="LMAXMP2">    -1</i>
   <i name="SCISSOR">      0.00000000</i>
   <i type="int" name="NOMEGA">     0</i>
   <i type="int" name="NOMEGAR">     0</i>
   <i type="int" name="NBANDSGW">    -1</i>
   <i type="int" name="NBANDSO">    -1</i>
   <i type="int" name="NBANDSV">    -1</i>
   <i type="int" name="NELM">   200</i>
   <i type="int" name="NELMHF">     1</i>
   <i type="int" name="DIM">     3</i>
   <i type="int" name="ANTIRES">     0</i>
   <i name="OMEGAMAX">    -30.00000000</i>
   <i name="OMEGAMIN">    -30.00000000</i>
   <i name="OMEGATL">   -200.00000000</i>
   <i type="int" name="OMEGAGRID">   140</i>
   <i name="CSHIFT">     -0.10000000</i>
   <i type="logical" name="SELFENERGY"> F  </i>
   <i type="logical" name="LSPECTRAL"> F  </i>
   <i type="logical" name="LSPECTRALGW"> F  </i>
   <i type="logical" name="LSINGLES"> F  </i>
   <i type="logical" name="LFERMIGW"> F  </i>
   <i type="logical" name="ODDONLYGW"> F  </i>
   <i type="logical" name="EVENONLYGW"> F  </i>
   <i type="int" name="NKREDLFX">     1</i>
   <i type="int" name="NKREDLFY">     1</i>
   <i type="int" name="NKREDLFZ">     1</i>
   <i type="int" name="MAXMEM">  2800</i>
   <i type="int" name="TELESCOPE">     0</i>
   <i type="int" name="TAUPAR">     1</i>
   <i type="int" name="OMEGAPAR">    -1</i>
   <i name="LAMBDA">      1.00000000</i>
  </separator>
  <separator name="External order field" >
   <i name="OFIELD_KAPPA">      0.00000000</i>
   <v name="OFIELD_K">      0.00000000      0.00000000      0.00000000</v>
   <i name="OFIELD_Q6_NEAR">      0.00000000</i>
   <i name="OFIELD_Q6_FAR">      0.00000000</i>
   <i name="OFIELD_A">      0.00000000</i>
  </separator>
 </parameters>
 <atominfo>
  <atoms>      54 </atoms>
  <types>       2 </types>
  <array name="atoms" >
   <dimension dim="1">ion</dimension>
   <field type="string">element</field>
   <field type="int">atomtype</field>
   <set>
    <rc><c>B </c><c>   1</c></rc>
    <rc><c>Si</c><c>   2</c></rc>
    <rc><c>Si</c><c>   2</c></rc>
    <rc><c>Si</c><c>   2</c></rc>
    <rc><c>Si</c><c>   2</c></rc>
    <rc><c>Si</c><c>   2</c></rc>
    <rc><c>Si</c><c>   2</c></rc>
    <rc><c>Si</c><c>   2</c></rc>
    <rc><c>Si</c><c>   2</c></rc>
    <rc><c>Si</c><c>   2</c></rc>
    <rc><c>Si</c><c>   2</c></rc>
    <rc><c>Si</c><c>   2</c></rc>
    <rc><c>Si</c><c>   2</c></rc>
    <rc><c>Si</c><c>   2</c></rc>
    <rc><c>Si</c><c>   2</c></rc>
    <rc><c>Si</c><c>   2</c></rc>
    <rc><c>Si</c><c>   2</c></rc>
    <rc><c>Si</c><c>   2</c></rc>
    <rc><c>Si</c><c>   2</c></rc>
    <rc><c>Si</c><c>   2</c></rc>
    <rc><c>Si</c><c>   2</c></rc>
    <rc><c>Si</c><c>   2</c></rc>
    <rc><c>Si</c><c>   2</c></rc>
    <rc><c>Si</c><c>   2</c></rc>
    <rc><c>Si</c><c>   2</c></rc>
    <rc><c>Si</c><c>   2</c></rc>
    <rc><c>Si</c><c>   2</c></rc>
    <rc><c>Si</c><c>   2</c></rc>
    <rc><c>Si</c><c>   2</c></rc>
    <rc><c>Si</c><c>   2</c></rc>
    <rc><c>Si</c><c>   2</c></rc>
    <rc><c>Si</c><c>   2</c></rc>
    <rc><c>Si</c><c>   2</c></rc>
    <rc><c>Si</c><c>   2</c></rc>
    <rc><c>Si</c><c>   2</c></rc>
    <rc><c>Si</c><c>   2</c></rc>
    <rc><c>Si</c><c>   2</c></rc>
    <rc><c>Si</c><c>   2</c></rc>
    <rc><c>Si</c><c>   2</c></rc>
    <rc><c>Si</c><c>   2</c></rc>
    <rc><c>Si</c><c>   2</c></rc>
    <rc><c>Si</c><c>   2</c></rc>
    <rc><c>Si</c><c>   2</c></rc>
    <rc><c>Si</c><c>   2</c></rc>
    <rc><c>Si</c><c>   2</c></rc>
    <rc><c>Si</c><c>   2</c></rc>
    <rc><c>Si</c><c>   2</c></rc>
    <rc><c>Si</c><c>   2</c></rc>
    <rc><c>Si</c><c>   2</c></rc>
    <rc><c>Si</c><c>   2</c></rc>
    <rc><c>Si</c><c>   2</c></rc>
    <rc><c>Si</c><c>   2</c></rc>
    <rc><c>Si</c><c>   2</c></rc>
    <rc><c>Si</c><c>   2</c></rc>
   </set>
  </array>
  <array name="atomtypes" >
   <dimension dim="1">type</dimension>
   <field type="int">atomspertype</field>
   <field type="string">element</field>
   <field>mass</field>
   <field>valence</field>
   <field type="string">pseudopotential</field>
   <set>
    <rc><c>   1</c><c>B </c><c>     10.81100000</c><c>      3.00000000</c><c>  PAW_PBE B 06Sep2000                   </c></rc>
    <rc><c>  53</c><c>Si</c><c>     28.08500000</c><c>      4.00000000</c><c>  PAW_PBE Si 05Jan2001                  </c></rc>
   </set>
  </array>
 </atominfo>
 <structure name="initialpos" >
  <crystal>
   <varray name="basis" >
    <v>       9.97646553       0.00000000       5.75991507 </v>
    <v>       3.32548851       9.40590192       5.75991507 </v>
    <v>       0.00000000       0.00000000      11.51983014 </v>
   </varray>
   <i name="volume">   1080.99386112 </i>
   <varray name="rec_basis" >
    <v>       0.10023590      -0.03543874       0.00000000 </v>
    <v>       0.00000000       0.10631623       0.00000000 </v>
    <v>      -0.05011795      -0.03543874       0.08680684 </v>
   </varray>
  </crystal>
  <varray name="positions" >
   <v>       0.29166667       0.29166667       0.29166667 </v>
   <v>       0.29166667       0.29166667       0.62500000 </v>
   <v>       0.29166667       0.29166667       0.95833333 </v>
   <v>       0.29166667       0.62500000       0.29166667 </v>
   <v>       0.29166667       0.62500000       0.62500000 </v>
   <v>       0.29166667       0.62500000       0.95833333 </v>
   <v>       0.29166667       0.95833333       0.29166667 </v>
   <v>       0.29166667       0.95833333       0.62500000 </v>
   <v>       0.29166667       0.95833333       0.95833333 </v>
   <v>       0.62500000       0.29166667       0.29166667 </v>
   <v>       0.62500000       0.29166667       0.62500000 </v>
   <v>       0.62500000       0.29166667       0.95833333 </v>
   <v>       0.62500000       0.62500000       0.29166667 </v>
   <v>       0.62500000       0.62500000       0.62500000 </v>
   <v>       0.62500000       0.62500000       0.95833333 </v>
   <v>       0.62500000       0.95833333       0.29166667 </v>
   <v>       0.62500000       0.95833333       0.62500000 </v>
   <v>       0.62500000       0.95833333       0.95833333 </v>
   <v>       0.95833333       0.29166667       0.29166667 </v>
   <v>       0.95833333       0.29166667       0.62500000 </v>
   <v>       0.95833333       0.29166667       0.95833333 </v>
   <v>       0.95833333       0.62500000       0.29166667 </v>
   <v>       0.95833333       0.62500000       0.62500000 </v>
   <v>       0.95833333       0.62500000       0.95833333 </v>
   <v>       0.95833333       0.95833333       0.29166667 </v>
   <v>       0.95833333       0.95833333       0.62500000 </v>
   <v>       0.95833333       0.95833333       0.95833333 </v>
   <v>       0.04166667       0.04166667       0.04166667 </v>
   <v>       0.04166667       0.04166667       0.37500000 </v>
   <v>       0.04166667       0.04166667       0.70833333 </v>
   <v>       0.04166667       0.37500000       0.04166667 </v>
   <v>       0.04166667       0.37500000       0.37500000 </v>
   <v>       0.04166667       0.37500000       0.70833333 </v>
   <v>       0.04166667       0.70833333       0.04166667 </v>
   <v>       0.04166667       0.70833333       0.37500000 </v>
   <v>       0.04166667       0.70833333       0.70833333 </v>
   <v>       0.37500000       0.04166667       0.04166667 </v>
   <v>       0.37500000       0.04166667       0.37500000 </v>
   <v>       0.37500000       0.04166667       0.70833333 </v>
   <v>       0.37500000       0.37500000       0.04166667 </v>
   <v>       0.37500000       0.37500000       0.37500000 </v>
   <v>       0.37500000       0.37500000       0.70833333 </v>
   <v>       0.37500000       0.70833333       0.04166667 </v>
   <v>       0.37500000       0.70833333       0.37500000 </v>
   <v>       0.37500000       0.70833333       0.70833333 </v>
   <v>       0.70833333       0.04166667       0.04166667 </v>
   <v>       0.70833333       0.04166667       0.37500000 </v>
   <v>       0.70833333       0.04166667       0.70833333 </v>
   <v>       0.70833333       0.37500000       0.04166667 </v>
   <v>       0.70833333       0.37500000       0.37500000 </v>
   <v>       0.70833333       0.37500000       0.70833333 </v>
   <v>       0.70833333       0.70833333       0.04166667 </v>
   <v>       0.70833333       0.70833333       0.37500000 </v>
   <v>       0.70833333       0.70833333       0.70833333 </v>
  </varray>
 </structure>
 <calculation>
  <scstep>
   <time name="dav">    3.24    3.27</time>
   <time name="total">    3.54    3.59</time>
   <energy>
    <i name="alphaZ">     93.27357238 </i>
    <i name="ewald">  -6115.53854741 </i>
    <i name="hartreedc">   -406.32733904 </i>
    <i name="XCdc">   -467.65285899 </i>
    <i name="pawpsdc">  23044.30477375 </i>
    <i name="pawaedc"> -22117.01064010 </i>
    <i name="eentropy">     -0.00000000 </i>
    <i name="bandstr">    148.92183963 </i>
    <i name="atom">   5533.69225236 </i>
    <i name="e_fr_energy">   -286.33694742 </i>
    <i name="e_wo_entrp">   -286.33694742 </i>
    <i name="e_0_energy">   -286.33694742 </i>
   </energy>
  </scstep>
  <scstep>
   <time name="dav">    2.90    2.92</time>
   <time name="total">    3.06    3.09</time>
   <energy>
    <i name="alphaZ">     93.27357238 </i>
    <i name="ewald">  -6115.53854741 </i>
    <i name="hartreedc">   -406.32736192 </i>
    <i name="XCdc">   -467.65285691 </i>
    <i name="pawpsdc">  23044.31619822 </i>
    <i name="pawaedc"> -22117.02207209 </i>
    <i name="eentropy">     -0.00000000 </i>
    <i name="bandstr">    148.92186794 </i>
    <i name="atom">   5533.69225236 </i>
    <i name="e_fr_energy">   -286.33694743 </i>
    <i name="e_wo_entrp">   -286.33694743 </i>
    <i name="e_0_energy">   -286.33694743 </i>
   </energy>
  </scstep>
  <structure>
   <crystal>
    <varray name="basis" >
     <v>       9.97646553       0.00000000       5.75991507 </v>
     <v>       3.32548851       9.40590192       5.75991507 </v>
     <v>       0.00000000       0.00000000      11.51983014 </v>
    </varray>
    <i name="volume">   1080.99386112 </i>
    <varray name="rec_basis" >
     <v>       0.10023590      -0.03543874       0.00000000 </v>
     <v>       0.00000000       0.10631623       0.00000000 </v>
     <v>      -0.05011795      -0.03543874       0.08680684 </v>
    </varray>
   </crystal>
   <varray name="positions" >
    <v>       0.29166667       0.29166667       0.29166667 </v>
    <v>       0.29166667       0.29166667       0.62500000 </v>
    <v>       0.29166667       0.29166667       0.95833333 </v>
    <v>       0.29166667       0.62500000       0.29166667 </v>
    <v>       0.29166667       0.62500000       0.62500000 </v>
    <v>       0.29166667       0.62500000       0.95833333 </v>
    <v>       0.29166667       0.95833333       0.29166667 </v>
    <v>       0.29166667       0.95833333       0.62500000 </v>
    <v>       0.29166667       0.95833333       0.95833333 </v>
    <v>       0.62500000       0.29166667       0.29166667 </v>
    <v>       0.62500000       0.29166667       0.62500000 </v>
    <v>       0.62500000       0.29166667       0.95833333 </v>
    <v>       0.62500000       0.62500000       0.29166667 </v>
    <v>       0.62500000       0.62500000       0.62500000 </v>
    <v>       0.62500000       0.62500000       0.95833333 </v>
    <v>       0.62500000       0.95833333       0.29166667 </v>
    <v>       0.62500000       0.95833333       0.62500000 </v>
    <v>       0.62500000       0.95833333       0.95833333 </v>
    <v>       0.95833333       0.29166667       0.29166667 </v>
    <v>       0.95833333       0.29166667       0.62500000 </v>
    <v>       0.95833333       0.29166667       0.95833333 </v>
    <v>       0.95833333       0.62500000       0.29166667 </v>
    <v>       0.95833333       0.62500000       0.62500000 </v>
    <v>       0.95833333       0.62500000       0.95833333 </v>
    <v>       0.95833333       0.95833333       0.29166667 </v>
    <v>       0.95833333       0.95833333       0.62500000 </v>
    <v>       0.95833333       0.95833333       0.95833333 </v>
    <v>       0.04166667       0.04166667       0.04166667 </v>
    <v>       0.04166667       0.04166667       0.37500000 </v>
    <v>       0.04166667       0.04166667       0.70833333 </v>
    <v>       0.04166667       0.37500000       0.04166667 </v>
    <v>       0.04166667       0.37500000       0.37500000 </v>
    <v>       0.04166667       0.37500000       0.70833333 </v>
    <v>       0.04166667       0.70833333       0.04166667 </v>
    <v>       0.04166667       0.70833333       0.37500000 </v>
    <v>       0.04166667       0.70833333       0.70833333 </v>
    <v>       0.37500000       0.04166667       0.04166667 </v>
    <v>       0.37500000       0.04166667       0.37500000 </v>
    <v>       0.37500000       0.04166667       0.70833333 </v>
    <v>       0.37500000       0.37500000       0.04166667 </v>
    <v>       0.37500000       0.37500000       0.37500000 </v>
    <v>       0.37500000       0.37500000       0.70833333 </v>
    <v>       0.37500000       0.70833333       0.04166667 </v>
    <v>       0.37500000       0.70833333       0.37500000 </v>
    <v>       0.37500000       0.70833333       0.70833333 </v>
    <v>       0.70833333       0.04166667       0.04166667 </v>
    <v>       0.70833333       0.04166667       0.37500000 </v>
    <v>       0.70833333       0.04166667       0.70833333 </v>
    <v>       0.70833333       0.37500000       0.04166667 </v>
    <v>       0.70833333       0.37500000       0.37500000 </v>
    <v>       0.70833333       0.37500000       0.70833333 </v>
    <v>       0.70833333       0.70833333       0.04166667 </v>
    <v>       0.70833333       0.70833333       0.37500000 </v>
    <v>       0.70833333       0.70833333       0.70833333 </v>
   </varray>
  </structure>
  <varray name="forces" >
   <v>      -0.00000000       0.00000000       0.00000000 </v>
   <v>       0.18388622       0.13002719      -0.07604263 </v>
   <v>       0.18388622       0.13002719       0.07604263 </v>
   <v>       0.06999149      -0.19211573       0.12122882 </v>
   <v>       0.05790848      -0.02047374       0.00000000 </v>
   <v>       0.06999149      -0.19211573      -0.12122882 </v>
   <v>       0.11389472      -0.06793865       0.19727145 </v>
   <v>       0.11389472      -0.06793865      -0.19727145 </v>
   <v>       0.07352826      -0.02599617       0.00000000 </v>
   <v>      -0.15779795       0.13002719       0.12122882 </v>
   <v>      -0.00000000       0.06142122       0.00000000 </v>
   <v>      -0.15779795       0.13002719      -0.12122882 </v>
   <v>      -0.02895424      -0.02047374       0.05015022 </v>
   <v>      -0.02895424      -0.02047374      -0.05015022 </v>
   <v>      -0.01004601      -0.00710360       0.00000000 </v>
   <v>      -0.22778945      -0.06793865       0.00000000 </v>
   <v>      -0.00502301       0.00710360      -0.00870010 </v>
   <v>      -0.00502301       0.00710360       0.00870010 </v>
   <v>      -0.02608826       0.13002719       0.19727145 </v>
   <v>      -0.02608826       0.13002719      -0.19727145 </v>
   <v>      -0.00000000       0.07798850       0.00000000 </v>
   <v>      -0.13998299      -0.19211573       0.00000000 </v>
   <v>       0.00502301      -0.00710360      -0.00870010 </v>
   <v>       0.00502301      -0.00710360       0.00870010 </v>
   <v>      -0.03676413      -0.02599617       0.06367734 </v>
   <v>       0.01004601       0.00710360       0.00000000 </v>
   <v>      -0.03676413      -0.02599617      -0.06367734 </v>
   <v>      -0.00000000       0.00000000       0.00000000 </v>
   <v>       0.03852784       0.02724330      -0.05657347 </v>
   <v>       0.03852784       0.02724330       0.05657347 </v>
   <v>       0.00293256      -0.07343534       0.00507935 </v>
   <v>       2.15678626      -0.76253910      -0.00000000 </v>
   <v>       0.00293256      -0.07343534      -0.00507935 </v>
   <v>       0.03559527       0.01894875       0.06165282 </v>
   <v>       0.03559527       0.01894875      -0.06165282 </v>
   <v>      -0.00522956       0.00184893       0.00000000 </v>
   <v>      -0.06825798       0.02724330       0.00507935 </v>
   <v>      -0.00000000       2.28761729      -0.00000000 </v>
   <v>      -0.06825798       0.02724330      -0.00507935 </v>
   <v>      -1.07839313      -0.76253910       1.86783170 </v>
   <v>      -1.07839313      -0.76253910      -1.86783170 </v>
   <v>      -0.15829606      -0.11193222       0.00000000 </v>
   <v>      -0.07119055       0.01894875       0.00000000 </v>
   <v>      -0.07914803       0.11193222      -0.13708841 </v>
   <v>      -0.07914803       0.11193222       0.13708841 </v>
   <v>       0.02973014       0.02724330       0.06165282 </v>
   <v>       0.02973014       0.02724330      -0.06165282 </v>
   <v>      -0.00000000      -0.00554679       0.00000000 </v>
   <v>      -0.00586513      -0.07343534       0.00000000 </v>
   <v>       0.07914803      -0.11193222      -0.13708841 </v>
   <v>       0.07914803      -0.11193222       0.13708841 </v>
   <v>       0.00261478       0.00184893      -0.00452893 </v>
   <v>       0.15829606       0.11193222       0.00000000 </v>
   <v>       0.00261478       0.00184893       0.00452893 </v>
  </varray>
  <varray name="stress" >
   <v>      23.71508048       0.00000000      -0.00000000 </v>
   <v>       0.00000000      23.71508056      -0.00000000 </v>
   <v>      -0.00000000      -0.00000000      23.71508057 </v>
  </varray>
  <energy>
   <i name="e_fr_energy">   -286.33694743 </i>
   <i name="e_wo_entrp">   -286.33694743 </i>
   <i name="e_0_energy">     -0.00000000 </i>
  </energy>
  <time name="totalsc">   19.98   20.25</time>
 </calculation>
 <calculation>
  <scstep>
   <time name="dav">    3.32    3.35</time>
   <time name="total">    3.67    3.71</time>
   <energy>
    <i name="alphaZ">     93.27357238 </i>
    <i name="ewald">  -6118.66948135 </i>
    <i name="hartreedc">   -405.09713319 </i>
    <i name="XCdc">   -467.71300995 </i>
    <i name="pawpsdc">  23044.32802914 </i>
    <i name="pawaedc"> -22117.03391418 </i>
    <i name="eentropy">     -0.00000000 </i>
    <i name="bandstr">    150.06229481 </i>
    <i name="atom">   5533.69225236 </i>
    <i name="e_fr_energy">   -287.15738998 </i>
    <i name="e_wo_entrp">   -287.15738998 </i>
    <i name="e_0_energy">   -287.15738998 </i>
   </energy>
  </scstep>
  <scstep>
   <time name="dav">    4.06    4.10</time>
   <time name="total">    4.33    4.37</time>
   <energy>
    <i name="e_fr_energy">   -287.20801330 </i>
    <i name="e_wo_entrp">   -287.20801330 </i>
    <i name="e_0_energy">   -287.20801330 </i>
   </energy>
  </scstep>
  <scstep>
   <time name="dav">    3.80    3.83</time>
   <time name="total">    4.06    4.10</time>
   <energy>
    <i name="e_fr_energy">   -287.19418834 </i>
    <i name="e_wo_entrp">   -287.19418834 </i>
    <i name="e_0_energy">   -287.19418834 </i>
   </energy>
  </scstep>
  <scstep>
   <time name="dav">    3.88    3.92</time>
   <time name="total">    4.14    4.18</time>
   <energy>
    <i name="e_fr_energy">   -287.18732591 </i>
    <i name="e_wo_entrp">   -287.18732591 </i>
    <i name="e_0_energy">   -287.18732591 </i>
   </energy>
  </scstep>
  <scstep>
   <time name="dav">    3.99    4.03</time>
   <time name="total">    4.26    4.30</time>
   <energy>
    <i name="e_fr_energy">   -287.18717117 </i>
    <i name="e_wo_entrp">   -287.18717117 </i>
    <i name="e_0_energy">   -287.18717117 </i>
   </energy>
  </scstep>
  <scstep>
   <time name="dav">    4.26    4.30</time>
   <time name="total">    4.52    4.56</time>
   <energy>
    <i name="e_fr_energy">   -287.18709094 </i>
    <i name="e_wo_entrp">   -287.18709094 </i>
    <i name="e_0_energy">   -287.18709094 </i>
   </energy>
  </scstep>
  <scstep>
   <time name="dav">    3.88    3.92</time>
   <time name="total">    4.14    4.18</time>
   <energy>
    <i name="e_fr_energy">   -287.18708157 </i>
    <i name="e_wo_entrp">   -287.18708157 </i>
    <i name="e_0_energy">   -287.18708157 </i>
   </energy>
  </scstep>
  <scstep>
   <time name="dav">    4.01    4.05</time>
   <time name="total">    4.11    4.15</time>
   <energy>
    <i name="alphaZ">     93.27357238 </i>
    <i name="ewald">  -6118.66948135 </i>
    <i name="hartreedc">   -405.49053508 </i>
    <i name="XCdc">   -467.71752984 </i>
    <i name="pawpsdc">  22892.61323180 </i>
    <i name="pawaedc"> -21965.24371373 </i>
    <i name="eentropy">     -0.00000000 </i>
    <i name="bandstr">    150.35512242 </i>
    <i name="atom">   5533.69225236 </i>
    <i name="e_fr_energy">   -287.18708105 </i>
    <i name="e_wo_entrp">   -287.18708105 </i>
    <i name="e_0_energy">   -287.18708105 </i>
   </energy>
  </scstep>
  <structure>
   <crystal>
    <varray name="basis" >
     <v>       9.97646553       0.00000000       5.75991507 </v>
     <v>       3.32548851       9.40590192       5.75991507 </v>
     <v>       0.00000000       0.00000000      11.51983014 </v>
    </varray>
    <i name="volume">   1080.99386112 </i>
    <varray name="rec_basis" >
     <v>       0.10023590      -0.03543874       0.00000000 </v>
     <v>       0.00000000       0.10631623       0.00000000 </v>
     <v>      -0.05011795      -0.03543874       0.08680684 </v>
    </varray>
   </crystal>
   <varray name="positions" >
    <v>       0.29166667       0.29166667       0.29166667 </v>
    <v>       0.29233357       0.29233357       0.62401464 </v>
    <v>       0.29233357       0.29233357       0.95798488 </v>
    <v>       0.29233357       0.62401464       0.29233357 </v>
    <v>       0.29198169       0.62489499       0.62489499 </v>
    <v>       0.29233357       0.62401464       0.95798488 </v>
    <v>       0.29233357       0.95798488       0.29233357 </v>
    <v>       0.29233357       0.95798488       0.62401464 </v>
    <v>       0.29206667       0.95820000       0.95820000 </v>
    <v>       0.62401464       0.29233357       0.29233357 </v>
    <v>       0.62489499       0.29198169       0.62489499 </v>
    <v>       0.62401464       0.29233357       0.95798488 </v>
    <v>       0.62489499       0.62489499       0.29198169 </v>
    <v>       0.62489499       0.62489499       0.62489499 </v>
    <v>       0.62496357       0.62496357       0.95836977 </v>
    <v>       0.62401464       0.95798488       0.29233357 </v>
    <v>       0.62496357       0.95836977       0.62496357 </v>
    <v>       0.62496357       0.95836977       0.95836977 </v>
    <v>       0.95798488       0.29233357       0.29233357 </v>
    <v>       0.95798488       0.29233357       0.62401464 </v>
    <v>       0.95820000       0.29206667       0.95820000 </v>
    <v>       0.95798488       0.62401464       0.29233357 </v>
    <v>       0.95836977       0.62496357       0.62496357 </v>
    <v>       0.95836977       0.62496357       0.95836977 </v>
    <v>       0.95820000       0.95820000       0.29206667 </v>
    <v>       0.95836977       0.95836977       0.62496357 </v>
    <v>       0.95820000       0.95820000       0.95820000 </v>
    <v>       0.04166667       0.04166667       0.04166667 </v>
    <v>       0.04180640       0.04180640       0.37462335 </v>
    <v>       0.04180640       0.04180640       0.70843052 </v>
    <v>       0.04180640       0.37462335       0.04180640 </v>
    <v>       0.05339980       0.37108895       0.37108895 </v>
    <v>       0.04180640       0.37462335       0.70843052 </v>
    <v>       0.04180640       0.70843052       0.04180640 </v>
    <v>       0.04180640       0.70843052       0.37462335 </v>
    <v>       0.04163822       0.70834282       0.70834282 </v>
    <v>       0.37462335       0.04180640       0.04180640 </v>
    <v>       0.37108895       0.05339980       0.37108895 </v>
    <v>       0.37462335       0.04180640       0.70843052 </v>
    <v>       0.37108895       0.37108895       0.05339980 </v>
    <v>       0.37108895       0.37108895       0.37108895 </v>
    <v>       0.37442590       0.37442590       0.70890743 </v>
    <v>       0.37462335       0.70843052       0.04180640 </v>
    <v>       0.37442590       0.70890743       0.37442590 </v>
    <v>       0.37442590       0.70890743       0.70890743 </v>
    <v>       0.70843052       0.04180640       0.04180640 </v>
    <v>       0.70843052       0.04180640       0.37462335 </v>
    <v>       0.70834282       0.04163822       0.70834282 </v>
    <v>       0.70843052       0.37462335       0.04180640 </v>
    <v>       0.70890743       0.37442590       0.37442590 </v>
    <v>       0.70890743       0.37442590       0.70890743 </v>
    <v>       0.70834282       0.70834282       0.04163822 </v>
    <v>       0.70890743       0.70890743       0.37442590 </v>
    <v>       0.70834282       0.70834282       0.70834282 </v>
   </varray>
  </structure>
  <varray name="forces" >
   <v>       0.00000000      -0.00000000      -0.00000000 </v>
   <v>       0.05105153       0.03609888      -0.34070980 </v>
   <v>       0.05105153       0.03609888       0.34070980 </v>
   <v>      -0.07282868      -0.31428727      -0.12614298 </v>
   <v>       0.02168182      -0.00766568      -0.00000000 </v>
   <v>      -0.07282868      -0.31428727       0.12614298 </v>
   <v>       0.12388021       0.24208950       0.21456683 </v>
   <v>       0.12388021       0.24208950      -0.21456683 </v>
   <v>       0.01993859      -0.00704936      -0.00000000 </v>
   <v>      -0.32058911       0.03609888      -0.12614298 </v>
   <v>       0.00000000       0.02299704      -0.00000000 </v>
   <v>      -0.32058911       0.03609888       0.12614298 </v>
   <v>      -0.01084091      -0.00766568       0.01877701 </v>
   <v>      -0.01084091      -0.00766568      -0.01877701 </v>
   <v>      -0.03294467      -0.02329540      -0.00000000 </v>
   <v>      -0.24776043       0.24208950      -0.00000000 </v>
   <v>      -0.01647234       0.02329540      -0.02853092 </v>
   <v>      -0.01647234       0.02329540       0.02853092 </v>
   <v>       0.26953758       0.03609888       0.21456683 </v>
   <v>       0.26953758       0.03609888      -0.21456683 </v>
   <v>       0.00000000       0.02114807      -0.00000000 </v>
   <v>       0.14565736      -0.31428727      -0.00000000 </v>
   <v>       0.01647234      -0.02329540      -0.02853092 </v>
   <v>       0.01647234      -0.02329540       0.02853092 </v>
   <v>      -0.00996929      -0.00704936       0.01726732 </v>
   <v>       0.03294467       0.02329540      -0.00000000 </v>
   <v>      -0.00996929      -0.00704936      -0.01726732 </v>
   <v>       0.00000000      -0.00000000      -0.00000000 </v>
   <v>       0.03144647       0.02223602      -0.03499853 </v>
   <v>       0.03144647       0.02223602       0.03499853 </v>
   <v>       0.00562003      -0.05081219       0.00973418 </v>
   <v>       1.27586788      -0.45108741      -0.00000000 </v>
   <v>       0.00562003      -0.05081219      -0.00973418 </v>
   <v>       0.02582644       0.00634016       0.04473271 </v>
   <v>       0.02582644       0.00634016      -0.04473271 </v>
   <v>       0.00592574      -0.00209507      -0.00000000 </v>
   <v>      -0.04603285       0.02223602       0.00973418 </v>
   <v>      -0.00000000       1.35326224      -0.00000000 </v>
   <v>      -0.04603285       0.02223602      -0.00973418 </v>
   <v>      -0.63793394      -0.45108741       1.10493400 </v>
   <v>      -0.63793394      -0.45108741      -1.10493400 </v>
   <v>       0.07525510       0.05321339      -0.00000000 </v>
   <v>      -0.05165288       0.00634016      -0.00000000 </v>
   <v>       0.03762755      -0.05321339       0.06517283 </v>
   <v>       0.03762755      -0.05321339      -0.06517283 </v>
   <v>       0.01458638       0.02223602       0.04473271 </v>
   <v>       0.01458638       0.02223602      -0.04473271 </v>
   <v>       0.00000000       0.00628520      -0.00000000 </v>
   <v>      -0.01124006      -0.05081219      -0.00000000 </v>
   <v>      -0.03762755       0.05321339       0.06517283 </v>
   <v>      -0.03762755       0.05321339      -0.06517283 </v>
   <v>      -0.00296287      -0.00209507       0.00513184 </v>
   <v>      -0.07525510      -0.05321339      -0.00000000 </v>
   <v>      -0.00296287      -0.00209507      -0.00513184 </v>
  </varray>
  <varray name="stress" >
   <v>      21.10504298       0.00000000      -0.00000000 </v>
   <v>       0.00000000      21.10504305      -0.00000000 </v>
   <v>       0.00000000       0.00000000      21.10504306 </v>
  </varray>
  <energy>
   <i name="e_fr_energy">   -287.18708105 </i>
   <i name="e_wo_entrp">   -287.18708105 </i>
   <i name="e_0_energy">     -0.00000000 </i>
  </energy>
  <time name="totalsc">   43.36   43.79</time>
 </calculation>
 <calculation>
  <scstep>
   <time name="dav">    3.40    3.43</time>
   <time name="total">    3.66    3.70</time>
   <energy>
    <i name="alphaZ">     93.27357238 </i>
    <i name="ewald">  -6118.40295142 </i>
    <i name="hartreedc">   -406.74284524 </i>
    <i name="XCdc">   -467.76332846 </i>
    <i name="pawpsdc">  22890.61785859 </i>
    <i name="pawaedc"> -21963.24828461 </i>
    <i name="eentropy">     -0.00000000 </i>
    <i name="bandstr">    151.07759382 </i>
    <i name="atom">   5533.69225236 </i>
    <i name="e_fr_energy">   -287.49613258 </i>
    <i name="e_wo_entrp">   -287.49613258 </i>
    <i name="e_0_energy">   -287.49613258 </i>
   </energy>
  </scstep>
  <scstep>
   <time name="dav">    4.19    4.23</time>
   <time name="total">    4.44    4.49</time>
   <energy>
    <i name="e_fr_energy">   -287.55492509 </i>
    <i name="e_wo_entrp">   -287.55492509 </i>
    <i name="e_0_energy">   -287.55492509 </i>
   </energy>
  </scstep>
  <scstep>
   <time name="dav">    3.86    3.89</time>
   <time name="total">    4.11    4.15</time>
   <energy>
    <i name="e_fr_energy">   -287.53356199 </i>
    <i name="e_wo_entrp">   -287.53356199 </i>
    <i name="e_0_energy">   -287.53356199 </i>
   </energy>
  </scstep>
  <scstep>
   <time name="dav">    3.95    3.99</time>
   <time name="total">    4.21    4.25</time>
   <energy>
    <i name="e_fr_energy">   -287.52455317 </i>
    <i name="e_wo_entrp">   -287.52455317 </i>
    <i name="e_0_energy">   -287.52455317 </i>
   </energy>
  </scstep>
  <scstep>
   <time name="dav">    4.18    4.22</time>
   <time name="total">    4.44    4.48</time>
   <energy>
    <i name="e_fr_energy">   -287.52434803 </i>
    <i name="e_wo_entrp">   -287.52434803 </i>
    <i name="e_0_energy">   -287.52434803 </i>
   </energy>
  </scstep>
  <scstep>
   <time name="dav">    4.56    4.60</time>
   <time name="total">    4.82    4.86</time>
   <energy>
    <i name="e_fr_energy">   -287.52423746 </i>
    <i name="e_wo_entrp">   -287.52423746 </i>
    <i name="e_0_energy">   -287.52423746 </i>
   </energy>
  </scstep>
  <scstep>
   <time name="dav">    3.76    3.80</time>
   <time name="total">    4.03    4.06</time>
   <energy>
    <i name="e_fr_energy">   -287.52426134 </i>
    <i name="e_wo_entrp">   -287.52426134 </i>
    <i name="e_0_energy">   -287.52426134 </i>
   </energy>
  </scstep>
  <scstep>
   <time name="dav">    4.01    4.05</time>
   <time name="total">    4.11    4.15</time>
   <energy>
    <i name="alphaZ">     93.27357238 </i>
    <i name="ewald">  -6118.40295142 </i>
    <i name="hartreedc">   -407.22518915 </i>
    <i name="XCdc">   -467.76440634 </i>
    <i name="pawpsdc">  22737.00529555 </i>
    <i name="pawaedc"> -21809.56016188 </i>
    <i name="eentropy">     -0.00000000 </i>
    <i name="bandstr">    151.45732568 </i>
    <i name="atom">   5533.69225236 </i>
    <i name="e_fr_energy">   -287.52426282 </i>
    <i name="e_wo_entrp">   -287.52426282 </i>
    <i name="e_0_energy">   -287.52426282 </i>
   </energy>
  </scstep>
  <structure>
   <crystal>
    <varray name="basis" >
     <v>       9.97646553       0.00000000       5.75991507 </v>
     <v>       3.32548851       9.40590192       5.75991507 </v>
     <v>       0.00000000       0.00000000      11.51983014 </v>
    </varray>
    <i name="volume">   1080.99386112 </i>
    <varray name="rec_basis" >
     <v>       0.10023590      -0.03543874       0.00000000 </v>
     <v>       0.00000000       0.10631623       0.00000000 </v>
     <v>      -0.05011795      -0.03543874       0.08680684 </v>
    </varray>
   </crystal>
   <varray name="positions" >
    <v>       0.29166667       0.29166667       0.29166667 </v>
    <v>       0.29303857       0.29303857       0.62297301 </v>
    <v>       0.29303857       0.29303857       0.95761652 </v>
    <v>       0.29303857       0.62297301       0.29303857 </v>
    <v>       0.29231471       0.62478398       0.62478398 </v>
    <v>       0.29303857       0.62297301       0.95761652 </v>
    <v>       0.29303857       0.95761652       0.29303857 </v>
    <v>       0.29303857       0.95761652       0.62297301 </v>
    <v>       0.29248951       0.95805905       0.95805905 </v>
    <v>       0.62297301       0.29303857       0.29303857 </v>
    <v>       0.62478398       0.29231471       0.62478398 </v>
    <v>       0.62297301       0.29303857       0.95761652 </v>
    <v>       0.62478398       0.62478398       0.29231471 </v>
    <v>       0.62478398       0.62478398       0.62478398 </v>
    <v>       0.62492505       0.62492505       0.95840828 </v>
    <v>       0.62297301       0.95761652       0.29303857 </v>
    <v>       0.62492505       0.95840828       0.62492505 </v>
    <v>       0.62492505       0.95840828       0.95840828 </v>
    <v>       0.95761652       0.29303857       0.29303857 </v>
    <v>       0.95761652       0.29303857       0.62297301 </v>
    <v>       0.95805905       0.29248951       0.95805905 </v>
    <v>       0.95761652       0.62297301       0.29303857 </v>
    <v>       0.95840828       0.62492505       0.62492505 </v>
    <v>       0.95840828       0.62492505       0.95840828 </v>
    <v>       0.95805905       0.95805905       0.29248951 </v>
    <v>       0.95840828       0.95840828       0.62492505 </v>
    <v>       0.95805905       0.95805905       0.95805905 </v>
    <v>       0.04166667       0.04166667       0.04166667 </v>
    <v>       0.04195411       0.04195411       0.37422519 </v>
    <v>       0.04195411       0.04195411       0.70853326 </v>
    <v>       0.04195411       0.37422519       0.04195411 </v>
    <v>       0.06580299       0.36695456       0.36695456 </v>
    <v>       0.04195411       0.37422519       0.70853326 </v>
    <v>       0.04195411       0.70853326       0.04195411 </v>
    <v>       0.04195411       0.70853326       0.37422519 </v>
    <v>       0.04160814       0.70835284       0.70835284 </v>
    <v>       0.37422519       0.04195411       0.04195411 </v>
    <v>       0.36695456       0.06580299       0.36695456 </v>
    <v>       0.37422519       0.04195411       0.70853326 </v>
    <v>       0.36695456       0.36695456       0.06580299 </v>
    <v>       0.36695456       0.36695456       0.36695456 </v>
    <v>       0.37381902       0.37381902       0.70951431 </v>
    <v>       0.37422519       0.70853326       0.04195411 </v>
    <v>       0.37381902       0.70951431       0.37381902 </v>
    <v>       0.37381902       0.70951431       0.70951431 </v>
    <v>       0.70853326       0.04195411       0.04195411 </v>
    <v>       0.70853326       0.04195411       0.37422519 </v>
    <v>       0.70835284       0.04160814       0.70835284 </v>
    <v>       0.70853326       0.37422519       0.04195411 </v>
    <v>       0.70951431       0.37381902       0.37381902 </v>
    <v>       0.70951431       0.37381902       0.70951431 </v>
    <v>       0.70835284       0.70835284       0.04160814 </v>
    <v>       0.70951431       0.70951431       0.37381902 </v>
    <v>       0.70835284       0.70835284       0.70835284 </v>
   </varray>
  </structure>
  <varray name="forces" >
   <v>      -0.00000000       0.00000000      -0.00000000 </v>
   <v>      -0.11122980      -0.07865135      -0.64845650 </v>
   <v>      -0.11122980      -0.07865135       0.64845650 </v>
   <v>      -0.24280817      -0.45081117      -0.42055608 </v>
   <v>      -0.01745737       0.00617211      -0.00000000 </v>
   <v>      -0.24280817      -0.45081117       0.42055608 </v>
   <v>       0.13157837       0.60811386       0.22790042 </v>
   <v>       0.13157837       0.60811386      -0.22790042 </v>
   <v>      -0.03482997       0.01231425      -0.00000000 </v>
   <v>      -0.50596490      -0.07865135      -0.42055608 </v>
   <v>      -0.00000000      -0.01851634      -0.00000000 </v>
   <v>      -0.50596490      -0.07865135       0.42055608 </v>
   <v>       0.00872869       0.00617211      -0.01511853 </v>
   <v>       0.00872869       0.00617211       0.01511853 </v>
   <v>      -0.05771681      -0.04081195      -0.00000000 </v>
   <v>      -0.26315673       0.60811386      -0.00000000 </v>
   <v>      -0.02885841       0.04081195      -0.04998423 </v>
   <v>      -0.02885841       0.04081195       0.04998423 </v>
   <v>       0.61719470      -0.07865135       0.22790042 </v>
   <v>       0.61719470      -0.07865135      -0.22790042 </v>
   <v>      -0.00000000      -0.03694276      -0.00000000 </v>
   <v>       0.48561633      -0.45081117      -0.00000000 </v>
   <v>       0.02885841      -0.04081195      -0.04998423 </v>
   <v>       0.02885841      -0.04081195       0.04998423 </v>
   <v>       0.01741499       0.01231425      -0.03016364 </v>
   <v>       0.05771681       0.04081195      -0.00000000 </v>
   <v>       0.01741499       0.01231425       0.03016364 </v>
   <v>      -0.00000000       0.00000000      -0.00000000 </v>
   <v>       0.02377831       0.01681380      -0.01021890 </v>
   <v>       0.02377831       0.01681380       0.01021890 </v>
   <v>       0.00893921      -0.02515750       0.01548317 </v>
   <v>      -0.00103400       0.00036557      -0.00000000 </v>
   <v>       0.00893921      -0.02515750      -0.01548317 </v>
   <v>       0.01483910      -0.00847011       0.02570207 </v>
   <v>       0.01483910      -0.00847011      -0.02570207 </v>
   <v>       0.01670801      -0.00590717      -0.00000000 </v>
   <v>      -0.02073898       0.01681380       0.01548317 </v>
   <v>      -0.00000000      -0.00109672      -0.00000000 </v>
   <v>      -0.02073898       0.01681380      -0.01548317 </v>
   <v>       0.00051700       0.00036557      -0.00089547 </v>
   <v>       0.00051700       0.00036557       0.00089547 </v>
   <v>       0.32164920       0.22744033      -0.00000000 </v>
   <v>      -0.02967819      -0.00847011      -0.00000000 </v>
   <v>       0.16082460      -0.22744033       0.27855638 </v>
   <v>       0.16082460      -0.22744033      -0.27855638 </v>
   <v>      -0.00303933       0.01681380       0.02570207 </v>
   <v>      -0.00303933       0.01681380      -0.02570207 </v>
   <v>      -0.00000000       0.01772152      -0.00000000 </v>
   <v>      -0.01787843      -0.02515750      -0.00000000 </v>
   <v>      -0.16082460       0.22744033       0.27855638 </v>
   <v>      -0.16082460       0.22744033      -0.27855638 </v>
   <v>      -0.00835400      -0.00590717       0.01446956 </v>
   <v>      -0.32164920      -0.22744033      -0.00000000 </v>
   <v>      -0.00835400      -0.00590717      -0.01446956 </v>
  </varray>
  <varray name="stress" >
   <v>      19.21883616      -0.00000000      -0.00000000 </v>
   <v>       0.00000000      19.21883622      -0.00000000 </v>
   <v>      -0.00000000      -0.00000000      19.21883623 </v>
  </varray>
  <energy>
   <i name="e_fr_energy">   -287.52426282 </i>
   <i name="e_wo_entrp">   -287.52426282 </i>
   <i name="e_0_energy">     -0.00000000 </i>
  </energy>
  <time name="totalsc">   42.29   42.70</time>
 </calculation>
 <calculation>
  <scstep>
   <time name="dav">    3.76    3.80</time>
   <time name="total">    5.09    5.15</time>
   <energy>
    <i name="alphaZ">     93.27357238 </i>
    <i name="ewald">  -6116.51673151 </i>
    <i name="hartreedc">   -409.40213573 </i>
    <i name="XCdc">   -467.77153922 </i>
    <i name="pawpsdc">  22734.12270100 </i>
    <i name="pawaedc"> -21806.67771862 </i>
    <i name="eentropy">     -0.00000000 </i>
    <i name="bandstr">    151.60205255 </i>
    <i name="atom">   5533.69225236 </i>
    <i name="e_fr_energy">   -287.67754679 </i>
    <i name="e_wo_entrp">   -287.67754679 </i>
    <i name="e_0_energy">   -287.67754679 </i>
   </energy>
  </scstep>
  <scstep>
   <time name="dav">    4.23    4.27</time>
   <time name="total">    4.52    4.56</time>
   <energy>
    <i name="e_fr_energy">   -287.72070707 </i>
    <i name="e_wo_entrp">   -287.72070707 </i>
    <i name="e_0_energy">   -287.72070707 </i>
   </energy>
  </scstep>
  <scstep>
   <time name="dav">    3.90    3.94</time>
   <time name="total">    4.16    4.20</time>
   <energy>
    <i name="e_fr_energy">   -287.71253896 </i>
    <i name="e_wo_entrp">   -287.71253896 </i>
    <i name="e_0_energy">   -287.71253896 </i>
   </energy>
  </scstep>
  <scstep>
   <time name="dav">    3.88    3.91</time>
   <time name="total">    4.14    4.18</time>
   <energy>
    <i name="e_fr_energy">   -287.70952279 </i>
    <i name="e_wo_entrp">   -287.70952279 </i>
    <i name="e_0_energy">   -287.70952279 </i>
   </energy>
  </scstep>
  <scstep>
   <time name="dav">    4.33    4.37</time>
   <time name="total">    4.59    4.63</time>
   <energy>
    <i name="e_fr_energy">   -287.70941655 </i>
    <i name="e_wo_entrp">   -287.70941655 </i>
    <i name="e_0_energy">   -287.70941655 </i>
   </energy>
  </scstep>
  <scstep>
   <time name="dav">    4.04    4.08</time>
   <time name="total">    4.30    4.34</time>
   <energy>
    <i name="e_fr_energy">   -287.70958780 </i>
    <i name="e_wo_entrp">   -287.70958780 </i>
    <i name="e_0_energy">   -287.70958780 </i>
   </energy>
  </scstep>
  <scstep>
   <time name="dav">    3.91    3.94</time>
   <time name="total">    4.16    4.20</time>
   <energy>
    <i name="e_fr_energy">   -287.70957534 </i>
    <i name="e_wo_entrp">   -287.70957534 </i>
    <i name="e_0_energy">   -287.70957534 </i>
   </energy>
  </scstep>
  <scstep>
   <time name="dav">    4.04    4.07</time>
   <time name="total">    4.30    4.34</time>
   <energy>
    <i name="e_fr_energy">   -287.70955408 </i>
    <i name="e_wo_entrp">   -287.70955408 </i>
    <i name="e_0_energy">   -287.70955408 </i>
   </energy>
  </scstep>
  <scstep>
   <time name="dav">    3.95    3.98</time>
   <time name="total">    4.04    4.08</time>
   <energy>
    <i name="alphaZ">     93.27357238 </i>
    <i name="ewald">  -6116.51673151 </i>
    <i name="hartreedc">   -409.70960977 </i>
    <i name="XCdc">   -467.76202296 </i>
    <i name="pawpsdc">  22671.00298508 </i>
    <i name="pawaedc"> -21743.52913903 </i>
    <i name="eentropy">     -0.00000000 </i>
    <i name="bandstr">    151.83913851 </i>
    <i name="atom">   5533.69225236 </i>
    <i name="e_fr_energy">   -287.70955493 </i>
    <i name="e_wo_entrp">   -287.70955493 </i>
    <i name="e_0_energy">   -287.70955493 </i>
   </energy>
  </scstep>
  <structure>
   <crystal>
    <varray name="basis" >
     <v>       9.97646553       0.00000000       5.75991507 </v>
     <v>       3.32548851       9.40590192       5.75991507 </v>
     <v>       0.00000000       0.00000000      11.51983014 </v>
    </varray>
    <i name="volume">   1080.99386112 </i>
    <varray name="rec_basis" >
     <v>       0.10023590      -0.03543874       0.00000000 </v>
     <v>       0.00000000       0.10631623       0.00000000 </v>
     <v>      -0.05011795      -0.03543874       0.08680684 </v>
    </varray>
   </crystal>
   <varray name="positions" >
    <v>       0.29166667       0.29166667       0.29166667 </v>
    <v>       0.29278854       0.29278854       0.61981934 </v>
    <v>       0.29278854       0.29278854       0.96127025 </v>
    <v>       0.29278854       0.61981934       0.29278854 </v>
    <v>       0.29231240       0.62478475       0.62478475 </v>
    <v>       0.29278854       0.61981934       0.96127025 </v>
    <v>       0.29278854       0.96127025       0.29278854 </v>
    <v>       0.29278854       0.96127025       0.61981934 </v>
    <v>       0.29240312       0.95808785       0.95808785 </v>
    <v>       0.61981934       0.29278854       0.29278854 </v>
    <v>       0.62478475       0.29231240       0.62478475 </v>
    <v>       0.61981934       0.29278854       0.96127025 </v>
    <v>       0.62478475       0.62478475       0.29231240 </v>
    <v>       0.62478475       0.62478475       0.62478475 </v>
    <v>       0.62465843       0.62465843       0.95867490 </v>
    <v>       0.61981934       0.96127025       0.29278854 </v>
    <v>       0.62465843       0.95867490       0.62465843 </v>
    <v>       0.62465843       0.95867490       0.95867490 </v>
    <v>       0.96127025       0.29278854       0.29278854 </v>
    <v>       0.96127025       0.29278854       0.61981934 </v>
    <v>       0.95808785       0.29240312       0.95808785 </v>
    <v>       0.96127025       0.61981934       0.29278854 </v>
    <v>       0.95867490       0.62465843       0.62465843 </v>
    <v>       0.95867490       0.62465843       0.95867490 </v>
    <v>       0.95808785       0.95808785       0.29240312 </v>
    <v>       0.95867490       0.95867490       0.62465843 </v>
    <v>       0.95808785       0.95808785       0.95808785 </v>
    <v>       0.04166667       0.04166667       0.04166667 </v>
    <v>       0.04210858       0.04210858       0.37393409 </v>
    <v>       0.04210858       0.04210858       0.70851541 </v>
    <v>       0.04210858       0.37393409       0.04210858 </v>
    <v>       0.06999504       0.36555721       0.36555721 </v>
    <v>       0.04210858       0.37393409       0.70851541 </v>
    <v>       0.04210858       0.70851541       0.04210858 </v>
    <v>       0.04210858       0.70851541       0.37393409 </v>
    <v>       0.04170807       0.70831953       0.70831953 </v>
    <v>       0.37393409       0.04210858       0.04210858 </v>
    <v>       0.36555721       0.06999504       0.36555721 </v>
    <v>       0.37393409       0.04210858       0.70851541 </v>
    <v>       0.36555721       0.36555721       0.06999504 </v>
    <v>       0.36555721       0.36555721       0.36555721 </v>
    <v>       0.37502674       0.37502674       0.70830660 </v>
    <v>       0.37393409       0.70851541       0.04210858 </v>
    <v>       0.37502674       0.70830660       0.37502674 </v>
    <v>       0.37502674       0.70830660       0.70830660 </v>
    <v>       0.70851541       0.04210858       0.04210858 </v>
    <v>       0.70851541       0.04210858       0.37393409 </v>
    <v>       0.70831953       0.04170807       0.70831953 </v>
    <v>       0.70851541       0.37393409       0.04210858 </v>
    <v>       0.70830660       0.37502674       0.37502674 </v>
    <v>       0.70830660       0.37502674       0.70830660 </v>
    <v>       0.70831953       0.70831953       0.04170807 </v>
    <v>       0.70830660       0.70830660       0.37502674 </v>
    <v>       0.70831953       0.70831953       0.70831953 </v>
   </varray>
  </structure>
  <varray name="forces" >
   <v>      -0.00000000       0.00000000      -0.00000000 </v>
   <v>       0.02423183       0.01713449      -0.11788506 </v>
   <v>       0.02423183       0.01713449       0.11788506 </v>
   <v>      -0.02191457      -0.11338724      -0.03795715 </v>
   <v>      -0.01654131       0.00584824      -0.00000000 </v>
   <v>      -0.02191457      -0.11338724       0.03795715 </v>
   <v>       0.04614640       0.07911826       0.07992791 </v>
   <v>       0.04614640       0.07911826      -0.07992791 </v>
   <v>      -0.06216361       0.02197816      -0.00000000 </v>
   <v>      -0.11420737       0.01713449      -0.03795715 </v>
   <v>      -0.00000000      -0.01754471      -0.00000000 </v>
   <v>      -0.11420737       0.01713449       0.03795715 </v>
   <v>       0.00827066       0.00584824      -0.01432520 </v>
   <v>       0.00827066       0.00584824       0.01432520 </v>
   <v>      -0.02819899      -0.01993970      -0.00000000 </v>
   <v>      -0.09229280       0.07911826      -0.00000000 </v>
   <v>      -0.01409950       0.01993970      -0.02442104 </v>
   <v>      -0.01409950       0.01993970       0.02442104 </v>
   <v>       0.08997554       0.01713449       0.07992791 </v>
   <v>       0.08997554       0.01713449      -0.07992791 </v>
   <v>       0.00000000      -0.06593447      -0.00000000 </v>
   <v>       0.04382914      -0.11338724      -0.00000000 </v>
   <v>       0.01409950      -0.01993970      -0.02442104 </v>
   <v>       0.01409950      -0.01993970       0.02442104 </v>
   <v>       0.03108181       0.02197816      -0.05383527 </v>
   <v>       0.02819899       0.01993970      -0.00000000 </v>
   <v>       0.03108181       0.02197816       0.05383527 </v>
   <v>      -0.00000000       0.00000000      -0.00000000 </v>
   <v>       0.03973084       0.02809395       0.02973431 </v>
   <v>       0.03973084       0.02809395      -0.02973431 </v>
   <v>       0.02844897      -0.00381598       0.04927507 </v>
   <v>      -0.18413011       0.06509982       0.00000000 </v>
   <v>       0.02844897      -0.00381598      -0.04927507 </v>
   <v>       0.01128186      -0.05237191       0.01954076 </v>
   <v>       0.01128186      -0.05237191      -0.01954076 </v>
   <v>      -0.00511481       0.00180836      -0.00000000 </v>
   <v>       0.00588525       0.02809395       0.04927507 </v>
   <v>       0.00000000      -0.19529947       0.00000000 </v>
   <v>       0.00588525       0.02809395      -0.04927507 </v>
   <v>       0.09206505       0.06509982      -0.15946135 </v>
   <v>       0.09206505       0.06509982       0.15946135 </v>
   <v>      -0.07868036      -0.05563542      -0.00000000 </v>
   <v>      -0.02256373      -0.05237191      -0.00000000 </v>
   <v>      -0.03934018       0.05563542      -0.06813919 </v>
   <v>      -0.03934018       0.05563542       0.06813919 </v>
   <v>      -0.04561609       0.02809395       0.01954076 </v>
   <v>      -0.04561609       0.02809395      -0.01954076 </v>
   <v>      -0.00000000      -0.00542508      -0.00000000 </v>
   <v>      -0.05689795      -0.00381598      -0.00000000 </v>
   <v>       0.03934018      -0.05563542      -0.06813919 </v>
   <v>       0.03934018      -0.05563542       0.06813919 </v>
   <v>       0.00255741       0.00180836      -0.00442956 </v>
   <v>       0.07868036       0.05563542      -0.00000000 </v>
   <v>       0.00255741       0.00180836       0.00442956 </v>
  </varray>
  <varray name="stress" >
   <v>      18.54707149      -0.00000000      -0.00000000 </v>
   <v>       0.00000000      18.54707155       0.00000000 </v>
   <v>      -0.00000000       0.00000000      18.54707156 </v>
  </varray>
  <energy>
   <i name="e_fr_energy">   -287.70955493 </i>
   <i name="e_wo_entrp">   -287.70955493 </i>
   <i name="e_0_energy">     -0.00000000 </i>
  </energy>
  <time name="totalsc">   47.79   48.25</time>
 </calculation>
 <calculation>
  <scstep>
   <time name="dav">    3.71    3.75</time>
   <time name="total">    3.97    4.01</time>
   <energy>
    <i name="alphaZ">     93.27357238 </i>
    <i name="ewald">  -6116.37218742 </i>
    <i name="hartreedc">   -409.85293621 </i>
    <i name="XCdc">   -467.76173928 </i>
    <i name="pawpsdc">  22669.86276265 </i>
    <i name="pawaedc"> -21742.38908174 </i>
    <i name="eentropy">     -0.00000000 </i>
    <i name="bandstr">    151.83756616 </i>
    <i name="atom">   5533.69225236 </i>
    <i name="e_fr_energy">   -287.70979110 </i>
    <i name="e_wo_entrp">   -287.70979110 </i>
    <i name="e_0_energy">   -287.70979110 </i>
   </energy>
  </scstep>
  <scstep>
   <time name="dav">    4.04    4.07</time>
   <time name="total">    4.30    4.33</time>
   <energy>
    <i name="e_fr_energy">   -287.70986785 </i>
    <i name="e_wo_entrp">   -287.70986785 </i>
    <i name="e_0_energy">   -287.70986785 </i>
   </energy>
  </scstep>
  <scstep>
   <time name="dav">    3.59    3.62</time>
   <time name="total">    3.85    3.88</time>
   <energy>
    <i name="e_fr_energy">   -287.70985460 </i>
    <i name="e_wo_entrp">   -287.70985460 </i>
    <i name="e_0_energy">   -287.70985460 </i>
   </energy>
  </scstep>
  <scstep>
   <time name="dav">    3.77    3.82</time>
   <time name="total">    3.86    3.91</time>
   <energy>
    <i name="alphaZ">     93.27357238 </i>
    <i name="ewald">  -6116.37218742 </i>
    <i name="hartreedc">   -409.86862024 </i>
    <i name="XCdc">   -467.76123795 </i>
    <i name="pawpsdc">  22667.59715018 </i>
    <i name="pawaedc"> -21740.12292887 </i>
    <i name="eentropy">     -0.00000000 </i>
    <i name="bandstr">    151.85214717 </i>
    <i name="atom">   5533.69225236 </i>
    <i name="e_fr_energy">   -287.70985238 </i>
    <i name="e_wo_entrp">   -287.70985238 </i>
    <i name="e_0_energy">   -287.70985238 </i>
   </energy>
  </scstep>
  <structure>
   <crystal>
    <varray name="basis" >
     <v>       9.97646553       0.00000000       5.75991507 </v>
     <v>       3.32548851       9.40590192       5.75991507 </v>
     <v>       0.00000000       0.00000000      11.51983014 </v>
    </varray>
    <i name="volume">   1080.99386112 </i>
    <varray name="rec_basis" >
     <v>       0.10023590      -0.03543874       0.00000000 </v>
     <v>       0.00000000       0.10631623       0.00000000 </v>
     <v>      -0.05011795      -0.03543874       0.08680684 </v>
    </varray>
   </crystal>
   <varray name="positions" >
    <v>       0.29166667       0.29166667       0.29166667 </v>
    <v>       0.29277816       0.29277816       0.61968842 </v>
    <v>       0.29277816       0.29277816       0.96142193 </v>
    <v>       0.29277816       0.61968842       0.29277816 </v>
    <v>       0.29231231       0.62478479       0.62478479 </v>
    <v>       0.29277816       0.61968842       0.96142193 </v>
    <v>       0.29277816       0.96142193       0.29277816 </v>
    <v>       0.29277816       0.96142193       0.61968842 </v>
    <v>       0.29239953       0.95808904       0.95808904 </v>
    <v>       0.61968842       0.29277816       0.29277816 </v>
    <v>       0.62478479       0.29231231       0.62478479 </v>
    <v>       0.61968842       0.29277816       0.96142193 </v>
    <v>       0.62478479       0.62478479       0.29231231 </v>
    <v>       0.62478479       0.62478479       0.62478479 </v>
    <v>       0.62464736       0.62464736       0.95868597 </v>
    <v>       0.61968842       0.96142193       0.29277816 </v>
    <v>       0.62464736       0.95868597       0.62464736 </v>
    <v>       0.62464736       0.95868597       0.95868597 </v>
    <v>       0.96142193       0.29277816       0.29277816 </v>
    <v>       0.96142193       0.29277816       0.61968842 </v>
    <v>       0.95808904       0.29239953       0.95808904 </v>
    <v>       0.96142193       0.61968842       0.29277816 </v>
    <v>       0.95868597       0.62464736       0.62464736 </v>
    <v>       0.95868597       0.62464736       0.95868597 </v>
    <v>       0.95808904       0.95808904       0.29239953 </v>
    <v>       0.95868597       0.95868597       0.62464736 </v>
    <v>       0.95808904       0.95808904       0.95808904 </v>
    <v>       0.04166667       0.04166667       0.04166667 </v>
    <v>       0.04211499       0.04211499       0.37392201 </v>
    <v>       0.04211499       0.04211499       0.70851467 </v>
    <v>       0.04211499       0.37392201       0.04211499 </v>
    <v>       0.07016907       0.36549920       0.36549920 </v>
    <v>       0.04211499       0.37392201       0.70851467 </v>
    <v>       0.04211499       0.70851467       0.04211499 </v>
    <v>       0.04211499       0.70851467       0.37392201 </v>
    <v>       0.04171222       0.70831815       0.70831815 </v>
    <v>       0.37392201       0.04211499       0.04211499 </v>
    <v>       0.36549920       0.07016907       0.36549920 </v>
    <v>       0.37392201       0.04211499       0.70851467 </v>
    <v>       0.36549920       0.36549920       0.07016907 </v>
    <v>       0.36549920       0.36549920       0.36549920 </v>
    <v>       0.37507687       0.37507687       0.70825646 </v>
    <v>       0.37392201       0.70851467       0.04211499 </v>
    <v>       0.37507687       0.70825646       0.37507687 </v>
    <v>       0.37507687       0.70825646       0.70825646 </v>
    <v>       0.70851467       0.04211499       0.04211499 </v>
    <v>       0.70851467       0.04211499       0.37392201 </v>
    <v>       0.70831815       0.04171222       0.70831815 </v>
    <v>       0.70851467       0.37392201       0.04211499 </v>
    <v>       0.70825646       0.37507687       0.37507687 </v>
    <v>       0.70825646       0.37507687       0.70825646 </v>
    <v>       0.70831815       0.70831815       0.04171222 </v>
    <v>       0.70825646       0.70825646       0.37507687 </v>
    <v>       0.70831815       0.70831815       0.70831815 </v>
   </varray>
  </structure>
  <varray name="forces" >
   <v>      -0.00000000       0.00000000       0.00000000 </v>
   <v>       0.02945988       0.02083128      -0.09700915 </v>
   <v>       0.02945988       0.02083128       0.09700915 </v>
   <v>      -0.01327419      -0.10003892      -0.02299157 </v>
   <v>      -0.01660470       0.00587065       0.00000000 </v>
   <v>      -0.01327419      -0.10003892       0.02299157 </v>
   <v>       0.04273407       0.05837635       0.07401758 </v>
   <v>       0.04273407       0.05837635      -0.07401758 </v>
   <v>      -0.06321824       0.02235102       0.00000000 </v>
   <v>      -0.09874233       0.02083128      -0.02299157 </v>
   <v>      -0.00000000      -0.01761195       0.00000000 </v>
   <v>      -0.09874233       0.02083128       0.02299157 </v>
   <v>       0.00830235       0.00587065      -0.01438010 </v>
   <v>       0.00830235       0.00587065       0.01438010 </v>
   <v>      -0.02701238      -0.01910064       0.00000000 </v>
   <v>      -0.08546814       0.05837635      -0.00000000 </v>
   <v>      -0.01350619       0.01910064      -0.02339341 </v>
   <v>      -0.01350619       0.01910064       0.02339341 </v>
   <v>       0.06928244       0.02083128       0.07401758 </v>
   <v>       0.06928244       0.02083128      -0.07401758 </v>
   <v>       0.00000000      -0.06705307       0.00000000 </v>
   <v>       0.02654837      -0.10003892       0.00000000 </v>
   <v>       0.01350619      -0.01910064      -0.02339341 </v>
   <v>       0.01350619      -0.01910064       0.02339341 </v>
   <v>       0.03160912       0.02235102      -0.05474860 </v>
   <v>       0.02701238       0.01910064       0.00000000 </v>
   <v>       0.03160912       0.02235102       0.05474860 </v>
   <v>      -0.00000000       0.00000000       0.00000000 </v>
   <v>       0.04046702       0.02861451       0.03122318 </v>
   <v>       0.04046702       0.02861451      -0.03122318 </v>
   <v>       0.02924687      -0.00312088       0.05065706 </v>
   <v>      -0.19296435       0.06822320      -0.00000000 </v>
   <v>       0.02924687      -0.00312088      -0.05065706 </v>
   <v>       0.01122015      -0.05410813       0.01943388 </v>
   <v>       0.01122015      -0.05410813      -0.01943388 </v>
   <v>      -0.00613381       0.00216863       0.00000000 </v>
   <v>       0.00680656       0.02861451       0.05065706 </v>
   <v>       0.00000000      -0.20466960      -0.00000000 </v>
   <v>       0.00680656       0.02861451      -0.05065706 </v>
   <v>       0.09648218       0.06822320      -0.16711203 </v>
   <v>       0.09648218       0.06822320       0.16711203 </v>
   <v>      -0.09456177      -0.06686527       0.00000000 </v>
   <v>      -0.02244031      -0.05410813       0.00000000 </v>
   <v>      -0.04728089       0.06686527      -0.08189290 </v>
[...]
        <r>  0.0010  0.0015  0.0000 </r>
       </set>
       <set comment="band 138">
        <r>  0.0000  0.0023  0.0000 </r>
        <r>  0.0008  0.0032  0.0000 </r>
        <r>  0.0008  0.0032  0.0000 </r>
        <r>  0.0004  0.0023  0.0000 </r>
        <r>  0.0002  0.0015  0.0000 </r>
        <r>  0.0008  0.0032  0.0000 </r>
        <r>  0.0004  0.0023  0.0000 </r>
        <r>  0.0008  0.0032  0.0000 </r>
        <r>  0.0000  0.0024  0.0000 </r>
        <r>  0.0008  0.0032  0.0000 </r>
        <r>  0.0002  0.0015  0.0000 </r>
        <r>  0.0004  0.0023  0.0000 </r>
        <r>  0.0002  0.0015  0.0000 </r>
        <r>  0.0002  0.0015  0.0000 </r>
        <r>  0.0004  0.0023  0.0000 </r>
        <r>  0.0008  0.0032  0.0000 </r>
        <r>  0.0000  0.0073  0.0000 </r>
        <r>  0.0004  0.0023  0.0000 </r>
        <r>  0.0008  0.0032  0.0000 </r>
        <r>  0.0004  0.0023  0.0000 </r>
        <r>  0.0000  0.0024  0.0000 </r>
        <r>  0.0008  0.0032  0.0000 </r>
        <r>  0.0004  0.0023  0.0000 </r>
        <r>  0.0000  0.0073  0.0000 </r>
        <r>  0.0000  0.0024  0.0000 </r>
        <r>  0.0004  0.0023  0.0000 </r>
        <r>  0.0000  0.0024  0.0000 </r>
        <r>  0.0000  0.0077  0.0000 </r>
        <r>  0.0000  0.0038  0.0000 </r>
        <r>  0.0000  0.0038  0.0000 </r>
        <r>  0.0001  0.0011  0.0000 </r>
        <r>  0.0002  0.0032  0.0000 </r>
        <r>  0.0000  0.0038  0.0000 </r>
        <r>  0.0001  0.0011  0.0000 </r>
        <r>  0.0000  0.0038  0.0000 </r>
        <r>  0.0007  0.0005  0.0000 </r>
        <r>  0.0000  0.0038  0.0000 </r>
        <r>  0.0002  0.0032  0.0000 </r>
        <r>  0.0001  0.0011  0.0000 </r>
        <r>  0.0002  0.0032  0.0000 </r>
        <r>  0.0002  0.0032  0.0000 </r>
        <r>  0.0009  0.0058  0.0000 </r>
        <r>  0.0000  0.0038  0.0000 </r>
        <r>  0.0004  0.0043  0.0000 </r>
        <r>  0.0009  0.0058  0.0000 </r>
        <r>  0.0000  0.0038  0.0000 </r>
        <r>  0.0001  0.0011  0.0000 </r>
        <r>  0.0007  0.0005  0.0000 </r>
        <r>  0.0000  0.0038  0.0000 </r>
        <r>  0.0009  0.0058  0.0000 </r>
        <r>  0.0004  0.0043  0.0000 </r>
        <r>  0.0007  0.0005  0.0000 </r>
        <r>  0.0009  0.0058  0.0000 </r>
        <r>  0.0007  0.0005  0.0000 </r>
       </set>
       <set comment="band 139">
        <r>  0.0000  0.0001  0.0000 </r>
        <r>  0.0004  0.0038  0.0000 </r>
        <r>  0.0004  0.0038  0.0000 </r>
        <r>  0.0000  0.0016  0.0000 </r>
        <r>  0.0007  0.0008  0.0000 </r>
        <r>  0.0004  0.0038  0.0000 </r>
        <r>  0.0000  0.0016  0.0000 </r>
        <r>  0.0004  0.0038  0.0000 </r>
        <r>  0.0003  0.0068  0.0000 </r>
        <r>  0.0004  0.0038  0.0000 </r>
        <r>  0.0007  0.0008  0.0000 </r>
        <r>  0.0000  0.0016  0.0000 </r>
        <r>  0.0007  0.0008  0.0000 </r>
        <r>  0.0007  0.0008  0.0000 </r>
        <r>  0.0021  0.0005  0.0000 </r>
        <r>  0.0004  0.0038  0.0000 </r>
        <r>  0.0024  0.0032  0.0000 </r>
        <r>  0.0021  0.0005  0.0000 </r>
        <r>  0.0004  0.0038  0.0000 </r>
        <r>  0.0000  0.0016  0.0000 </r>
        <r>  0.0003  0.0068  0.0000 </r>
        <r>  0.0004  0.0038  0.0000 </r>
        <r>  0.0021  0.0005  0.0000 </r>
        <r>  0.0024  0.0032  0.0000 </r>
        <r>  0.0003  0.0068  0.0000 </r>
        <r>  0.0021  0.0005  0.0000 </r>
        <r>  0.0003  0.0068  0.0000 </r>
        <r>  0.0000  0.0075  0.0000 </r>
        <r>  0.0008  0.0033  0.0000 </r>
        <r>  0.0008  0.0033  0.0000 </r>
        <r>  0.0033  0.0029  0.0000 </r>
        <r>  0.0025  0.0001  0.0000 </r>
        <r>  0.0008  0.0033  0.0000 </r>
        <r>  0.0033  0.0029  0.0000 </r>
        <r>  0.0008  0.0033  0.0000 </r>
        <r>  0.0012  0.0013  0.0000 </r>
        <r>  0.0008  0.0033  0.0000 </r>
        <r>  0.0025  0.0001  0.0000 </r>
        <r>  0.0033  0.0029  0.0000 </r>
        <r>  0.0025  0.0001  0.0000 </r>
        <r>  0.0025  0.0001  0.0000 </r>
        <r>  0.0024  0.0020  0.0000 </r>
        <r>  0.0008  0.0033  0.0000 </r>
        <r>  0.0000  0.0021  0.0000 </r>
        <r>  0.0024  0.0020  0.0000 </r>
        <r>  0.0008  0.0033  0.0000 </r>
        <r>  0.0033  0.0029  0.0000 </r>
        <r>  0.0012  0.0013  0.0000 </r>
        <r>  0.0008  0.0033  0.0000 </r>
        <r>  0.0024  0.0020  0.0000 </r>
        <r>  0.0000  0.0021  0.0000 </r>
        <r>  0.0012  0.0013  0.0000 </r>
        <r>  0.0024  0.0020  0.0000 </r>
        <r>  0.0012  0.0013  0.0000 </r>
       </set>
       <set comment="band 140">
        <r>  0.0000  0.0003  0.0000 </r>
        <r>  0.0003  0.0019  0.0000 </r>
        <r>  0.0003  0.0019  0.0000 </r>
        <r>  0.0002  0.0044  0.0000 </r>
        <r>  0.0011  0.0033  0.0000 </r>
        <r>  0.0003  0.0019  0.0000 </r>
        <r>  0.0002  0.0044  0.0000 </r>
        <r>  0.0003  0.0019  0.0000 </r>
        <r>  0.0003  0.0025  0.0000 </r>
        <r>  0.0003  0.0019  0.0000 </r>
        <r>  0.0011  0.0033  0.0000 </r>
        <r>  0.0002  0.0044  0.0000 </r>
        <r>  0.0011  0.0033  0.0000 </r>
        <r>  0.0011  0.0033  0.0000 </r>
        <r>  0.0015  0.0054  0.0000 </r>
        <r>  0.0003  0.0019  0.0000 </r>
        <r>  0.0000  0.0017  0.0000 </r>
        <r>  0.0015  0.0054  0.0000 </r>
        <r>  0.0003  0.0019  0.0000 </r>
        <r>  0.0002  0.0044  0.0000 </r>
        <r>  0.0003  0.0025  0.0000 </r>
        <r>  0.0003  0.0019  0.0000 </r>
        <r>  0.0015  0.0054  0.0000 </r>
        <r>  0.0000  0.0017  0.0000 </r>
        <r>  0.0003  0.0025  0.0000 </r>
        <r>  0.0015  0.0054  0.0000 </r>
        <r>  0.0003  0.0025  0.0000 </r>
        <r>  0.0001  0.0000  0.0000 </r>
        <r>  0.0017  0.0029  0.0000 </r>
        <r>  0.0017  0.0029  0.0000 </r>
        <r>  0.0000  0.0017  0.0000 </r>
        <r>  0.0001  0.0022  0.0000 </r>
        <r>  0.0017  0.0029  0.0000 </r>
        <r>  0.0000  0.0017  0.0000 </r>
        <r>  0.0017  0.0029  0.0000 </r>
        <r>  0.0007  0.0056  0.0000 </r>
        <r>  0.0017  0.0029  0.0000 </r>
        <r>  0.0001  0.0022  0.0000 </r>
        <r>  0.0000  0.0017  0.0000 </r>
        <r>  0.0001  0.0022  0.0000 </r>
        <r>  0.0001  0.0022  0.0000 </r>
        <r>  0.0000  0.0047  0.0000 </r>
        <r>  0.0017  0.0029  0.0000 </r>
        <r>  0.0001  0.0001  0.0000 </r>
        <r>  0.0000  0.0047  0.0000 </r>
        <r>  0.0017  0.0029  0.0000 </r>
        <r>  0.0000  0.0017  0.0000 </r>
        <r>  0.0007  0.0056  0.0000 </r>
        <r>  0.0017  0.0029  0.0000 </r>
        <r>  0.0000  0.0047  0.0000 </r>
        <r>  0.0001  0.0001  0.0000 </r>
        <r>  0.0007  0.0056  0.0000 </r>
        <r>  0.0000  0.0047  0.0000 </r>
        <r>  0.0007  0.0056  0.0000 </r>
       </set>
       <set comment="band 141">
        <r>  0.0000  0.0023  0.0000 </r>
        <r>  0.0005  0.0026  0.0000 </r>
        <r>  0.0005  0.0026  0.0000 </r>
        <r>  0.0004  0.0039  0.0000 </r>
        <r>  0.0001  0.0099  0.0000 </r>
        <r>  0.0005  0.0026  0.0000 </r>
        <r>  0.0004  0.0039  0.0000 </r>
        <r>  0.0005  0.0026  0.0000 </r>
        <r>  0.0027  0.0056  0.0000 </r>
        <r>  0.0005  0.0026  0.0000 </r>
        <r>  0.0001  0.0099  0.0000 </r>
        <r>  0.0004  0.0039  0.0000 </r>
        <r>  0.0001  0.0099  0.0000 </r>
        <r>  0.0001  0.0099  0.0000 </r>
        <r>  0.0001  0.0012  0.0000 </r>
        <r>  0.0005  0.0026  0.0000 </r>
        <r>  0.0000  0.0071  0.0000 </r>
        <r>  0.0001  0.0012  0.0000 </r>
        <r>  0.0005  0.0026  0.0000 </r>
        <r>  0.0004  0.0039  0.0000 </r>
        <r>  0.0027  0.0056  0.0000 </r>
        <r>  0.0005  0.0026  0.0000 </r>
        <r>  0.0001  0.0012  0.0000 </r>
        <r>  0.0000  0.0071  0.0000 </r>
        <r>  0.0027  0.0056  0.0000 </r>
        <r>  0.0001  0.0012  0.0000 </r>
        <r>  0.0027  0.0056  0.0000 </r>
        <r>  0.0000  0.0060  0.0000 </r>
        <r>  0.0007  0.0010  0.0000 </r>
        <r>  0.0007  0.0010  0.0000 </r>
        <r>  0.0001  0.0084  0.0000 </r>
        <r>  0.0003  0.0021  0.0000 </r>
        <r>  0.0007  0.0010  0.0000 </r>
        <r>  0.0001  0.0084  0.0000 </r>
        <r>  0.0007  0.0010  0.0000 </r>
        <r>  0.0000  0.0042  0.0000 </r>
        <r>  0.0007  0.0010  0.0000 </r>
        <r>  0.0003  0.0021  0.0000 </r>
        <r>  0.0001  0.0084  0.0000 </r>
        <r>  0.0003  0.0021  0.0000 </r>
        <r>  0.0003  0.0021  0.0000 </r>
        <r>  0.0052  0.0031  0.0000 </r>
        <r>  0.0007  0.0010  0.0000 </r>
        <r>  0.0003  0.0039  0.0000 </r>
        <r>  0.0052  0.0031  0.0000 </r>
        <r>  0.0007  0.0010  0.0000 </r>
        <r>  0.0001  0.0084  0.0000 </r>
        <r>  0.0000  0.0042  0.0000 </r>
        <r>  0.0007  0.0010  0.0000 </r>
        <r>  0.0052  0.0031  0.0000 </r>
        <r>  0.0003  0.0039  0.0000 </r>
        <r>  0.0000  0.0042  0.0000 </r>
        <r>  0.0052  0.0031  0.0000 </r>
        <r>  0.0000  0.0042  0.0000 </r>
       </set>
       <set comment="band 142">
        <r>  0.0000  0.0002  0.0000 </r>
        <r>  0.0001  0.0078  0.0000 </r>
        <r>  0.0001  0.0078  0.0000 </r>
        <r>  0.0010  0.0029  0.0000 </r>
        <r>  0.0009  0.0023  0.0000 </r>
        <r>  0.0001  0.0078  0.0000 </r>
        <r>  0.0010  0.0029  0.0000 </r>
        <r>  0.0001  0.0078  0.0000 </r>
        <r>  0.0018  0.0035  0.0000 </r>
        <r>  0.0001  0.0078  0.0000 </r>
        <r>  0.0009  0.0023  0.0000 </r>
        <r>  0.0010  0.0029  0.0000 </r>
        <r>  0.0009  0.0023  0.0000 </r>
        <r>  0.0009  0.0023  0.0000 </r>
        <r>  0.0004  0.0071  0.0000 </r>
        <r>  0.0001  0.0078  0.0000 </r>
        <r>  0.0000  0.0005  0.0000 </r>
        <r>  0.0004  0.0071  0.0000 </r>
        <r>  0.0001  0.0078  0.0000 </r>
        <r>  0.0010  0.0029  0.0000 </r>
        <r>  0.0018  0.0035  0.0000 </r>
        <r>  0.0001  0.0078  0.0000 </r>
        <r>  0.0004  0.0071  0.0000 </r>
        <r>  0.0000  0.0005  0.0000 </r>
        <r>  0.0018  0.0035  0.0000 </r>
        <r>  0.0004  0.0071  0.0000 </r>
        <r>  0.0018  0.0035  0.0000 </r>
        <r>  0.0040  0.0000  0.0000 </r>
        <r>  0.0002  0.0072  0.0000 </r>
        <r>  0.0002  0.0072  0.0000 </r>
        <r>  0.0008  0.0018  0.0000 </r>
        <r>  0.0008  0.0030  0.0000 </r>
        <r>  0.0002  0.0072  0.0000 </r>
        <r>  0.0008  0.0018  0.0000 </r>
        <r>  0.0002  0.0072  0.0000 </r>
        <r>  0.0008  0.0025  0.0000 </r>
        <r>  0.0002  0.0072  0.0000 </r>
        <r>  0.0008  0.0030  0.0000 </r>
        <r>  0.0008  0.0018  0.0000 </r>
        <r>  0.0008  0.0030  0.0000 </r>
        <r>  0.0008  0.0030  0.0000 </r>
        <r>  0.0002  0.0062  0.0000 </r>
        <r>  0.0002  0.0072  0.0000 </r>
        <r>  0.0036  0.0000  0.0000 </r>
        <r>  0.0002  0.0062  0.0000 </r>
        <r>  0.0002  0.0072  0.0000 </r>
        <r>  0.0008  0.0018  0.0000 </r>
        <r>  0.0008  0.0025  0.0000 </r>
        <r>  0.0002  0.0072  0.0000 </r>
        <r>  0.0002  0.0062  0.0000 </r>
        <r>  0.0036  0.0000  0.0000 </r>
        <r>  0.0008  0.0025  0.0000 </r>
        <r>  0.0002  0.0062  0.0000 </r>
        <r>  0.0008  0.0025  0.0000 </r>
       </set>
       <set comment="band 143">
        <r>  0.0029  0.0000  0.0000 </r>
        <r>  0.0004  0.0050  0.0000 </r>
        <r>  0.0004  0.0050  0.0000 </r>
        <r>  0.0011  0.0035  0.0000 </r>
        <r>  0.0013  0.0053  0.0000 </r>
        <r>  0.0004  0.0050  0.0000 </r>
        <r>  0.0011  0.0035  0.0000 </r>
        <r>  0.0004  0.0050  0.0000 </r>
        <r>  0.0012  0.0022  0.0000 </r>
        <r>  0.0004  0.0050  0.0000 </r>
        <r>  0.0013  0.0053  0.0000 </r>
        <r>  0.0011  0.0035  0.0000 </r>
        <r>  0.0013  0.0053  0.0000 </r>
        <r>  0.0013  0.0053  0.0000 </r>
        <r>  0.0004  0.0038  0.0000 </r>
        <r>  0.0004  0.0050  0.0000 </r>
        <r>  0.0030  0.0000  0.0000 </r>
        <r>  0.0004  0.0038  0.0000 </r>
        <r>  0.0004  0.0050  0.0000 </r>
        <r>  0.0011  0.0035  0.0000 </r>
        <r>  0.0012  0.0022  0.0000 </r>
        <r>  0.0004  0.0050  0.0000 </r>
        <r>  0.0004  0.0038  0.0000 </r>
        <r>  0.0030  0.0000  0.0000 </r>
        <r>  0.0012  0.0022  0.0000 </r>
        <r>  0.0004  0.0038  0.0000 </r>
        <r>  0.0012  0.0022  0.0000 </r>
        <r>  0.0000  0.0002  0.0000 </r>
        <r>  0.0003  0.0061  0.0000 </r>
        <r>  0.0003  0.0061  0.0000 </r>
        <r>  0.0014  0.0041  0.0000 </r>
        <r>  0.0003  0.0036  0.0000 </r>
        <r>  0.0003  0.0061  0.0000 </r>
        <r>  0.0014  0.0041  0.0000 </r>
        <r>  0.0003  0.0061  0.0000 </r>
        <r>  0.0003  0.0048  0.0000 </r>
        <r>  0.0003  0.0061  0.0000 </r>
        <r>  0.0003  0.0036  0.0000 </r>
        <r>  0.0014  0.0041  0.0000 </r>
        <r>  0.0003  0.0036  0.0000 </r>
        <r>  0.0003  0.0036  0.0000 </r>
        <r>  0.0010  0.0075  0.0000 </r>
        <r>  0.0003  0.0061  0.0000 </r>
        <r>  0.0000  0.0002  0.0000 </r>
        <r>  0.0010  0.0075  0.0000 </r>
        <r>  0.0003  0.0061  0.0000 </r>
        <r>  0.0014  0.0041  0.0000 </r>
        <r>  0.0003  0.0048  0.0000 </r>
        <r>  0.0003  0.0061  0.0000 </r>
        <r>  0.0010  0.0075  0.0000 </r>
        <r>  0.0000  0.0002  0.0000 </r>
        <r>  0.0003  0.0048  0.0000 </r>
        <r>  0.0010  0.0075  0.0000 </r>
        <r>  0.0003  0.0048  0.0000 </r>
       </set>
       <set comment="band 144">
        <r>  0.0000  0.0083  0.0000 </r>
        <r>  0.0003  0.0036  0.0000 </r>
        <r>  0.0003  0.0036  0.0000 </r>
        <r>  0.0000  0.0100  0.0000 </r>
        <r>  0.0000  0.0119  0.0000 </r>
        <r>  0.0003  0.0036  0.0000 </r>
        <r>  0.0000  0.0100  0.0000 </r>
        <r>  0.0003  0.0036  0.0000 </r>
        <r>  0.0001  0.0062  0.0000 </r>
        <r>  0.0003  0.0036  0.0000 </r>
        <r>  0.0000  0.0119  0.0000 </r>
        <r>  0.0000  0.0100  0.0000 </r>
        <r>  0.0000  0.0119  0.0000 </r>
        <r>  0.0000  0.0119  0.0000 </r>
        <r>  0.0002  0.0064  0.0000 </r>
        <r>  0.0003  0.0036  0.0000 </r>
        <r>  0.0001  0.0058  0.0000 </r>
        <r>  0.0002  0.0064  0.0000 </r>
        <r>  0.0003  0.0036  0.0000 </r>
        <r>  0.0000  0.0100  0.0000 </r>
        <r>  0.0001  0.0062  0.0000 </r>
        <r>  0.0003  0.0036  0.0000 </r>
        <r>  0.0002  0.0064  0.0000 </r>
        <r>  0.0001  0.0058  0.0000 </r>
        <r>  0.0001  0.0062  0.0000 </r>
        <r>  0.0002  0.0064  0.0000 </r>
        <r>  0.0001  0.0062  0.0000 </r>
        <r>  0.0000  0.0010  0.0000 </r>
        <r>  0.0027  0.0008  0.0000 </r>
        <r>  0.0027  0.0008  0.0000 </r>
        <r>  0.0019  0.0018  0.0000 </r>
        <r>  0.0065  0.0007  0.0000 </r>
        <r>  0.0027  0.0008  0.0000 </r>
        <r>  0.0019  0.0018  0.0000 </r>
        <r>  0.0027  0.0008  0.0000 </r>
        <r>  0.0043  0.0019  0.0000 </r>
        <r>  0.0027  0.0008  0.0000 </r>
        <r>  0.0065  0.0007  0.0000 </r>
        <r>  0.0019  0.0018  0.0000 </r>
        <r>  0.0065  0.0007  0.0000 </r>
        <r>  0.0065  0.0007  0.0000 </r>
        <r>  0.0009  0.0003  0.0000 </r>
        <r>  0.0027  0.0008  0.0000 </r>
        <r>  0.0000  0.0006  0.0000 </r>
        <r>  0.0009  0.0003  0.0000 </r>
        <r>  0.0027  0.0008  0.0000 </r>
        <r>  0.0019  0.0018  0.0000 </r>
        <r>  0.0043  0.0019  0.0000 </r>
        <r>  0.0027  0.0008  0.0000 </r>
        <r>  0.0009  0.0003  0.0000 </r>
        <r>  0.0000  0.0006  0.0000 </r>
        <r>  0.0043  0.0019  0.0000 </r>
        <r>  0.0009  0.0003  0.0000 </r>
        <r>  0.0043  0.0019  0.0000 </r>
       </set>
      </set>
     </set>
    </set>
   </array>
  </projected>
 </calculation>
 <structure name="finalpos" >
  <crystal>
   <varray name="basis" >
    <v>       9.97646553       0.00000000       5.75991507 </v>
    <v>       3.32548851       9.40590192       5.75991507 </v>
    <v>       0.00000000       0.00000000      11.51983014 </v>
   </varray>
   <i name="volume">   1080.99386112 </i>
   <varray name="rec_basis" >
    <v>       0.10023590      -0.03543874       0.00000000 </v>
    <v>       0.00000000       0.10631623       0.00000000 </v>
    <v>      -0.05011795      -0.03543874       0.08680684 </v>
   </varray>
  </crystal>
  <varray name="positions" >
   <v>       0.29166667       0.29166667       0.29166667 </v>
   <v>       0.29290938       0.29290938       0.61907064 </v>
   <v>       0.29290938       0.29290938       0.96177728 </v>
   <v>       0.29290938       0.61907064       0.29290938 </v>
   <v>       0.29220197       0.62482156       0.62482156 </v>
   <v>       0.29290938       0.61907064       0.96177728 </v>
   <v>       0.29290938       0.96177728       0.29290938 </v>
   <v>       0.29290938       0.96177728       0.61907064 </v>
   <v>       0.29197969       0.95822899       0.95822899 </v>
   <v>       0.61907064       0.29290938       0.29290938 </v>
   <v>       0.62482156       0.29220197       0.62482156 </v>
   <v>       0.61907064       0.29290938       0.96177728 </v>
   <v>       0.62482156       0.62482156       0.29220197 </v>
   <v>       0.62482156       0.62482156       0.62482156 </v>
   <v>       0.62452846       0.62452846       0.95880488 </v>
   <v>       0.61907064       0.96177728       0.29290938 </v>
   <v>       0.62452846       0.95880488       0.62452846 </v>
   <v>       0.62452846       0.95880488       0.95880488 </v>
   <v>       0.96177728       0.29290938       0.29290938 </v>
   <v>       0.96177728       0.29290938       0.61907064 </v>
   <v>       0.95822899       0.29197969       0.95822899 </v>
   <v>       0.96177728       0.61907064       0.29290938 </v>
   <v>       0.95880488       0.62452846       0.62452846 </v>
   <v>       0.95880488       0.62452846       0.95880488 </v>
   <v>       0.95822899       0.95822899       0.29197969 </v>
   <v>       0.95880488       0.95880488       0.62452846 </v>
   <v>       0.95822899       0.95822899       0.95822899 </v>
   <v>       0.04166667       0.04166667       0.04166667 </v>
   <v>       0.04229382       0.04229382       0.37390328 </v>
   <v>       0.04229382       0.04229382       0.70817574 </v>
   <v>       0.04229382       0.37390328       0.04229382 </v>
   <v>       0.06887492       0.36593058       0.36593058 </v>
   <v>       0.04229382       0.37390328       0.70817574 </v>
   <v>       0.04229382       0.70817574       0.04229382 </v>
   <v>       0.04229382       0.70817574       0.37390328 </v>
   <v>       0.04167118       0.70833183       0.70833183 </v>
   <v>       0.37390328       0.04229382       0.04229382 </v>
   <v>       0.36593058       0.06887492       0.36593058 </v>
   <v>       0.37390328       0.04229382       0.70817574 </v>
   <v>       0.36593058       0.36593058       0.06887492 </v>
   <v>       0.36593058       0.36593058       0.36593058 </v>
   <v>       0.37465454       0.37465454       0.70867879 </v>
   <v>       0.37390328       0.70817574       0.04229382 </v>
   <v>       0.37465454       0.70867879       0.37465454 </v>
   <v>       0.37465454       0.70867879       0.70867879 </v>
   <v>       0.70817574       0.04229382       0.04229382 </v>
   <v>       0.70817574       0.04229382       0.37390328 </v>
   <v>       0.70833183       0.04167118       0.70833183 </v>
   <v>       0.70817574       0.37390328       0.04229382 </v>
   <v>       0.70867879       0.37465454       0.37465454 </v>
   <v>       0.70867879       0.37465454       0.70867879 </v>
   <v>       0.70833183       0.70833183       0.04167118 </v>
   <v>       0.70867879       0.70867879       0.37465454 </v>
   <v>       0.70833183       0.70833183       0.70833183 </v>
  </varray>
 </structure>
</modeling>
