 vasp.5.4.4.18Apr17-6-g9f103f2a35 (build Jun 19 2019 10:34:07) complex          
  
 executed on               LB-5.4 date 2023.05.15  18:44:12
 running on   96 total cores
 distrk:  each k-point on   24 cores,    4 groups
 distr:  one band on NCORES_PER_BAND=   1 cores,   24 groups


--------------------------------------------------------------------------------------------------------


 INCAR:
 POTCAR:    PAW_PBE P 06Sep2000                   
 POTCAR:    PAW_PBE Si 05Jan2001                  

 ----------------------------------------------------------------------------- 
|                                                                             |
|           W    W    AA    RRRRR   N    N  II  N    N   GGGG   !!!           |
|           W    W   A  A   R    R  NN   N  II  NN   N  G    G  !!!           |
|           W    W  A    A  R    R  N N  N  II  N N  N  G       !!!           |
|           W WW W  AAAAAA  RRRRR   N  N N  II  N  N N  G  GGG   !            |
|           WW  WW  A    A  R   R   N   NN  II  N   NN  G    G                |
|           W    W  A    A  R    R  N    N  II  N    N   GGGG   !!!           |
|                                                                             |
|      For optimal performance we recommend to set                            |
|        NCORE= 4 - approx SQRT( number of cores)                             |
|      NCORE specifies how many cores store one orbital (NPAR=cpu/NCORE).     |
|      This setting can  greatly improve the performance of VASP for DFT.     |
|      The default,   NCORE=1            might be grossly inefficient         |
|      on modern multi-core architectures or massively parallel machines.     |
|      Do your own testing !!!!                                               |
|      Unfortunately you need to use the default for GW and RPA calculations. |
|      (for HF NCORE is supported but not extensively tested yet)             |
|                                                                             |
 ----------------------------------------------------------------------------- 


 ----------------------------------------------------------------------------- 
|                                                                             |
|           W    W    AA    RRRRR   N    N  II  N    N   GGGG   !!!           |
|           W    W   A  A   R    R  NN   N  II  NN   N  G    G  !!!           |
|           W    W  A    A  R    R  N N  N  II  N N  N  G       !!!           |
|           W WW W  AAAAAA  RRRRR   N  N N  II  N  N N  G  GGG   !            |
|           WW  WW  A    A  R   R   N   NN  II  N   NN  G    G                |
|           W    W  A    A  R    R  N    N  II  N    N   GGGG   !!!           |
|                                                                             |
|      You have enabled k-point parallelism (KPAR>1).                         |
|      This developmental code was originally  written by Paul Kent at ORNL,  |
|      and carefully double checked in Vienna.                                |
|      GW as well as linear response parallelism added by Martijn Marsman     |
|      and Georg Kresse.                                                      |
|      Carefully verify results versus KPAR=1.                                |
|      Report problems to Paul Kent and Vienna.                               |
|                                                                             |
 ----------------------------------------------------------------------------- 

 POTCAR:    PAW_PBE P 06Sep2000                   
   VRHFIN =P : s2p3                                                             
   LEXCH  = PE                                                                  
   EATOM  =   176.0430 eV,   12.9388 Ry                                         
                                                                                
   TITEL  = PAW_PBE P 06Sep2000                                                 
   LULTRA =        F    use ultrasoft PP ?                                      
   IUNSCR =        1    unscreen: 0-lin 1-nonlin 2-no                           
   RPACOR =    1.500    partial core radius                                     
   POMASS =   30.974; ZVAL   =    5.000    mass and valenz                      
   RCORE  =    1.900    outmost cutoff radius                                   
   RWIGS  =    2.330; RWIGS  =    1.233    wigner-seitz radius (au A)           
   ENMAX  =  255.040; ENMIN  =  191.280 eV                                      
   ICORE  =        2    local potential                                         
   LCOR   =        T    correct aug charges                                     
   LPAW   =        T    paw PP                                                  
   EAUG   =  342.924                                                            
   DEXC   =    0.000                                                            
   RMAX   =    1.935    core radius for proj-oper                               
   RAUG   =    1.300    factor for augmentation sphere                          
   RDEP   =    1.931    radius for radial grids                                 
   RDEPT  =    1.794    core radius for aug-charge                              
                                                                                
   Atomic configuration                                                         
    6 entries                                                                   
     n  l   j            E        occ.                                          
     1  0  0.50     -2084.0982   2.0000                                         
     2  0  0.50      -173.9859   2.0000                                         
     2  1  1.50      -124.4865   6.0000                                         
     3  0  0.50       -13.9692   2.0000                                         
     3  1  0.50        -5.5067   3.0000                                         
     3  2  1.50        -5.4423   0.0000                                         
   Description                                                                  
     l       E           TYP  RCUT    TYP  RCUT                                 
     0    -13.9691527     23  1.900                                             
     0    -11.7794650     23  1.900                                             
     1     -5.5066937     23  1.900                                             
     1     -0.2556953     23  1.900                                             
     2     -5.4423304     23  1.900                                             
  local pseudopotential read in
  partial core-charges read in
  partial kinetic energy density read in
  atomic valenz-charges read in
  non local Contribution for L=           0  read in
    real space projection operators read in
  non local Contribution for L=           0  read in
    real space projection operators read in
  non local Contribution for L=           1  read in
    real space projection operators read in
  non local Contribution for L=           1  read in
    real space projection operators read in
    PAW grid and wavefunctions read in
 
   number of l-projection  operators is LMAX  =           4
   number of lm-projection operators is LMMAX =           8
 
 POTCAR:    PAW_PBE Si 05Jan2001                  
   VRHFIN =Si: s2p2                                                             
   LEXCH  = PE                                                                  
   EATOM  =   103.0669 eV,    7.5752 Ry                                         
                                                                                
   TITEL  = PAW_PBE Si 05Jan2001                                                
   LULTRA =        F    use ultrasoft PP ?                                      
   IUNSCR =        1    unscreen: 0-lin 1-nonlin 2-no                           
   RPACOR =    1.500    partial core radius                                     
   POMASS =   28.085; ZVAL   =    4.000    mass and valenz                      
   RCORE  =    1.900    outmost cutoff radius                                   
   RWIGS  =    2.480; RWIGS  =    1.312    wigner-seitz radius (au A)           
   ENMAX  =  245.345; ENMIN  =  184.009 eV                                      
   ICORE  =        2    local potential                                         
   LCOR   =        T    correct aug charges                                     
   LPAW   =        T    paw PP                                                  
   EAUG   =  322.069                                                            
   DEXC   =    0.000                                                            
   RMAX   =    1.950    core radius for proj-oper                               
   RAUG   =    1.300    factor for augmentation sphere                          
   RDEP   =    1.993    radius for radial grids                                 
   RDEPT  =    1.837    core radius for aug-charge                              
                                                                                
   Atomic configuration                                                         
    6 entries                                                                   
     n  l   j            E        occ.                                          
     1  0  0.50     -1785.8828   2.0000                                         
     2  0  0.50      -139.4969   2.0000                                         
     2  1  1.50       -95.5546   6.0000                                         
     3  0  0.50       -10.8127   2.0000                                         
     3  1  0.50        -4.0811   2.0000                                         
     3  2  1.50        -4.0817   0.0000                                         
   Description                                                                  
     l       E           TYP  RCUT    TYP  RCUT                                 
     0    -10.8127223     23  1.900                                             
     0     -7.6451159     23  1.900                                             
     1     -4.0811372     23  1.900                                             
     1      2.4879257     23  1.900                                             
     2     -4.0817478      7  1.900                                             
  local pseudopotential read in
  partial core-charges read in
  partial kinetic energy density read in
  atomic valenz-charges read in
  non local Contribution for L=           0  read in
    real space projection operators read in
  non local Contribution for L=           0  read in
    real space projection operators read in
  non local Contribution for L=           1  read in
    real space projection operators read in
  non local Contribution for L=           1  read in
    real space projection operators read in
    PAW grid and wavefunctions read in
 
   number of l-projection  operators is LMAX  =           4
   number of lm-projection operators is LMMAX =           8
 

 ----------------------------------------------------------------------------- 
|                                                                             |
|  ADVICE TO THIS USER RUNNING 'VASP/VAMP'   (HEAR YOUR MASTER'S VOICE ...):  |
|                                                                             |
|      You have a (more or less) 'large supercell' and for larger cells       |
|      it might be more efficient to use real space projection opertators     |
|      So try LREAL= Auto  in the INCAR   file.                               |
|      Mind:          For very  accurate calculation you might also keep the  |
|      reciprocal projection scheme          (i.e. LREAL=.FALSE.)             |
|                                                                             |
 ----------------------------------------------------------------------------- 

  PAW_PBE P 06Sep2000                   :
 energy of atom  1       EATOM= -176.0430
 kinetic energy error for atom=    0.0008 (will be added to EATOM!!)
  PAW_PBE Si 05Jan2001                  :
 energy of atom  2       EATOM= -103.0669
 kinetic energy error for atom=    0.0004 (will be added to EATOM!!)
 
 
 POSCAR: Si53 P1                                 
  positions in direct lattice
  velocities in cartesian coordinates
 exchange correlation table for  LEXCH =        8
   RHO(1)=    0.500       N(1)  =     2000
   RHO(2)=  100.500       N(2)  =     4000
 


--------------------------------------------------------------------------------------------------------


 ion  position               nearest neighbor table
   1  0.292  0.292  0.292-  32 2.35  40 2.35  41 2.35  38 2.35
   2  0.292  0.292  0.625-  33 2.35  41 2.35  42 2.35  39 2.35
   3  0.292  0.292  0.958-  31 2.35  40 2.35  42 2.35  37 2.35
   4  0.292  0.625  0.292-  35 2.35  43 2.35  44 2.35  41 2.35
   5  0.292  0.625  0.625-  36 2.35  44 2.35  45 2.35  42 2.35
   6  0.292  0.625  0.958-  34 2.35  43 2.35  45 2.35  40 2.35
   7  0.292  0.958  0.292-  29 2.35  37 2.35  38 2.35  44 2.35
   8  0.292  0.958  0.625-  30 2.35  38 2.35  39 2.35  45 2.35
   9  0.292  0.958  0.958-  28 2.35  37 2.35  39 2.35  43 2.35
  10  0.625  0.292  0.292-  41 2.35  49 2.35  50 2.35  47 2.35
  11  0.625  0.292  0.625-  42 2.35  50 2.35  51 2.35  48 2.35
  12  0.625  0.292  0.958-  40 2.35  49 2.35  51 2.35  46 2.35
  13  0.625  0.625  0.292-  44 2.35  52 2.35  53 2.35  50 2.35
  14  0.625  0.625  0.625-  45 2.35  53 2.35  54 2.35  51 2.35
  15  0.625  0.625  0.958-  43 2.35  52 2.35  54 2.35  49 2.35
  16  0.625  0.958  0.292-  38 2.35  46 2.35  47 2.35  53 2.35
  17  0.625  0.958  0.625-  39 2.35  47 2.35  48 2.35  54 2.35
  18  0.625  0.958  0.958-  37 2.35  46 2.35  48 2.35  52 2.35
  19  0.958  0.292  0.292-  50 2.35  32 2.35  31 2.35  29 2.35
  20  0.958  0.292  0.625-  51 2.35  33 2.35  32 2.35  30 2.35
  21  0.958  0.292  0.958-  49 2.35  31 2.35  33 2.35  28 2.35
  22  0.958  0.625  0.292-  53 2.35  35 2.35  34 2.35  32 2.35
  23  0.958  0.625  0.625-  54 2.35  36 2.35  35 2.35  33 2.35
  24  0.958  0.625  0.958-  52 2.35  34 2.35  36 2.35  31 2.35
  25  0.958  0.958  0.292-  47 2.35  29 2.35  28 2.35  35 2.35
  26  0.958  0.958  0.625-  48 2.35  30 2.35  29 2.35  36 2.35
  27  0.958  0.958  0.958-  46 2.35  28 2.35  30 2.35  34 2.35
  28  0.042  0.042  0.042-   9 2.35  27 2.35  25 2.35  21 2.35
  29  0.042  0.042  0.375-   7 2.35  25 2.35  26 2.35  19 2.35
  30  0.042  0.042  0.708-   8 2.35  26 2.35  27 2.35  20 2.35
  31  0.042  0.375  0.042-   3 2.35  21 2.35  19 2.35  24 2.35
  32  0.042  0.375  0.375-   1 2.35  19 2.35  20 2.35  22 2.35
  33  0.042  0.375  0.708-   2 2.35  20 2.35  21 2.35  23 2.35
  34  0.042  0.708  0.042-   6 2.35  24 2.35  22 2.35  27 2.35
  35  0.042  0.708  0.375-   4 2.35  22 2.35  23 2.35  25 2.35
  36  0.042  0.708  0.708-   5 2.35  23 2.35  24 2.35  26 2.35
  37  0.375  0.042  0.042-  18 2.35   9 2.35   7 2.35   3 2.35
  38  0.375  0.042  0.375-  16 2.35   8 2.35   7 2.35   1 2.35
  39  0.375  0.042  0.708-  17 2.35   9 2.35   8 2.35   2 2.35
  40  0.375  0.375  0.042-  12 2.35   3 2.35   1 2.35   6 2.35
  41  0.375  0.375  0.375-  10 2.35   2 2.35   1 2.35   4 2.35
  42  0.375  0.375  0.708-  11 2.35   3 2.35   2 2.35   5 2.35
  43  0.375  0.708  0.042-  15 2.35   6 2.35   4 2.35   9 2.35
  44  0.375  0.708  0.375-  13 2.35   5 2.35   4 2.35   7 2.35
  45  0.375  0.708  0.708-  14 2.35   6 2.35   5 2.35   8 2.35
  46  0.708  0.042  0.042-  27 2.35  18 2.35  16 2.35  12 2.35
  47  0.708  0.042  0.375-  25 2.35  17 2.35  16 2.35  10 2.35
  48  0.708  0.042  0.708-  26 2.35  18 2.35  17 2.35  11 2.35
  49  0.708  0.375  0.042-  21 2.35  12 2.35  10 2.35  15 2.35
  50  0.708  0.375  0.375-  19 2.35  11 2.35  10 2.35  13 2.35
  51  0.708  0.375  0.708-  20 2.35  12 2.35  11 2.35  14 2.35
  52  0.708  0.708  0.042-  24 2.35  15 2.35  13 2.35  18 2.35
  53  0.708  0.708  0.375-  22 2.35  14 2.35  13 2.35  16 2.35
  54  0.708  0.708  0.708-  23 2.35  15 2.35  14 2.35  17 2.35
 
  LATTYP: Found a face centered cubic cell.
 ALAT       =    16.2915000202
  
  Lattice vectors:
  
 A1 = (   9.9764655300,   0.0000000000,   5.7599150700)
 A2 = (   3.3254885100,   9.4059019200,   5.7599150700)
 A3 = (   0.0000000000,   0.0000000000,  11.5198301400)


Analysis of symmetry for initial positions (statically):
=====================================================================
 Subroutine PRICEL returns:
 Original cell was already a primitive cell.
 

 Routine SETGRP: Setting up the symmetry group for a 
 face centered cubic supercell.


 Subroutine GETGRP returns: Found 24 space group operations
 (whereof  6 operations were pure point group operations)
 out of a pool of 48 trial point group operations.


The static configuration has the point symmetry C_3v.
 The point group associated with its full space group is T_d .


Analysis of symmetry for dynamics (positions and initial velocities):
=====================================================================
 Subroutine PRICEL returns:
 Original cell was already a primitive cell.
 

 Routine SETGRP: Setting up the symmetry group for a 
 face centered cubic supercell.


 Subroutine GETGRP returns: Found 24 space group operations
 (whereof  6 operations were pure point group operations)
 out of a pool of 48 trial point group operations.


The dynamic configuration has the point symmetry C_3v.
 The point group associated with its full space group is T_d .


 Subroutine INISYM returns: Found 24 space group operations
 (whereof  6 operations are pure point group operations),
 and found     1 'primitive' translations

 
 
 KPOINTS: Automatic kpoint scheme                 

Automatic generation of k-mesh.
Space group operators:
 irot       det(A)        alpha          n_x          n_y          n_z        tau_x        tau_y        tau_z
    1     1.000000     0.000000     1.000000     0.000000     0.000000     0.000000     0.000000     0.000000
    2     1.000000   120.000000    -0.471405    -0.333333    -0.816497     0.000000     0.000000     0.000000
    3     1.000000   120.000000     0.471405     0.333333     0.816497     0.000000     0.000000     0.000000
    4    -1.000000   180.000000     0.288675     0.816497    -0.500000     0.000000     0.000000     0.000000
    5    -1.000000   180.000000     0.577350    -0.816497     0.000000     0.000000     0.000000     0.000000
    6    -1.000000   180.000000     0.866025     0.000000    -0.500000     0.000000     0.000000     0.000000
    7    -1.000000    90.000000    -0.816497    -0.577350    -0.000000     0.166667     0.000000     0.000000
    8    -1.000000   180.000000     0.866025     0.000000     0.500000     0.166667     0.000000     0.000000
    9    -1.000000    90.000000     0.408248    -0.577350     0.707107     0.166667     0.000000     0.000000
   10     1.000000   180.000000     0.816497     0.577350     0.000000     0.000000     0.000000     0.166667
   11     1.000000   120.000000     0.942809    -0.333333     0.000000     0.000000     0.000000     0.166667
   12     1.000000   120.000000    -0.000000    -1.000000    -0.000000     0.000000     0.000000     0.166667
   13    -1.000000    90.000000     0.816497     0.577350    -0.000000     0.000000     0.166667    -0.000000
   14    -1.000000    90.000000     0.408248    -0.577350    -0.707107     0.000000     0.166667    -0.000000
   15    -1.000000   180.000000     0.288675     0.816497     0.500000     0.000000     0.166667    -0.000000
   16     1.000000   120.000000    -0.000000     1.000000    -0.000000     0.166667     0.000000     0.000000
   17     1.000000   120.000000     0.471405     0.333333    -0.816497     0.166667     0.000000     0.000000
   18     1.000000   180.000000    -0.408248     0.577350     0.707107     0.166667     0.000000     0.000000
   19    -1.000000    90.000000    -0.408248     0.577350    -0.707107     0.000000     0.000000     0.166667
   20    -1.000000   180.000000     0.000000    -0.000000     1.000000     0.000000     0.000000     0.166667
   21    -1.000000    90.000000    -0.408248     0.577350     0.707107     0.000000     0.000000     0.166667
   22     1.000000   120.000000    -0.942809     0.333333     0.000000     0.000000     0.166667    -0.000000
   23     1.000000   180.000000    -0.408248     0.577350    -0.707107     0.000000     0.166667    -0.000000
   24     1.000000   120.000000    -0.471405    -0.333333     0.816497     0.000000     0.166667    -0.000000
 
 Subroutine IBZKPT returns following result:
 ===========================================
 
 Found      8 irreducible k-points:
 
 Following reciprocal coordinates:
            Coordinates               Weight
  0.000000  0.000000  0.000000      1.000000
  0.250000  0.000000  0.000000      8.000000
  0.500000  0.000000  0.000000      4.000000
  0.250000  0.250000  0.000000      6.000000
  0.500000  0.250000  0.000000     24.000000
 -0.250000  0.250000  0.000000     12.000000
  0.500000  0.500000  0.000000      3.000000
 -0.250000  0.500000  0.250000      6.000000
 
 Following cartesian coordinates:
            Coordinates               Weight
  0.000000  0.000000  0.000000      1.000000
  0.025059 -0.008860  0.000000      8.000000
  0.050118 -0.017719  0.000000      4.000000
  0.025059  0.017719  0.000000      6.000000
  0.050118  0.008860  0.000000     24.000000
 -0.025059  0.035439  0.000000     12.000000
  0.050118  0.035439  0.000000      3.000000
 -0.037588  0.053158  0.021702      6.000000
 


--------------------------------------------------------------------------------------------------------




 Dimension of arrays:
   k-points           NKPTS =      8   k-points in BZ     NKDIM =      8   number of bands    NBANDS=    144
   number of dos      NEDOS =    301   number of ions     NIONS =     54
   non local maximal  LDIM  =      4   non local SUM 2l+1 LMDIM =      8
   total plane-waves  NPLWV = 343000
   max r-space proj   IRMAX =      1   max aug-charges    IRDMAX=  10807
   dimension x,y,z NGX =    70 NGY =   70 NGZ =   70
   dimension x,y,z NGXF=   140 NGYF=  140 NGZF=  140
   support grid    NGXF=   140 NGYF=  140 NGZF=  140
   ions per type =               1  53
   NGX,Y,Z   is equivalent  to a cutoff of  10.10, 10.10, 10.10 a.u.
   NGXF,Y,Z  is equivalent  to a cutoff of  20.20, 20.20, 20.20 a.u.

 SYSTEM =  Si                                      
 POSCAR =  Si53 P1                                 

 Startparameter for this run:
   NWRITE =      2    write-flag & timer
   PREC   = normal    normal or accurate (medium, high low for compatibility)
   ISTART =      1    job   : 0-new  1-cont  2-samecut
   ICHARG =      0    charge: 1-file 2-atom 10-const
   ISPIN  =      1    spin polarized calculation?
   LNONCOLLINEAR =      F non collinear calculations
   LSORBIT =      F    spin-orbit coupling
   INIWAV =      1    electr: 0-lowe 1-rand  2-diag
   LASPH  =      F    aspherical Exc in radial PAW
   METAGGA=      F    non-selfconsistent MetaGGA calc.

 Electronic Relaxation 1
   ENCUT  =  550.0 eV  40.42 Ry    6.36 a.u.  22.03 22.03 22.03*2*pi/ulx,y,z
   ENINI  =  550.0     initial cutoff
   ENAUG  =  342.9 eV  augmentation charge cutoff
   NELM   =    200;   NELMIN=  2; NELMDL=  0     # of ELM steps 
   EDIFF  = 0.1E-04   stopping-criterion for ELM
   LREAL  =      F    real-space projection
   NLSPLINE    = F    spline interpolate recip. space projectors
   LCOMPAT=      F    compatible to vasp.4.4
   GGA_COMPAT  = T    GGA compatible to vasp.4.4-vasp.4.6
   LMAXPAW     = -100 max onsite density
   LMAXMIX     =    2 max onsite mixed and CHGCAR
   VOSKOWN=      0    Vosko Wilk Nusair interpolation
   ROPT   =    0.00000   0.00000
 Ionic relaxation
   EDIFFG = -.5E-01   stopping-criterion for IOM
   NSW    =    100    number of steps for IOM
   NBLOCK =      1;   KBLOCK =    100    inner block; outer block 
   IBRION =      2    ionic relax: 0-MD 1-quasi-New 2-CG
   NFREE  =      1    steps in history (QN), initial steepest desc. (CG)
   ISIF   =      2    stress and relaxation
   IWAVPR =     11    prediction:  0-non 1-charg 2-wave 3-comb
   ISYM   =      2    0-nonsym 1-usesym 2-fastsym
   LCORR  =      T    Harris-Foulkes like correction to forces

   POTIM  = 0.5000    time-step for ionic-motion
   TEIN   =    0.0    initial temperature
   TEBEG  =    0.0;   TEEND  =   0.0 temperature during run
   SMASS  =  -3.00    Nose mass-parameter (am)
   estimated Nose-frequenzy (Omega)   =  0.10E-29 period in steps =****** mass=  -0.303E-26a.u.
   SCALEE = 1.0000    scale energy and forces
   NPACO  =    256;   APACO  = 16.0  distance and # of slots for P.C.
   PSTRESS=    0.0 pullay stress

  Mass of Ions in am
   POMASS =  30.97 28.09
  Ionic Valenz
   ZVAL   =   5.00  4.00
  Atomic Wigner-Seitz radii
   RWIGS  =  -1.00 -1.00
  virtual crystal weights 
   VCA    =   1.00  1.00
   NELECT =     216.0000    total number of electrons
   NUPDOWN=      -1.0000    fix difference up-down

 DOS related values:
   EMIN   =  10.00;   EMAX   =-10.00  energy-range for DOS
   EFERMI =   0.00
   ISMEAR =     0;   SIGMA  =   0.05  broadening in eV -4-tet -1-fermi 0-gaus

 Electronic relaxation 2 (details)
   IALGO  =     38    algorithm
   LDIAG  =      T    sub-space diagonalisation (order eigenvalues)
   LSUBROT=      F    optimize rotation matrix (better conditioning)
   TURBO    =      0    0=normal 1=particle mesh
   IRESTART =      0    0=no restart 2=restart with 2 vectors
   NREBOOT  =      0    no. of reboots
   NMIN     =      0    reboot dimension
   EREF     =   0.00    reference energy to select bands
   IMIX   =      4    mixing-type and parameters
     AMIX     =   0.20;   BMIX     =  1.00
     AMIX_MAG =   0.80;   BMIX_MAG =  1.00
     AMIN     =   0.10
     WC   =   100.;   INIMIX=   1;  MIXPRE=   1;  MAXMIX= -45

 Intra band minimization:
   WEIMIN = 0.0010     energy-eigenvalue tresh-hold
   EBREAK =  0.17E-07  absolut break condition
   DEPER  =   0.30     relativ break condition  

   TIME   =   0.40     timestep for ELM

  volume/ion in A,a.u.               =      20.02       135.09
  Fermi-wavevector in a.u.,A,eV,Ry     =   0.957088  1.808633 12.463162  0.916017
  Thomas-Fermi vector in A             =   2.086074
 
 Write flags
   LWAVE        =      T    write WAVECAR
   LDOWNSAMPLE  =      F    k-point downsampling of WAVECAR
   LCHARG       =      T    write CHGCAR
   LVTOT        =      F    write LOCPOT, total local potential
   LVHAR        =      F    write LOCPOT, Hartree potential only
   LELF         =      F    write electronic localiz. function (ELF)
   LORBIT       =     10    0 simple, 1 ext, 2 COOP (PROOUT), +10 PAW based schemes


 Dipole corrections
   LMONO  =      F    monopole corrections only (constant potential shift)
   LDIPOL =      F    correct potential (dipole corrections)
   IDIPOL =      0    1-x, 2-y, 3-z, 4-all directions 
   EPSILON=  1.0000000 bulk dielectric constant

 Exchange correlation treatment:
   GGA     =    --    GGA type
   LEXCH   =     8    internal setting for exchange type
   VOSKOWN=      0    Vosko Wilk Nusair interpolation
   LHFCALC =     F    Hartree Fock is set to
   LHFONE  =     F    Hartree Fock one center treatment
   AEXX    =    0.0000 exact exchange contribution

 Linear response parameters
   LEPSILON=     F    determine dielectric tensor
   LRPA    =     F    only Hartree local field effects (RPA)
   LNABLA  =     F    use nabla operator in PAW spheres
   LVEL    =     F    velocity operator in full k-point grid
   LINTERFAST=   F  fast interpolation
   KINTER  =     0    interpolate to denser k-point grid
   CSHIFT  =0.1000    complex shift for real part using Kramers Kronig
   OMEGAMAX=  -1.0    maximum frequency
   DEG_THRESHOLD= 0.2000000E-02 threshold for treating states as degnerate
   RTIME   =   -0.100 relaxation time in fs
  (WPLASMAI=    0.000 imaginary part of plasma frequency in eV, 0.658/RTIME)
   DFIELD  = 0.0000000 0.0000000 0.0000000 field for delta impulse in time
 
 Orbital magnetization related:
   ORBITALMAG=     F  switch on orbital magnetization
   LCHIMAG   =     F  perturbation theory with respect to B field
   DQ        =  0.001000  dq finite difference perturbation B field
   LLRAUG    =     F  two centre corrections for induced B field



--------------------------------------------------------------------------------------------------------


 conjugate gradient relaxation of ions
 charge density and potential will be updated during run
 non-spin polarized calculation
 Variant of blocked Davidson
 Davidson routine will perform the subspace rotation
 perform sub-space diagonalisation
    after iterative eigenvector-optimisation
 modified Broyden-mixing scheme, WC =      100.0
 initial mixing is a Kerker type mixing with AMIX =  0.2000 and BMIX =      1.0000
 Hartree-type preconditioning will be used
 using additional bands           36
 reciprocal scheme for non local part
 use partial core corrections
 calculate Harris-corrections to forces 
   (improved forces if not selfconsistent)
 use gradient corrections 
 use of overlap-Matrix (Vanderbilt PP)
 Gauss-broadening in eV      SIGMA  =   0.05


--------------------------------------------------------------------------------------------------------


  energy-cutoff  :      550.00
  volume of cell :     1080.99
      direct lattice vectors                 reciprocal lattice vectors
     9.976465530  0.000000000  5.759915070     0.100235900 -0.035438742  0.000000000
     3.325488510  9.405901920  5.759915070     0.000000000  0.106316227  0.000000000
     0.000000000  0.000000000 11.519830140    -0.050117950 -0.035438742  0.086806836

  length of vectors
    11.519830124 11.519830136 11.519830140     0.106316227  0.106316227  0.106316227


 
 old parameters found on file WAVECAR:
  energy-cutoff  :      550.00
  volume of cell :     1080.99
      direct lattice vectors                 reciprocal lattice vectors
     9.976465530  0.000000000  5.759915070     0.100235900 -0.035438742  0.000000000
     3.325488510  9.405901920  5.759915070     0.000000000  0.106316227  0.000000000
     0.000000000  0.000000000 11.519830140    -0.050117950 -0.035438742  0.086806836

  length of vectors

 
 k-points in units of 2pi/SCALE and weight: Automatic kpoint scheme                 
   0.00000000  0.00000000  0.00000000       0.016
   0.02505897 -0.00885969  0.00000000       0.125
   0.05011795 -0.01771937  0.00000000       0.062
   0.02505897  0.01771937  0.00000000       0.094
   0.05011795  0.00885969  0.00000000       0.375
  -0.02505897  0.03543874  0.00000000       0.188
   0.05011795  0.03543874  0.00000000       0.047
  -0.03758846  0.05315811  0.02170171       0.094
 
 k-points in reciprocal lattice and weights: Automatic kpoint scheme                 
   0.00000000  0.00000000  0.00000000       0.016
   0.25000000  0.00000000  0.00000000       0.125
   0.50000000  0.00000000  0.00000000       0.062
   0.25000000  0.25000000  0.00000000       0.094
   0.50000000  0.25000000  0.00000000       0.375
  -0.25000000  0.25000000  0.00000000       0.188
   0.50000000  0.50000000  0.00000000       0.047
  -0.25000000  0.50000000  0.25000000       0.094
 
 position of ions in fractional coordinates (direct lattice) 
   0.29166667  0.29166667  0.29166667
   0.29166667  0.29166667  0.62500000
   0.29166667  0.29166667  0.95833333
   0.29166667  0.62500000  0.29166667
   0.29166667  0.62500000  0.62500000
   0.29166667  0.62500000  0.95833333
   0.29166667  0.95833333  0.29166667
   0.29166667  0.95833333  0.62500000
   0.29166667  0.95833333  0.95833333
   0.62500000  0.29166667  0.29166667
   0.62500000  0.29166667  0.62500000
   0.62500000  0.29166667  0.95833333
   0.62500000  0.62500000  0.29166667
   0.62500000  0.62500000  0.62500000
   0.62500000  0.62500000  0.95833333
   0.62500000  0.95833333  0.29166667
   0.62500000  0.95833333  0.62500000
   0.62500000  0.95833333  0.95833333
   0.95833333  0.29166667  0.29166667
   0.95833333  0.29166667  0.62500000
   0.95833333  0.29166667  0.95833333
   0.95833333  0.62500000  0.29166667
   0.95833333  0.62500000  0.62500000
   0.95833333  0.62500000  0.95833333
   0.95833333  0.95833333  0.29166667
   0.95833333  0.95833333  0.62500000
   0.95833333  0.95833333  0.95833333
   0.04166667  0.04166667  0.04166667
   0.04166667  0.04166667  0.37500000
   0.04166667  0.04166667  0.70833333
   0.04166667  0.37500000  0.04166667
   0.04166667  0.37500000  0.37500000
   0.04166667  0.37500000  0.70833333
   0.04166667  0.70833333  0.04166667
   0.04166667  0.70833333  0.37500000
   0.04166667  0.70833333  0.70833333
   0.37500000  0.04166667  0.04166667
   0.37500000  0.04166667  0.37500000
   0.37500000  0.04166667  0.70833333
   0.37500000  0.37500000  0.04166667
   0.37500000  0.37500000  0.37500000
   0.37500000  0.37500000  0.70833333
   0.37500000  0.70833333  0.04166667
   0.37500000  0.70833333  0.37500000
   0.37500000  0.70833333  0.70833333
   0.70833333  0.04166667  0.04166667
   0.70833333  0.04166667  0.37500000
   0.70833333  0.04166667  0.70833333
   0.70833333  0.37500000  0.04166667
   0.70833333  0.37500000  0.37500000
   0.70833333  0.37500000  0.70833333
   0.70833333  0.70833333  0.04166667
   0.70833333  0.70833333  0.37500000
   0.70833333  0.70833333  0.70833333
 
 position of ions in cartesian coordinates  (Angst):
   3.87973659  2.74338806  6.71990091
   3.87973659  2.74338806 10.55984429
   3.87973659  2.74338806 14.39978767
   4.98823276  5.87868870  8.63987260
   4.98823276  5.87868870 12.47981598
   4.98823276  5.87868870 16.31975937
   6.09672893  9.01398934 10.55984429
   6.09672893  9.01398934 14.39978767
   6.09672893  9.01398934 18.23973106
   7.20522510  2.74338806  8.63987260
   7.20522510  2.74338806 12.47981598
   7.20522510  2.74338806 16.31975937
   8.31372128  5.87868870 10.55984429
   8.31372128  5.87868870 14.39978767
   8.31372128  5.87868870 18.23973106
   9.42221745  9.01398934 12.47981598
   9.42221745  9.01398934 16.31975937
   9.42221745  9.01398934 20.15970275
  10.53071362  2.74338806 10.55984429
  10.53071362  2.74338806 14.39978767
  10.53071362  2.74338806 18.23973106
  11.63920979  5.87868870 12.47981598
  11.63920979  5.87868870 16.31975937
  11.63920979  5.87868870 20.15970275
  12.74770596  9.01398934 14.39978767
  12.74770596  9.01398934 18.23973106
  12.74770596  9.01398934 22.07967444
   0.55424808  0.39191258  0.95998584
   0.55424808  0.39191258  4.79992922
   0.55424808  0.39191258  8.63987260
   1.66274425  3.52721322  2.87995753
   1.66274425  3.52721322  6.71990091
   1.66274425  3.52721322 10.55984430
   2.77124042  6.66251386  4.79992922
   2.77124042  6.66251386  8.63987261
   2.77124042  6.66251386 12.47981599
   3.87973659  0.39191258  2.87995753
   3.87973659  0.39191258  6.71990091
   3.87973659  0.39191258 10.55984430
   4.98823277  3.52721322  4.79992922
   4.98823277  3.52721322  8.63987261
   4.98823277  3.52721322 12.47981599
   6.09672894  6.66251386  6.71990091
   6.09672894  6.66251386 10.55984430
   6.09672894  6.66251386 14.39978768
   7.20522511  0.39191258  4.79992922
   7.20522511  0.39191258  8.63987261
   7.20522511  0.39191258 12.47981599
   8.31372128  3.52721322  6.71990091
   8.31372128  3.52721322 10.55984430
   8.31372128  3.52721322 14.39978768
   9.42221745  6.66251386  8.63987260
   9.42221745  6.66251386 12.47981599
   9.42221745  6.66251386 16.31975937
 


--------------------------------------------------------------------------------------------------------


 k-point  1 :   0.0000 0.0000 0.0000  plane waves:   31415
 k-point  2 :   0.2500 0.0000 0.0000  plane waves:   31608
 k-point  3 :   0.5000 0.0000 0.0000  plane waves:   31638
 k-point  4 :   0.2500 0.2500 0.0000  plane waves:   31695
 k-point  5 :   0.5000 0.2500 0.0000  plane waves:   31649
 k-point  6 :  -0.2500 0.2500 0.0000  plane waves:   31674
 k-point  7 :   0.5000 0.5000 0.0000  plane waves:   31716
 k-point  8 :  -0.2500 0.5000 0.2500  plane waves:   31684

 maximum and minimum number of plane-waves per node :     31716    31415

 maximum number of plane-waves:     31716
 maximum index in each direction: 
   IXMAX=   22   IYMAX=   22   IZMAX=   22
   IXMIN=  -22   IYMIN=  -22   IZMIN=  -22


 serial   3D FFT for wavefunctions
 parallel 3D FFT for charge:
    minimum data exchange during FFTs selected (reduces bandwidth)


 total amount of memory used by VASP MPI-rank0   140598. kBytes
=======================================================================

   base      :      30000. kBytes
   nonl-proj :      59902. kBytes
   fftplans  :       5382. kBytes
   grid      :      20451. kBytes
   one-center:        165. kBytes
   wavefun   :      24698. kBytes
 
     INWAV:  cpu time   14.2591: real time   14.4211
 Broyden mixing: mesh for mixing (old mesh)
   NGX = 45   NGY = 45   NGZ = 45
  (NGX  =140   NGY  =140   NGZ  =140)
  gives a total of  91125 points

 charge density for first step will be calculated from the start-wavefunctions


--------------------------------------------------------------------------------------------------------


 Maximum index for augmentation-charges          503 (set IRDMAX)


--------------------------------------------------------------------------------------------------------


 initial charge from wavefunction
 First call to EWALD:  gamma=   0.173
 Maximum number of real-space cells 3x 3x 3
 Maximum number of reciprocal cells 3x 3x 3

    FEWALD:  cpu time    0.0646: real time    0.0652


--------------------------------------- Iteration      1(   1)  ---------------------------------------


    POTLOK:  cpu time    0.1097: real time    0.1217
    SETDIJ:  cpu time    0.0833: real time    0.0840
     EDDAV:  cpu time    2.8918: real time    2.9228
       DOS:  cpu time    0.0118: real time    0.0132
    CHARGE:  cpu time    0.1664: real time    0.1674
    MIXING:  cpu time    0.0089: real time    0.0093
    --------------------------------------------
      LOOP:  cpu time    3.2718: real time    3.3183

 eigenvalue-minimisations  :  1728
 total energy-change (2. order) :-0.2989870E+03  (-0.8374974E-07)
 number of electron     215.9999999 magnetization 
 augmentation part      -12.6499531 magnetization 

 Broyden mixing:
  rms(total) = 0.11786E-03    rms(broyden)= 0.11786E-03
  rms(prec ) = 0.24454E-03
  weight for this iteration     100.00

 Free energy of the ion-electron system (eV)
  ---------------------------------------------------
  alpha Z        PSCENC =        93.56316191
  Ewald energy   TEWEN  =     -6229.80980546
  -Hartree energ DENC   =      -415.26128013
  -exchange      EXHF   =         0.00000000
  -V(xc)+E(xc)   XCENC  =      -475.43926955
  PAW double counting   =     23288.04336452   -22353.21654902
  entropy T*S    EENTRO =        -0.00000000
  eigenvalues    EBANDS =       154.56830805
  atomic energy  EATOM  =      5638.56506835
  Solvation  Ediel_sol  =         0.00000000
  ---------------------------------------------------
  free energy    TOTEN  =      -298.98700133 eV

  energy without entropy =     -298.98700133  energy(sigma->0) =     -298.98700133


--------------------------------------------------------------------------------------------------------




--------------------------------------- Iteration      1(   2)  ---------------------------------------


    POTLOK:  cpu time    0.0979: real time    0.0988
    SETDIJ:  cpu time    0.1500: real time    0.1513
     EDDAV:  cpu time    4.7107: real time    4.7540
       DOS:  cpu time    0.1627: real time    0.1640
    --------------------------------------------
      LOOP:  cpu time    5.1212: real time    5.1681

 eigenvalue-minimisations  :  1728
 total energy-change (2. order) : 0.7009658E-07  (-0.3888366E-07)
 number of electron     215.9999999 magnetization 
 augmentation part      -12.6499531 magnetization 

 Free energy of the ion-electron system (eV)
  ---------------------------------------------------
  alpha Z        PSCENC =        93.56316191
  Ewald energy   TEWEN  =     -6229.80980546
  -Hartree energ DENC   =      -415.26079247
  -exchange      EXHF   =         0.00000000
  -V(xc)+E(xc)   XCENC  =      -475.43929188
  PAW double counting   =     23288.08861531   -22353.26178027
  entropy T*S    EENTRO =        -0.00000000
  eigenvalues    EBANDS =       154.56782324
  atomic energy  EATOM  =      5638.56506835
  Solvation  Ediel_sol  =         0.00000000
  ---------------------------------------------------
  free energy    TOTEN  =      -298.98700126 eV

  energy without entropy =     -298.98700126  energy(sigma->0) =     -298.98700126


--------------------------------------------------------------------------------------------------------




 average (electrostatic) potential at core
  the test charge radii are     0.9587  0.9892
  (the norm of the test charge is              1.0000)
       1 -83.7442       2 -83.3044       3 -83.3044       4 -83.3044       5 -83.1819
       6 -83.3044       7 -83.3044       8 -83.3044       9 -83.1761      10 -83.3044
      11 -83.1819      12 -83.3044      13 -83.1819      14 -83.1819      15 -83.1351
      16 -83.3044      17 -83.1351      18 -83.1351      19 -83.3044      20 -83.3044
      21 -83.1761      22 -83.3044      23 -83.1351      24 -83.1351      25 -83.1761
      26 -83.1351      27 -83.1761      28 -83.1287      29 -83.1916      30 -83.1916
      31 -83.1916      32 -83.7900      33 -83.1916      34 -83.1916      35 -83.1916
      36 -83.1339      37 -83.1916      38 -83.7900      39 -83.1916      40 -83.7900
      41 -83.7900      42 -83.2913      43 -83.1916      44 -83.2913      45 -83.2913
      46 -83.1916      47 -83.1916      48 -83.1339      49 -83.1916      50 -83.2913
      51 -83.2913      52 -83.1339      53 -83.2913      54 -83.1339
 
 
 
 E-fermi :   6.0313     XC(G=0):  -9.3941     alpha+bet :-11.9616


 k-point     1 :       0.0000    0.0000    0.0000
  band No.  band energies     occupation 
      1      -6.7614      2.00000
      2      -5.8220      2.00000
      3      -4.7869      2.00000
      4      -4.7869      2.00000
      5      -4.7869      2.00000
      6      -4.7228      2.00000
      7      -4.7228      2.00000
      8      -4.7228      2.00000
      9      -4.6886      2.00000
     10      -4.3487      2.00000
     11      -4.2202      2.00000
     12      -4.2202      2.00000
     13      -4.2202      2.00000
     14      -4.2045      2.00000
     15      -4.2045      2.00000
     16      -3.4138      2.00000
     17      -2.9559      2.00000
     18      -2.9559      2.00000
     19      -2.9559      2.00000
     20      -2.8576      2.00000
     21      -2.8576      2.00000
     22      -2.8576      2.00000
     23      -2.8284      2.00000
     24      -2.8284      2.00000
     25      -2.7964      2.00000
     26      -2.7964      2.00000
     27      -2.7964      2.00000
     28      -1.4379      2.00000
     29      -1.0835      2.00000
     30      -1.0835      2.00000
     31      -1.0835      2.00000
     32      -0.9369      2.00000
     33      -0.9369      2.00000
     34      -0.9369      2.00000
     35      -0.9010      2.00000
     36      -0.9010      2.00000
     37      -0.8711      2.00000
     38      -0.8711      2.00000
     39      -0.8711      2.00000
     40       0.2429      2.00000
     41       0.3241      2.00000
     42       0.3241      2.00000
     43       0.3241      2.00000
     44       0.5080      2.00000
     45       0.5080      2.00000
     46       0.5080      2.00000
     47       0.5261      2.00000
     48       0.7867      2.00000
     49       0.7984      2.00000
     50       0.7984      2.00000
     51       0.7984      2.00000
     52       0.8363      2.00000
     53       0.8363      2.00000
     54       1.1867      2.00000
     55       1.1867      2.00000
     56       1.1867      2.00000
     57       1.4013      2.00000
     58       1.4013      2.00000
     59       1.4739      2.00000
     60       1.4739      2.00000
     61       1.4739      2.00000
     62       1.4949      2.00000
     63       1.4949      2.00000
     64       1.4949      2.00000
     65       1.4962      2.00000
     66       2.9528      2.00000
     67       2.9528      2.00000
     68       2.9528      2.00000
     69       3.3888      2.00000
     70       3.3888      2.00000
     71       3.3888      2.00000
     72       3.4235      2.00000
     73       3.4235      2.00000
     74       3.4235      2.00000
     75       3.4483      2.00000
     76       3.4483      2.00000
     77       3.4483      2.00000
     78       3.6742      2.00000
     79       3.6742      2.00000
     80       3.6742      2.00000
     81       3.7236      2.00000
     82       3.7236      2.00000
     83       3.7236      2.00000
     84       3.7298      2.00000
     85       3.7298      2.00000
     86       3.7438      2.00000
     87       3.7633      2.00000
     88       3.7633      2.00000
     89       3.7633      2.00000
     90       4.5829      2.00000
     91       4.5829      2.00000
     92       4.5829      2.00000
     93       4.8117      2.00000
     94       4.8117      2.00000
     95       4.8145      2.00000
     96       4.8145      2.00000
     97       4.8145      2.00000
     98       4.8789      2.00000
     99       4.8789      2.00000
    100       4.8789      2.00000
    101       4.8816      2.00000
    102       4.8816      2.00000
    103       4.8822      2.00000
    104       4.8822      2.00000
    105       4.8822      2.00000
    106       5.8150      2.00000
    107       5.8150      2.00000
    108       5.8150      2.00000
    109       6.2614      0.00000
    110       6.5074      0.00000
    111       6.5074      0.00000
    112       6.5074      0.00000
    113       6.5694      0.00000
    114       6.5694      0.00000
    115       6.9120      0.00000
    116       7.3044      0.00000
    117       7.3044      0.00000
    118       7.3044      0.00000
    119       7.3722      0.00000
    120       7.3722      0.00000
    121       7.4118      0.00000
    122       7.4118      0.00000
    123       7.4118      0.00000
    124       7.4305      0.00000
    125       7.4305      0.00000
    126       7.4305      0.00000
    127       7.5425      0.00000
    128       7.5703      0.00000
    129       7.5703      0.00000
    130       7.5703      0.00000
    131       7.6450      0.00000
    132       7.6521      0.00000
    133       7.6521      0.00000
    134       7.6521      0.00000
    135       7.8360      0.00000
    136       7.8360      0.00000
    137       7.8360      0.00000
    138       7.8446      0.00000
    139       7.8446      0.00000
    140       7.8520      0.00000
    141       8.3454      0.00000
    142       8.3454      0.00000
    143       8.3454      0.00000
    144       9.1383      0.00000

 k-point     2 :       0.2500    0.0000    0.0000
  band No.  band energies     occupation 
      1      -6.7444      2.00000
      2      -5.7919      2.00000
      3      -5.2285      2.00000
      4      -4.8844      2.00000
      5      -4.8844      2.00000
      6      -4.6936      2.00000
      7      -4.6105      2.00000
      8      -4.6105      2.00000
      9      -4.5174      2.00000
     10      -4.4438      2.00000
     11      -4.4438      2.00000
     12      -4.1945      2.00000
     13      -3.8635      2.00000
     14      -3.6895      2.00000
     15      -3.6895      2.00000
     16      -3.5872      2.00000
     17      -3.4525      2.00000
     18      -3.4525      2.00000
     19      -3.0995      2.00000
     20      -2.9041      2.00000
     21      -2.9041      2.00000
     22      -2.8528      2.00000
     23      -2.8060      2.00000
     24      -2.8060      2.00000
     25      -2.6705      2.00000
     26      -2.5846      2.00000
     27      -2.5846      2.00000
     28      -1.5189      2.00000
     29      -1.2347      2.00000
     30      -1.2347      2.00000
     31      -1.2008      2.00000
     32      -1.0525      2.00000
     33      -1.0525      2.00000
     34      -0.9727      2.00000
     35      -0.9293      2.00000
     36      -0.9293      2.00000
     37      -0.6743      2.00000
     38      -0.5211      2.00000
     39      -0.4898      2.00000
     40      -0.4898      2.00000
     41      -0.1157      2.00000
     42      -0.0088      2.00000
     43      -0.0088      2.00000
     44       0.1143      2.00000
     45       0.1143      2.00000
     46       0.1468      2.00000
     47       0.8369      2.00000
     48       0.8726      2.00000
     49       0.8726      2.00000
     50       1.2533      2.00000
     51       1.2779      2.00000
     52       1.2779      2.00000
     53       1.4157      2.00000
     54       1.4715      2.00000
     55       1.4715      2.00000
     56       1.6073      2.00000
     57       1.6073      2.00000
     58       1.6496      2.00000
     59       1.6754      2.00000
     60       1.6754      2.00000
     61       1.6775      2.00000
     62       1.7708      2.00000
     63       1.8358      2.00000
     64       1.8358      2.00000
     65       1.9432      2.00000
     66       2.6721      2.00000
     67       2.8046      2.00000
     68       2.8046      2.00000
     69       3.0614      2.00000
     70       3.0614      2.00000
     71       3.1548      2.00000
     72       3.2722      2.00000
     73       3.3537      2.00000
     74       3.3537      2.00000
     75       3.4170      2.00000
     76       3.4170      2.00000
     77       3.4218      2.00000
     78       3.4410      2.00000
     79       3.4410      2.00000
     80       3.4562      2.00000
     81       3.5087      2.00000
     82       3.5221      2.00000
     83       3.5221      2.00000
     84       3.6541      2.00000
     85       3.6541      2.00000
     86       3.7161      2.00000
     87       3.8888      2.00000
     88       3.9900      2.00000
     89       3.9900      2.00000
     90       4.0602      2.00000
     91       4.0602      2.00000
     92       4.1286      2.00000
     93       4.4343      2.00000
     94       4.4343      2.00000
     95       4.4753      2.00000
     96       4.5323      2.00000
     97       4.5669      2.00000
     98       4.5669      2.00000
     99       4.6560      2.00000
    100       4.6560      2.00000
    101       4.8216      2.00000
    102       4.8216      2.00000
    103       4.8591      2.00000
    104       4.9721      2.00000
    105       5.0641      2.00000
    106       5.0641      2.00000
    107       5.6749      2.00000
    108       5.6749      2.00000
    109       6.5136      0.00000
    110       6.6853      0.00000
    111       6.6853      0.00000
    112       6.8058      0.00000
    113       6.9992      0.00000
    114       6.9992      0.00000
    115       7.0792      0.00000
    116       7.1121      0.00000
    117       7.1121      0.00000
    118       7.3223      0.00000
    119       7.5068      0.00000
    120       7.6663      0.00000
    121       7.6663      0.00000
    122       7.7520      0.00000
    123       7.8203      0.00000
    124       7.8203      0.00000
    125       7.8578      0.00000
    126       7.9141      0.00000
    127       7.9291      0.00000
    128       7.9291      0.00000
    129       7.9827      0.00000
    130       7.9827      0.00000
    131       7.9995      0.00000
    132       8.0394      0.00000
    133       8.0410      0.00000
    134       8.0410      0.00000
    135       8.1394      0.00000
    136       8.1577      0.00000
    137       8.1577      0.00000
    138       8.3908      0.00000
    139       8.5487      0.00000
    140       8.5487      0.00000
    141       8.5977      0.00000
    142       8.6240      0.00000
    143       8.6240      0.00000
    144       8.9832      0.00000

 k-point     3 :       0.5000    0.0000    0.0000
  band No.  band energies     occupation 
      1      -6.7266      2.00000
      2      -5.7267      2.00000
      3      -5.4696      2.00000
      4      -4.8784      2.00000
      5      -4.8784      2.00000
      6      -4.7767      2.00000
      7      -4.7767      2.00000
      8      -4.7546      2.00000
      9      -4.3900      2.00000
     10      -4.0500      2.00000
     11      -4.0394      2.00000
     12      -4.0394      2.00000
     13      -3.9952      2.00000
     14      -3.9952      2.00000
     15      -3.8172      2.00000
     16      -3.3839      2.00000
     17      -3.0938      2.00000
     18      -3.0781      2.00000
     19      -3.0781      2.00000
     20      -3.0454      2.00000
     21      -3.0454      2.00000
     22      -2.9242      2.00000
     23      -2.8821      2.00000
     24      -2.8821      2.00000
     25      -2.8478      2.00000
     26      -2.7997      2.00000
     27      -2.7997      2.00000
     28      -1.4705      2.00000
     29      -1.2121      2.00000
     30      -1.1129      2.00000
     31      -1.1129      2.00000
     32      -1.0070      2.00000
     33      -0.9694      2.00000
     34      -0.9694      2.00000
     35      -0.8726      2.00000
     36      -0.7521      2.00000
     37      -0.7521      2.00000
     38      -0.7243      2.00000
     39      -0.7109      2.00000
     40      -0.7109      2.00000
     41      -0.2387      2.00000
     42      -0.2387      2.00000
     43      -0.2318      2.00000
     44      -0.1615      2.00000
     45      -0.1523      2.00000
     46      -0.1523      2.00000
     47       1.1569      2.00000
     48       1.1751      2.00000
     49       1.1751      2.00000
     50       1.4158      2.00000
     51       1.4158      2.00000
     52       1.4506      2.00000
     53       1.6531      2.00000
     54       1.6531      2.00000
     55       1.7457      2.00000
     56       1.8630      2.00000
     57       1.8681      2.00000
     58       1.8681      2.00000
     59       1.8807      2.00000
     60       2.1473      2.00000
     61       2.1473      2.00000
     62       2.2184      2.00000
     63       2.2184      2.00000
     64       2.2378      2.00000
     65       2.5072      2.00000
     66       2.7314      2.00000
     67       2.7451      2.00000
     68       2.7451      2.00000
     69       2.8015      2.00000
     70       2.8015      2.00000
     71       2.9763      2.00000
     72       2.9763      2.00000
     73       3.0140      2.00000
     74       3.0819      2.00000
     75       3.1091      2.00000
     76       3.1091      2.00000
     77       3.1209      2.00000
     78       3.1209      2.00000
     79       3.2542      2.00000
     80       3.3292      2.00000
     81       3.3295      2.00000
     82       3.3295      2.00000
     83       3.4020      2.00000
     84       3.4310      2.00000
     85       3.7287      2.00000
     86       3.7885      2.00000
     87       3.7885      2.00000
     88       3.8888      2.00000
     89       3.8888      2.00000
     90       3.8888      2.00000
     91       3.9214      2.00000
     92       3.9214      2.00000
     93       4.0831      2.00000
     94       4.0942      2.00000
     95       4.0942      2.00000
     96       4.1130      2.00000
     97       4.4516      2.00000
     98       4.4516      2.00000
     99       4.5444      2.00000
    100       4.5444      2.00000
    101       4.5468      2.00000
    102       4.5679      2.00000
    103       4.6352      2.00000
    104       4.6352      2.00000
    105       5.3091      2.00000
    106       5.3091      2.00000
    107       5.4248      2.00000
    108       5.4248      2.00000
    109       6.6069      0.00000
    110       6.8058      0.00000
    111       6.8058      0.00000
    112       6.9458      0.00000
    113       6.9551      0.00000
    114       6.9551      0.00000
    115       7.2798      0.00000
    116       7.5517      0.00000
    117       7.7420      0.00000
    118       7.7420      0.00000
    119       7.7839      0.00000
    120       7.8212      0.00000
    121       7.8212      0.00000
    122       8.0439      0.00000
    123       8.1826      0.00000
    124       8.2403      0.00000
    125       8.2454      0.00000
    126       8.2454      0.00000
    127       8.3018      0.00000
    128       8.3018      0.00000
    129       8.3068      0.00000
    130       8.3730      0.00000
    131       8.4859      0.00000
    132       8.4859      0.00000
    133       8.5374      0.00000
    134       8.5552      0.00000
    135       8.5552      0.00000
    136       8.8689      0.00000
    137       8.8689      0.00000
    138       8.9977      0.00000
    139       9.0776      0.00000
    140       9.0776      0.00000
    141       9.1381      0.00000
    142       9.1385      0.00000
    143       9.1503      0.00000
    144       9.1954      0.00000

 k-point     4 :       0.2500    0.2500    0.0000
  band No.  band energies     occupation 
      1      -6.7392      2.00000
      2      -5.7753      2.00000
      3      -5.0711      2.00000
      4      -5.0711      2.00000
      5      -5.0488      2.00000
      6      -4.9861      2.00000
      7      -4.7034      2.00000
      8      -4.2771      2.00000
      9      -4.2771      2.00000
     10      -4.2222      2.00000
     11      -4.1265      2.00000
     12      -4.1066      2.00000
     13      -4.1033      2.00000
     14      -4.1033      2.00000
     15      -3.6664      2.00000
     16      -3.4114      2.00000
     17      -3.4114      2.00000
     18      -3.3747      2.00000
     19      -3.2619      2.00000
     20      -3.1382      2.00000
     21      -3.0733      2.00000
     22      -3.0733      2.00000
     23      -3.0575      2.00000
     24      -2.5105      2.00000
     25      -2.3472      2.00000
     26      -2.3472      2.00000
     27      -2.3128      2.00000
     28      -1.6522      2.00000
     29      -1.4582      2.00000
     30      -1.4582      2.00000
     31      -1.4029      2.00000
     32      -1.1074      2.00000
     33      -1.0165      2.00000
     34      -0.9936      2.00000
     35      -0.9936      2.00000
     36      -0.6785      2.00000
     37      -0.4937      2.00000
     38      -0.4334      2.00000
     39      -0.4334      2.00000
     40      -0.3667      2.00000
     41      -0.3043      2.00000
     42      -0.2812      2.00000
     43      -0.2812      2.00000
     44      -0.2506      2.00000
     45       0.5443      2.00000
     46       0.5853      2.00000
     47       0.5853      2.00000
     48       0.6632      2.00000
     49       1.1262      2.00000
     50       1.2505      2.00000
     51       1.2505      2.00000
     52       1.4117      2.00000
     53       1.5190      2.00000
     54       1.5190      2.00000
     55       1.5194      2.00000
     56       1.5875      2.00000
     57       1.6870      2.00000
     58       1.7099      2.00000
     59       1.7121      2.00000
     60       1.7121      2.00000
     61       1.8938      2.00000
     62       1.9401      2.00000
     63       1.9401      2.00000
     64       1.9622      2.00000
     65       2.3024      2.00000
     66       2.6958      2.00000
     67       2.7222      2.00000
     68       2.7222      2.00000
     69       2.9888      2.00000
     70       3.0530      2.00000
     71       3.0582      2.00000
     72       3.0582      2.00000
     73       3.0859      2.00000
     74       3.1018      2.00000
     75       3.1018      2.00000
     76       3.3234      2.00000
     77       3.3809      2.00000
     78       3.3809      2.00000
     79       3.4342      2.00000
     80       3.6250      2.00000
     81       3.6250      2.00000
     82       3.6853      2.00000
     83       3.7733      2.00000
     84       3.7733      2.00000
     85       3.7745      2.00000
     86       3.8217      2.00000
     87       3.8243      2.00000
     88       3.9674      2.00000
     89       3.9674      2.00000
     90       4.0131      2.00000
     91       4.1121      2.00000
     92       4.1121      2.00000
     93       4.1505      2.00000
     94       4.2552      2.00000
     95       4.2699      2.00000
     96       4.2699      2.00000
     97       4.2818      2.00000
     98       4.3765      2.00000
     99       4.3765      2.00000
    100       4.4404      2.00000
    101       4.4417      2.00000
    102       5.0711      2.00000
    103       5.0711      2.00000
    104       5.1198      2.00000
    105       5.1639      2.00000
    106       5.1662      2.00000
    107       5.4082      2.00000
    108       5.4082      2.00000
    109       6.3632      0.00000
    110       6.7001      0.00000
    111       7.0093      0.00000
    112       7.0918      0.00000
    113       7.1437      0.00000
    114       7.1437      0.00000
    115       7.2310      0.00000
    116       7.3848      0.00000
    117       7.4616      0.00000
    118       7.5463      0.00000
    119       7.5463      0.00000
    120       7.5591      0.00000
    121       7.5769      0.00000
    122       7.5769      0.00000
    123       7.5898      0.00000
    124       7.8067      0.00000
    125       7.8906      0.00000
    126       7.9609      0.00000
    127       7.9609      0.00000
    128       8.1080      0.00000
    129       8.1475      0.00000
    130       8.2206      0.00000
    131       8.2206      0.00000
    132       8.2784      0.00000
    133       8.2816      0.00000
    134       8.3099      0.00000
    135       8.3099      0.00000
    136       8.3280      0.00000
    137       8.3924      0.00000
    138       8.3924      0.00000
    139       8.4062      0.00000
    140       8.4115      0.00000
    141       8.8446      0.00000
    142       8.8446      0.00000
    143       8.9319      0.00000
    144       9.0640      0.00000

 k-point     5 :       0.5000    0.2500    0.0000
  band No.  band energies     occupation 
      1      -6.7219      2.00000
      2      -5.6766      2.00000
      3      -5.4409      2.00000
      4      -5.1921      2.00000
      5      -5.0921      2.00000
      6      -4.8412      2.00000
      7      -4.5890      2.00000
      8      -4.4022      2.00000
      9      -4.2427      2.00000
     10      -4.1617      2.00000
     11      -4.0085      2.00000
     12      -3.9671      2.00000
     13      -3.8855      2.00000
     14      -3.7929      2.00000
     15      -3.6439      2.00000
     16      -3.5229      2.00000
     17      -3.5092      2.00000
     18      -3.4278      2.00000
     19      -3.3320      2.00000
     20      -3.2868      2.00000
     21      -3.2025      2.00000
     22      -3.1903      2.00000
     23      -2.7040      2.00000
     24      -2.5404      2.00000
     25      -2.4894      2.00000
     26      -2.4114      2.00000
     27      -2.3716      2.00000
     28      -1.6492      2.00000
     29      -1.3787      2.00000
     30      -1.3616      2.00000
     31      -1.2892      2.00000
     32      -1.2878      2.00000
     33      -1.0770      2.00000
     34      -1.0107      2.00000
     35      -0.9413      2.00000
     36      -0.9360      2.00000
     37      -0.6665      2.00000
     38      -0.5853      2.00000
     39      -0.5774      2.00000
     40      -0.5482      2.00000
     41      -0.5392      2.00000
     42      -0.2388      2.00000
     43      -0.1872      2.00000
     44       0.0917      2.00000
     45       0.1390      2.00000
     46       0.1423      2.00000
     47       0.7967      2.00000
     48       0.8156      2.00000
     49       0.9154      2.00000
     50       1.5027      2.00000
     51       1.5345      2.00000
     52       1.6746      2.00000
     53       1.8156      2.00000
     54       1.8406      2.00000
     55       1.9391      2.00000
     56       1.9401      2.00000
     57       2.0690      2.00000
     58       2.1094      2.00000
     59       2.2735      2.00000
     60       2.2810      2.00000
     61       2.3545      2.00000
     62       2.3709      2.00000
     63       2.3727      2.00000
     64       2.3931      2.00000
     65       2.4951      2.00000
     66       2.5454      2.00000
     67       2.5883      2.00000
     68       2.6721      2.00000
     69       2.7269      2.00000
     70       2.7778      2.00000
     71       2.7905      2.00000
     72       2.8913      2.00000
     73       2.9057      2.00000
     74       2.9686      2.00000
     75       2.9878      2.00000
     76       3.0102      2.00000
     77       3.1257      2.00000
     78       3.1746      2.00000
     79       3.1838      2.00000
     80       3.2182      2.00000
     81       3.2472      2.00000
     82       3.2818      2.00000
     83       3.4018      2.00000
     84       3.5516      2.00000
     85       3.5858      2.00000
     86       3.6402      2.00000
     87       3.6629      2.00000
     88       3.7069      2.00000
     89       3.8526      2.00000
     90       3.8735      2.00000
     91       3.9014      2.00000
     92       3.9624      2.00000
     93       4.0053      2.00000
     94       4.1515      2.00000
     95       4.1552      2.00000
     96       4.2132      2.00000
     97       4.2389      2.00000
     98       4.2893      2.00000
     99       4.2905      2.00000
    100       4.3299      2.00000
    101       4.4408      2.00000
    102       4.4585      2.00000
    103       4.8011      2.00000
    104       4.8623      2.00000
    105       4.8710      2.00000
    106       5.0437      2.00000
    107       5.2211      2.00000
    108       5.4646      2.00000
    109       6.5535      0.00000
    110       7.0203      0.00000
    111       7.2011      0.00000
    112       7.2962      0.00000
    113       7.3179      0.00000
    114       7.4978      0.00000
    115       7.5445      0.00000
    116       7.5606      0.00000
    117       7.7190      0.00000
    118       7.8517      0.00000
    119       7.8856      0.00000
    120       7.9363      0.00000
    121       7.9942      0.00000
    122       8.0451      0.00000
    123       8.1658      0.00000
    124       8.2195      0.00000
    125       8.2765      0.00000
    126       8.3606      0.00000
    127       8.3911      0.00000
    128       8.4355      0.00000
    129       8.4812      0.00000
    130       8.4853      0.00000
    131       8.5226      0.00000
    132       8.6046      0.00000
    133       8.7027      0.00000
    134       8.7183      0.00000
    135       8.7935      0.00000
    136       8.8007      0.00000
    137       8.8968      0.00000
    138       8.9032      0.00000
    139       8.9487      0.00000
    140       8.9491      0.00000
    141       8.9919      0.00000
    142       9.0429      0.00000
    143       9.0581      0.00000
    144       9.0670      0.00000

 k-point     6 :      -0.2500    0.2500    0.0000
  band No.  band energies     occupation 
      1      -6.7274      2.00000
      2      -5.7206      2.00000
      3      -5.3961      2.00000
      4      -5.1772      2.00000
      5      -4.9430      2.00000
      6      -4.7773      2.00000
      7      -4.5320      2.00000
      8      -4.4898      2.00000
      9      -4.4822      2.00000
     10      -4.2724      2.00000
     11      -4.0593      2.00000
     12      -4.0221      2.00000
     13      -3.9224      2.00000
     14      -3.8632      2.00000
     15      -3.6496      2.00000
     16      -3.4569      2.00000
     17      -3.4101      2.00000
     18      -3.3755      2.00000
     19      -3.1834      2.00000
     20      -3.1057      2.00000
     21      -3.0388      2.00000
     22      -2.9408      2.00000
     23      -2.9050      2.00000
     24      -2.8981      2.00000
     25      -2.6743      2.00000
     26      -2.6068      2.00000
     27      -2.1765      2.00000
     28      -1.7981      2.00000
     29      -1.3602      2.00000
     30      -1.1162      2.00000
     31      -1.1156      2.00000
     32      -1.0430      2.00000
     33      -0.9463      2.00000
     34      -0.8866      2.00000
     35      -0.8435      2.00000
     36      -0.8229      2.00000
     37      -0.7973      2.00000
     38      -0.7760      2.00000
     39      -0.6989      2.00000
     40      -0.6686      2.00000
     41      -0.6323      2.00000
     42      -0.6309      2.00000
     43       0.2287      2.00000
     44       0.2725      2.00000
     45       0.3912      2.00000
     46       0.4502      2.00000
     47       0.5091      2.00000
     48       0.5777      2.00000
     49       0.5845      2.00000
     50       1.4432      2.00000
     51       1.4436      2.00000
     52       1.5598      2.00000
     53       1.7699      2.00000
     54       1.8073      2.00000
     55       1.8594      2.00000
     56       1.9142      2.00000
     57       1.9520      2.00000
     58       1.9642      2.00000
     59       2.0525      2.00000
     60       2.1588      2.00000
     61       2.2101      2.00000
     62       2.2188      2.00000
     63       2.2734      2.00000
     64       2.4051      2.00000
     65       2.4104      2.00000
     66       2.5052      2.00000
     67       2.5750      2.00000
     68       2.6976      2.00000
     69       2.7614      2.00000
     70       2.8035      2.00000
     71       2.8481      2.00000
     72       2.8610      2.00000
     73       2.8941      2.00000
     74       3.0794      2.00000
     75       3.1135      2.00000
     76       3.1439      2.00000
     77       3.2029      2.00000
     78       3.2302      2.00000
     79       3.2956      2.00000
     80       3.3794      2.00000
     81       3.4183      2.00000
     82       3.4305      2.00000
     83       3.4794      2.00000
     84       3.4807      2.00000
     85       3.5413      2.00000
     86       3.6108      2.00000
     87       3.7194      2.00000
     88       3.8412      2.00000
     89       3.8536      2.00000
     90       3.8712      2.00000
     91       3.9442      2.00000
     92       3.9520      2.00000
     93       4.1599      2.00000
     94       4.2099      2.00000
     95       4.2345      2.00000
     96       4.3280      2.00000
     97       4.4188      2.00000
     98       4.5018      2.00000
     99       4.5599      2.00000
    100       4.5667      2.00000
    101       4.5741      2.00000
    102       4.6131      2.00000
    103       4.7435      2.00000
    104       4.7473      2.00000
    105       4.8566      2.00000
    106       4.8988      2.00000
    107       5.0016      2.00000
    108       5.6947      2.00000
    109       6.6732      0.00000
    110       6.9682      0.00000
    111       7.0113      0.00000
    112       7.1002      0.00000
    113       7.2597      0.00000
    114       7.3314      0.00000
    115       7.5180      0.00000
    116       7.5951      0.00000
    117       7.6149      0.00000
    118       7.6494      0.00000
    119       7.7111      0.00000
    120       7.7388      0.00000
    121       7.7481      0.00000
    122       7.8293      0.00000
    123       7.9136      0.00000
    124       8.1363      0.00000
    125       8.2278      0.00000
    126       8.2937      0.00000
    127       8.2941      0.00000
    128       8.3091      0.00000
    129       8.3495      0.00000
    130       8.4011      0.00000
    131       8.4327      0.00000
    132       8.5073      0.00000
    133       8.5091      0.00000
    134       8.5352      0.00000
    135       8.5483      0.00000
    136       8.6466      0.00000
    137       8.7045      0.00000
    138       8.7179      0.00000
    139       8.8370      0.00000
    140       8.9960      0.00000
    141       9.0337      0.00000
    142       9.1045      0.00000
    143       9.1533      0.00000
    144       9.1825      0.00000

 k-point     7 :       0.5000    0.5000    0.0000
  band No.  band energies     occupation 
      1      -6.7170      2.00000
      2      -5.6288      2.00000
      3      -5.4113      2.00000
      4      -5.1786      2.00000
      5      -5.1786      2.00000
      6      -5.1463      2.00000
      7      -4.6435      2.00000
      8      -3.9341      2.00000
      9      -3.9341      2.00000
     10      -3.8555      2.00000
     11      -3.8466      2.00000
     12      -3.7966      2.00000
     13      -3.7966      2.00000
     14      -3.7810      2.00000
     15      -3.7040      2.00000
     16      -3.6696      2.00000
     17      -3.6352      2.00000
     18      -3.6352      2.00000
     19      -3.6041      2.00000
     20      -3.5886      2.00000
     21      -3.5886      2.00000
     22      -3.5731      2.00000
     23      -2.3566      2.00000
     24      -2.0402      2.00000
     25      -1.9358      2.00000
     26      -1.9358      2.00000
     27      -1.9295      2.00000
     28      -1.8662      2.00000
     29      -1.8595      2.00000
     30      -1.8408      2.00000
     31      -1.8408      2.00000
     32      -1.8290      2.00000
     33      -0.9678      2.00000
     34      -0.8914      2.00000
     35      -0.8914      2.00000
     36      -0.8756      2.00000
     37      -0.7334      2.00000
     38      -0.7293      2.00000
     39      -0.7220      2.00000
     40      -0.7220      2.00000
     41      -0.0450      2.00000
     42       0.0805      2.00000
     43       0.0805      2.00000
     44       0.1736      2.00000
     45       0.2120      2.00000
     46       0.2209      2.00000
     47       0.2209      2.00000
     48       0.2392      2.00000
     49       1.5709      2.00000
     50       1.6851      2.00000
     51       1.6851      2.00000
     52       1.9899      2.00000
     53       2.1410      2.00000
     54       2.1410      2.00000
     55       2.1518      2.00000
     56       2.1771      2.00000
     57       2.1864      2.00000
     58       2.1994      2.00000
     59       2.1994      2.00000
     60       2.2008      2.00000
     61       2.2624      2.00000
     62       2.2952      2.00000
     63       2.2952      2.00000
     64       2.2998      2.00000
     65       2.3020      2.00000
     66       2.3162      2.00000
     67       2.3162      2.00000
     68       2.3230      2.00000
     69       2.7660      2.00000
     70       2.8594      2.00000
     71       2.8594      2.00000
     72       2.9826      2.00000
     73       3.0381      2.00000
     74       3.0381      2.00000
     75       3.0614      2.00000
     76       3.0770      2.00000
     77       3.0770      2.00000
     78       3.0933      2.00000
     79       3.2958      2.00000
     80       3.3507      2.00000
     81       3.3507      2.00000
     82       3.4369      2.00000
     83       3.5004      2.00000
     84       3.5162      2.00000
     85       3.5162      2.00000
     86       3.5423      2.00000
     87       3.5865      2.00000
     88       3.5865      2.00000
     89       3.5921      2.00000
     90       3.6039      2.00000
     91       3.7755      2.00000
     92       3.7967      2.00000
     93       3.8389      2.00000
     94       3.8389      2.00000
     95       4.0421      2.00000
     96       4.0424      2.00000
     97       4.1003      2.00000
     98       4.1008      2.00000
     99       4.1040      2.00000
    100       4.1040      2.00000
    101       4.5872      2.00000
    102       4.5872      2.00000
    103       4.6536      2.00000
    104       4.6536      2.00000
    105       5.2242      2.00000
    106       5.2242      2.00000
    107       5.2801      2.00000
    108       5.2839      2.00000
    109       6.4866      0.00000
    110       6.5091      0.00000
    111       7.3261      0.00000
    112       7.4341      0.00000
    113       7.6478      0.00000
    114       7.7655      0.00000
    115       7.8616      0.00000
    116       7.8616      0.00000
    117       7.9228      0.00000
    118       7.9228      0.00000
    119       7.9272      0.00000
    120       7.9364      0.00000
    121       8.3084      0.00000
    122       8.3084      0.00000
    123       8.3155      0.00000
    124       8.4606      0.00000
    125       8.5333      0.00000
    126       8.5498      0.00000
    127       8.5498      0.00000
    128       8.5940      0.00000
    129       8.6557      0.00000
    130       8.6962      0.00000
    131       8.6968      0.00000
    132       8.6968      0.00000
    133       8.7107      0.00000
    134       8.7120      0.00000
    135       8.7120      0.00000
    136       8.7135      0.00000
    137       8.8127      0.00000
    138       8.8321      0.00000
    139       8.8951      0.00000
    140       8.8951      0.00000
    141       9.2284      0.00000
    142       9.2284      0.00000
    143       9.3356      0.00000
    144       9.3976      0.00000

 k-point     8 :      -0.2500    0.5000    0.2500
  band No.  band energies     occupation 
      1      -6.7165      2.00000
      2      -5.5314      2.00000
      3      -5.4902      2.00000
      4      -5.4616      2.00000
      5      -5.0731      2.00000
      6      -4.6348      2.00000
      7      -4.6150      2.00000
      8      -4.5777      2.00000
      9      -4.2537      2.00000
     10      -3.8687      2.00000
     11      -3.8415      2.00000
     12      -3.8150      2.00000
     13      -3.7381      2.00000
     14      -3.7372      2.00000
     15      -3.7307      2.00000
     16      -3.7161      2.00000
     17      -3.5879      2.00000
     18      -3.5778      2.00000
     19      -3.5290      2.00000
     20      -3.5270      2.00000
     21      -3.0176      2.00000
     22      -2.9447      2.00000
     23      -2.8965      2.00000
     24      -2.8632      2.00000
     25      -2.1926      2.00000
     26      -2.0086      2.00000
     27      -1.9713      2.00000
     28      -1.9233      2.00000
     29      -1.8327      2.00000
     30      -1.8320      2.00000
     31      -1.2068      2.00000
     32      -1.1104      2.00000
     33      -1.0929      2.00000
     34      -1.0615      2.00000
     35      -0.8698      2.00000
     36      -0.8464      2.00000
     37      -0.7960      2.00000
     38      -0.7874      2.00000
     39      -0.3570      2.00000
     40      -0.3066      2.00000
     41      -0.2721      2.00000
     42      -0.2422      2.00000
     43      -0.1667      2.00000
     44      -0.1614      2.00000
     45      -0.1548      2.00000
     46      -0.1428      2.00000
     47       1.0413      2.00000
     48       1.0491      2.00000
     49       1.0669      2.00000
     50       1.1531      2.00000
     51       1.6343      2.00000
     52       1.7704      2.00000
     53       1.7889      2.00000
     54       2.0389      2.00000
     55       2.0855      2.00000
     56       2.1257      2.00000
     57       2.1472      2.00000
     58       2.2917      2.00000
     59       2.5059      2.00000
     60       2.5232      2.00000
     61       2.5743      2.00000
     62       2.5802      2.00000
     63       2.6238      2.00000
     64       2.6278      2.00000
     65       2.6482      2.00000
     66       2.6637      2.00000
     67       2.6713      2.00000
     68       2.7003      2.00000
     69       2.7045      2.00000
     70       2.7061      2.00000
     71       2.7128      2.00000
     72       2.7256      2.00000
     73       2.7653      2.00000
     74       2.7683      2.00000
     75       2.7777      2.00000
     76       2.7935      2.00000
     77       3.0072      2.00000
     78       3.0682      2.00000
     79       3.0711      2.00000
     80       3.1116      2.00000
     81       3.1706      2.00000
     82       3.2250      2.00000
     83       3.2407      2.00000
     84       3.2539      2.00000
     85       3.5284      2.00000
     86       3.5894      2.00000
[...]
   50        0.750   0.931   0.000   1.681
   51        0.750   0.931   0.000   1.681
   52        0.750   0.940   0.000   1.690
   53        0.750   0.931   0.000   1.682
   54        0.750   0.940   0.000   1.690
--------------------------------------------------
tot         40.786  51.060   0.000  91.846
 
    CHARGE:  cpu time    0.1636: real time    0.1648
    FORLOC:  cpu time    0.0336: real time    0.0337
    FORNL :  cpu time    1.5621: real time    1.5737
    STRESS:  cpu time    5.7842: real time    5.8462
    FORCOR:  cpu time    0.1049: real time    0.1056
    FORHAR:  cpu time    0.0466: real time    0.0468
    MIXING:  cpu time    0.0161: real time    0.0163
    OFIELD:  cpu time    0.0001: real time    0.0001

  FORCE on cell =-STRESS in cart. coord.  units (eV):
  Direction    XX          YY          ZZ          XY          YZ          ZX
  --------------------------------------------------------------------------------------
  Alpha Z    93.56316    93.56316    93.56316
  Ewald   -2076.61265 -2076.61266 -2076.61266    -0.00000     0.00000     0.00000
  Hartree   138.46072   138.46072   138.46072    -0.00000     0.00000     0.00000
  E(xc)    -685.69085  -685.69085  -685.69087    -0.00001    -0.00001    -0.00001
  Local    -804.51047  -804.51057  -804.51007     0.00014     0.00025     0.00035
  n-local  2095.34744  2112.16673  2126.87860    -2.34577    -0.97766     0.69133
  augment  -318.58004  -318.57995  -318.58041    -0.00013    -0.00023    -0.00032
  Kinetic  1518.70040  1544.53772  1567.22042    -1.62294    -1.34761     0.95290
  Fock        0.00000     0.00000     0.00000     0.00000     0.00000     0.00000
  -------------------------------------------------------------------------------------
  Total       1.58030     1.58030     1.58030     0.00000     0.00000     0.00000
  in kB       2.34222     2.34222     2.34222     0.00000     0.00000     0.00000
  external pressure =        2.34 kB  Pullay stress =        0.00 kB


 VOLUME and BASIS-vectors are now :
 -----------------------------------------------------------------------------
  energy-cutoff  :      550.00
  volume of cell :     1080.99
      direct lattice vectors                 reciprocal lattice vectors
     9.976465530  0.000000000  5.759915070     0.100235900 -0.035438742  0.000000000
     3.325488510  9.405901920  5.759915070     0.000000000  0.106316227  0.000000000
     0.000000000  0.000000000 11.519830140    -0.050117950 -0.035438742  0.086806836

  length of vectors
    11.519830124 11.519830136 11.519830140     0.106316227  0.106316227  0.106316227


 FORCES acting on ions
    electron-ion (+dipol)            ewald-force                    non-local-force                 convergence-correction
 -----------------------------------------------------------------------------------------------
   -.383E-06 -.172E-06 -.521E-06   0.147E-06 -.780E-07 0.123E-10   0.347E-17 0.208E-16 0.520E-16   -.230E-07 -.163E-07 -.399E-07
   -.132E+01 -.934E+00 -.285E+01   0.815E+00 0.576E+00 0.303E+01   0.499E+00 0.353E+00 -.169E+00   -.914E-03 -.646E-03 0.678E-03
   -.132E+01 -.934E+00 0.285E+01   0.815E+00 0.576E+00 -.303E+01   0.499E+00 0.353E+00 0.169E+00   -.914E-03 -.646E-03 -.678E-03
   -.148E+01 -.139E+01 -.257E+01   0.128E+01 0.190E+01 0.222E+01   0.201E+00 -.491E+00 0.348E+00   -.261E-03 0.120E-02 -.452E-03
   0.123E+00 -.437E-01 0.183E-05   -.179E+00 0.632E-01 -.112E-10   0.481E-01 -.170E-01 -.347E-16   -.856E-03 0.303E-03 -.818E-08
   -.148E+01 -.139E+01 0.257E+01   0.128E+01 0.190E+01 -.222E+01   0.201E+00 -.491E+00 -.348E+00   -.261E-03 0.120E-02 0.452E-03
   0.161E+00 0.326E+01 0.280E+00   -.467E+00 -.305E+01 -.809E+00   0.299E+00 -.215E+00 0.517E+00   -.653E-03 0.924E-04 -.113E-02
   0.161E+00 0.326E+01 -.280E+00   -.467E+00 -.305E+01 0.809E+00   0.299E+00 -.215E+00 -.517E+00   -.653E-03 0.924E-04 0.113E-02
   -.196E+00 0.693E-01 0.487E-06   0.114E+00 -.404E-01 -.236E-11   0.770E-01 -.272E-01 -.382E-16   0.125E-02 -.442E-03 0.129E-07
   -.181E+01 -.934E+00 -.257E+01   0.222E+01 0.576E+00 0.222E+01   -.396E+00 0.353E+00 0.348E+00   0.104E-02 -.646E-03 -.452E-03
   0.986E-06 0.131E+00 0.183E-05   0.116E-06 -.190E+00 -.112E-10   -.434E-18 0.511E-01 -.139E-16   -.477E-08 -.908E-03 -.818E-08
   -.181E+01 -.934E+00 0.257E+01   0.222E+01 0.576E+00 -.222E+01   -.396E+00 0.353E+00 -.348E+00   0.104E-02 -.646E-03 0.452E-03
   -.617E-01 -.437E-01 0.107E+00   0.894E-01 0.632E-01 -.155E+00   -.241E-01 -.170E-01 0.417E-01   0.428E-03 0.303E-03 -.742E-03
   -.617E-01 -.437E-01 -.107E+00   0.894E-01 0.632E-01 0.155E+00   -.241E-01 -.170E-01 -.417E-01   0.428E-03 0.303E-03 0.742E-03
   -.601E+00 -.425E+00 0.105E-06   0.646E+00 0.457E+00 0.187E-11   -.255E-01 -.181E-01 -.451E-16   -.861E-04 -.609E-04 0.212E-07
   -.323E+00 0.326E+01 -.565E-06   0.934E+00 -.305E+01 0.572E-11   -.597E+00 -.215E+00 0.829E-17   0.131E-02 0.924E-04 -.858E-07
   -.300E+00 0.425E+00 -.520E+00   0.323E+00 -.457E+00 0.560E+00   -.128E-01 0.181E-01 -.221E-01   -.430E-04 0.609E-04 -.746E-04
   -.300E+00 0.425E+00 0.520E+00   0.323E+00 -.457E+00 -.560E+00   -.128E-01 0.181E-01 0.221E-01   -.430E-04 0.609E-04 0.746E-04
   0.313E+01 -.934E+00 0.280E+00   -.303E+01 0.576E+00 -.809E+00   -.103E+00 0.353E+00 0.517E+00   -.130E-03 -.646E-03 -.113E-02
   0.313E+01 -.934E+00 -.280E+00   -.303E+01 0.576E+00 0.809E+00   -.103E+00 0.353E+00 -.517E+00   -.131E-03 -.646E-03 0.113E-02
   0.210E-06 -.208E+00 0.487E-06   0.124E-06 0.121E+00 -.239E-11   -.304E-17 0.817E-01 -.104E-16   0.746E-08 0.133E-02 0.129E-07
   0.297E+01 -.139E+01 -.565E-06   -.256E+01 0.190E+01 0.571E-11   -.402E+00 -.491E+00 0.390E-17   0.522E-03 0.120E-02 -.858E-07
   0.300E+00 -.425E+00 -.520E+00   -.323E+00 0.457E+00 0.560E+00   0.128E-01 -.181E-01 -.221E-01   0.431E-04 -.609E-04 -.746E-04
   0.300E+00 -.425E+00 0.520E+00   -.323E+00 0.457E+00 -.560E+00   0.128E-01 -.181E-01 0.221E-01   0.431E-04 -.609E-04 0.746E-04
   0.981E-01 0.693E-01 -.170E+00   -.572E-01 -.404E-01 0.991E-01   -.385E-01 -.272E-01 0.667E-01   -.625E-03 -.442E-03 0.108E-02
   0.601E+00 0.425E+00 0.143E-05   -.646E+00 -.457E+00 -.152E-10   0.255E-01 0.181E-01 -.416E-16   0.861E-04 0.609E-04 0.257E-07
   0.981E-01 0.693E-01 0.170E+00   -.572E-01 -.404E-01 -.991E-01   -.385E-01 -.272E-01 -.667E-01   -.625E-03 -.442E-03 -.108E-02
   0.612E-06 0.350E-06 0.941E-06   -.117E-06 0.619E-07 0.848E-11   0.434E-17 -.208E-16 -.347E-17   -.804E-08 -.572E-08 -.140E-07
   0.140E+01 0.991E+00 0.274E+00   -.148E+01 -.105E+01 -.239E+00   0.580E-01 0.410E-01 -.460E-01   -.142E-02 -.101E-02 -.254E-03
   0.140E+01 0.991E+00 -.274E+00   -.148E+01 -.105E+01 0.239E+00   0.580E-01 0.410E-01 0.460E-01   -.142E-02 -.101E-02 0.254E-03
   0.780E+00 -.767E+00 0.135E+01   -.810E+00 0.852E+00 -.140E+01   0.157E-01 -.786E-01 0.272E-01   -.785E-03 0.800E-03 -.136E-02
   0.689E+01 -.244E+01 -.702E-06   -.102E+02 0.361E+01 0.124E-11   0.332E+01 -.117E+01 -.555E-16   0.113E-02 -.398E-03 -.731E-07
   0.780E+00 -.767E+00 -.135E+01   -.810E+00 0.852E+00 0.140E+01   0.157E-01 -.786E-01 -.272E-01   -.785E-03 0.800E-03 0.136E-02
   0.621E+00 -.121E+01 0.108E+01   -.672E+00 0.124E+01 -.116E+01   0.423E-01 -.339E-02 0.732E-01   -.639E-03 0.121E-02 -.111E-02
   0.621E+00 -.121E+01 -.108E+01   -.672E+00 0.124E+01 0.116E+01   0.423E-01 -.339E-02 -.732E-01   -.639E-03 0.121E-02 0.111E-02
   0.514E-02 -.182E-02 -.139E-06   -.325E-01 0.115E-01 -.818E-11   0.107E-01 -.378E-02 0.000E+00   -.372E-04 0.132E-04 0.705E-08
   -.463E+00 0.991E+00 0.135E+01   0.534E+00 -.105E+01 -.140E+01   -.689E-01 0.410E-01 0.272E-01   0.492E-03 -.101E-02 -.136E-02
   -.324E-06 0.731E+01 -.702E-06   -.119E-06 -.108E+02 0.126E-11   -.833E-16 0.352E+01 -.347E-16   -.422E-07 0.119E-02 -.731E-07
   -.463E+00 0.991E+00 -.135E+01   0.534E+00 -.105E+01 0.140E+01   -.689E-01 0.410E-01 -.272E-01   0.492E-03 -.101E-02 0.136E-02
   -.345E+01 -.244E+01 0.597E+01   0.511E+01 0.361E+01 -.885E+01   -.166E+01 -.117E+01 0.287E+01   -.563E-03 -.398E-03 0.975E-03
   -.345E+01 -.244E+01 -.597E+01   0.511E+01 0.361E+01 0.885E+01   -.166E+01 -.117E+01 -.287E+01   -.563E-03 -.398E-03 -.975E-03
   0.611E+00 0.432E+00 -.270E-06   -.909E-01 -.643E-01 -.590E-11   -.542E+00 -.383E+00 0.555E-16   -.712E-05 -.504E-05 0.284E-07
   -.124E+01 -.121E+01 0.114E-05   0.134E+01 0.124E+01 0.743E-12   -.845E-01 -.339E-02 -.173E-16   0.128E-02 0.121E-02 0.708E-09
   0.305E+00 -.432E+00 0.529E+00   -.454E-01 0.643E-01 -.787E-01   -.271E+00 0.383E+00 -.469E+00   -.355E-05 0.506E-05 -.615E-05
   0.305E+00 -.432E+00 -.529E+00   -.454E-01 0.643E-01 0.787E-01   -.271E+00 0.383E+00 0.469E+00   -.361E-05 0.503E-05 0.613E-05
   -.938E+00 0.991E+00 0.108E+01   0.948E+00 -.105E+01 -.116E+01   0.109E-01 0.410E-01 0.732E-01   0.932E-03 -.101E-02 -.111E-02
   -.938E+00 0.991E+00 -.108E+01   0.948E+00 -.105E+01 0.116E+01   0.109E-01 0.410E-01 -.732E-01   0.932E-03 -.101E-02 0.111E-02
   -.660E-08 0.545E-02 -.139E-06   -.121E-06 -.345E-01 -.818E-11   0.347E-17 0.113E-01 0.104E-16   0.403E-08 -.395E-04 0.705E-08
   -.156E+01 -.767E+00 0.114E-05   0.162E+01 0.852E+00 0.736E-12   -.314E-01 -.786E-01 0.243E-16   0.157E-02 0.800E-03 0.708E-09
   -.305E+00 0.432E+00 0.529E+00   0.454E-01 -.643E-01 -.787E-01   0.271E+00 -.383E+00 -.469E+00   0.359E-05 -.504E-05 -.615E-05
   -.305E+00 0.432E+00 -.529E+00   0.454E-01 -.643E-01 0.787E-01   0.271E+00 -.383E+00 0.469E+00   0.354E-05 -.508E-05 0.613E-05
   -.257E-02 -.182E-02 0.445E-02   0.163E-01 0.115E-01 -.282E-01   -.534E-02 -.378E-02 0.926E-02   0.186E-04 0.132E-04 -.322E-04
   -.611E+00 -.432E+00 -.464E-06   0.909E-01 0.643E-01 0.124E-10   0.542E+00 0.383E+00 0.182E-16   0.711E-05 0.503E-05 -.605E-07
   -.257E-02 -.182E-02 -.445E-02   0.163E-01 0.115E-01 0.282E-01   -.534E-02 -.378E-02 -.926E-02   0.186E-04 0.132E-04 0.323E-04
 -----------------------------------------------------------------------------------------------
   0.735E-05 0.518E-05 0.129E-04   0.494E-13 -.384E-13 0.851E-14   -.101E-15 -.342E-15 -.132E-15   -.932E-08 -.660E-08 -.162E-07
 
 
 POSITION                                       TOTAL-FORCE (eV/Angst)
 -----------------------------------------------------------------------------------
      3.87974      2.74339      6.71990         0.000000      0.000000     -0.000000
      3.86594      2.73363     10.55975        -0.007559     -0.005345      0.013784
      3.86594      2.73363     14.39988        -0.007559     -0.005345     -0.013784
      4.98131      5.88837      8.62788         0.000200      0.016600      0.000346
      4.98310      5.88050     12.47982        -0.008119      0.002870     -0.000000
      4.98131      5.88837     16.33175         0.000200      0.016600     -0.000346
      6.08986      9.02382     10.54794        -0.007759     -0.005910     -0.013438
      6.08986      9.02382     14.41169        -0.007759     -0.005910      0.013438
      6.09341      9.01516     18.23973        -0.003520      0.001245     -0.000000
      7.21204      2.73363      8.62788         0.015717     -0.005345      0.000346
      7.20523      2.73794     12.47982         0.000000     -0.008611     -0.000000
      7.21204      2.73363     16.33175         0.015717     -0.005345     -0.000346
      8.31629      5.88050     10.55540         0.004059      0.002870     -0.007031
      8.31629      5.88050     14.40423         0.004059      0.002870      0.007031
      8.31515      5.87970     18.23973         0.020150      0.014248     -0.000000
      9.43596      9.02382     12.47982         0.015517     -0.005910     -0.000000
      9.42293      9.01298     16.32100         0.010075     -0.014248      0.017450
      9.42293      9.01298     20.15847         0.010075     -0.014248     -0.017450
     10.53769      2.73363     10.54794        -0.008158     -0.005345     -0.013438
     10.53769      2.73363     14.41169        -0.008158     -0.005345      0.013438
     10.53071      2.73987     18.23973         0.000000     -0.003734     -0.000000
     11.65306      5.88837     12.47982        -0.000400      0.016600     -0.000000
     11.63850      5.87970     16.32100        -0.010075      0.014248      0.017450
     11.63850      5.87970     20.15847        -0.010075      0.014248     -0.017450
     12.74936      9.01516     14.39692         0.001760      0.001245     -0.003049
     12.74628      9.01298     18.23973        -0.020150     -0.014248      0.000000
     12.74936      9.01516     22.08254         0.001760      0.001245      0.003049
      0.55425      0.39191      0.95999         0.000000     -0.000000     -0.000000
      0.54863      0.38794      4.80176        -0.024031     -0.016993     -0.010879
      0.54863      0.38794      8.63804        -0.024031     -0.016993      0.010879
      1.66046      3.53268      2.87601        -0.015156      0.008110     -0.026251
      1.66412      3.52673      6.71990        -0.003433      0.001214      0.000000
      1.66046      3.53268     10.56379        -0.015156      0.008110      0.026251
      2.76790      6.66499      4.79415        -0.008875      0.025875     -0.015372
      2.76790      6.66499      8.64565        -0.008875      0.025875      0.015372
      2.77004      6.66294     12.47982        -0.016735      0.005917      0.000000
      3.88413      0.38794      2.87601         0.002594     -0.016993     -0.026251
      3.87974      0.39338      6.71990         0.000000     -0.003641      0.000000
      3.88413      0.38794     10.56379         0.002594     -0.016993      0.026251
      4.98754      3.52673      4.80112         0.001716      0.001214     -0.002973
      4.98754      3.52673      8.63868         0.001716      0.001214      0.002973
      4.99844      3.53443     12.47982        -0.021812     -0.015424     -0.000000
      6.10341      6.66499      6.71990         0.017750      0.025875     -0.000000
      6.10183      6.65530     10.56868        -0.010906      0.015424     -0.018890
      6.10183      6.65530     14.39095        -0.010906      0.015424      0.018890
      7.20645      0.38794      4.79415         0.021437     -0.016993     -0.015372
      7.20645      0.38794      8.64565         0.021437     -0.016993      0.015372
      7.20523      0.39064     12.47982         0.000000     -0.017750      0.000000
      8.31828      3.53268      6.71990         0.030312      0.008110     -0.000000
      8.30862      3.53443     10.56868         0.010906     -0.015424     -0.018890
      8.30862      3.53443     14.39095         0.010906     -0.015424      0.018890
      9.42282      6.66294      8.63883         0.008368      0.005917     -0.014493
      9.41201      6.65530     12.47982         0.021812      0.015424     -0.000000
      9.42282      6.66294     16.32080         0.008368      0.005917      0.014493
 -----------------------------------------------------------------------------------
    total drift:                                0.000007      0.000005      0.000013


--------------------------------------------------------------------------------------------------------



  FREE ENERGIE OF THE ION-ELECTRON SYSTEM (eV)
  ---------------------------------------------------
  free  energy   TOTEN  =      -299.03115895 eV

  energy  without entropy=     -299.03115895  energy(sigma->0) =     -299.03115895
 
 d Force = 0.4258000E-02[ 0.254E-02, 0.597E-02]  d Energy = 0.4253468E-02 0.453E-05
 d Force = 0.1100744E+00[ 0.914E-01, 0.129E+00]  d Ewald  = 0.1100841E+00-0.970E-05


--------------------------------------------------------------------------------------------------------


    POTLOK:  cpu time    0.1155: real time    0.1196


--------------------------------------------------------------------------------------------------------


 Conjugate gradient step on ions:
 trial-energy change:   -0.004253  1 .order   -0.004258   -0.005973   -0.002543
  (g-gl).g = 0.562E-02      g.g   = 0.584E-02  gl.gl    = 0.728E-01
 g(Force)  = 0.584E-02   g(Stress)= 0.000E+00 ortho     = 0.224E-03
 gamma     =   0.07722
 trial     =   1.01947
 opt step  =   1.77521  (harmonic =   1.77521) maximal distance =0.00670632
 next E    =  -299.032106   (d E  =  -0.00520)


--------------------------------------------------------------------------------------------------------


  
 reached required accuracy - stopping structural energy minimisation
 writing wavefunctions
     LOOP+:  cpu time   30.7955: real time   31.0900
    4ORBIT:  cpu time    0.0000: real time    0.0000
 


 total charge     
 
# of ion       s       p       d       tot
------------------------------------------
    1        1.018   1.470   0.000   2.488
    2        0.751   0.936   0.000   1.687
    3        0.751   0.936   0.000   1.687
    4        0.750   0.936   0.000   1.686
    5        0.750   0.943   0.000   1.693
    6        0.750   0.936   0.000   1.686
    7        0.750   0.936   0.000   1.686
    8        0.751   0.936   0.000   1.686
    9        0.750   0.940   0.000   1.690
   10        0.750   0.936   0.000   1.685
   11        0.750   0.943   0.000   1.693
   12        0.750   0.936   0.000   1.685
   13        0.750   0.943   0.000   1.693
   14        0.750   0.943   0.000   1.693
   15        0.750   0.941   0.000   1.691
   16        0.750   0.936   0.000   1.686
   17        0.750   0.941   0.000   1.691
   18        0.750   0.941   0.000   1.691
   19        0.750   0.935   0.000   1.685
   20        0.750   0.935   0.000   1.685
   21        0.750   0.940   0.000   1.690
   22        0.750   0.935   0.000   1.686
   23        0.750   0.941   0.000   1.691
   24        0.750   0.941   0.000   1.691
   25        0.750   0.940   0.000   1.689
   26        0.750   0.941   0.000   1.690
   27        0.750   0.940   0.000   1.689
   28        0.750   0.941   0.000   1.691
   29        0.750   0.942   0.000   1.692
   30        0.750   0.942   0.000   1.692
   31        0.750   0.942   0.000   1.692
   32        0.753   0.902   0.000   1.654
   33        0.750   0.942   0.000   1.692
   34        0.750   0.942   0.000   1.692
   35        0.750   0.942   0.000   1.692
   36        0.750   0.940   0.000   1.690
   37        0.750   0.942   0.000   1.692
   38        0.754   0.898   0.000   1.653
   39        0.750   0.942   0.000   1.692
   40        0.755   0.896   0.000   1.652
   41        0.755   0.896   0.000   1.652
   42        0.751   0.933   0.000   1.684
   43        0.750   0.942   0.000   1.692
   44        0.750   0.932   0.000   1.682
   45        0.750   0.932   0.000   1.682
   46        0.750   0.942   0.000   1.692
   47        0.750   0.942   0.000   1.692
   48        0.750   0.940   0.000   1.690
   49        0.750   0.942   0.000   1.692
   50        0.750   0.931   0.000   1.681
   51        0.750   0.931   0.000   1.681
   52        0.750   0.940   0.000   1.690
   53        0.750   0.931   0.000   1.682
   54        0.750   0.940   0.000   1.690
--------------------------------------------------
tot         40.786  51.060   0.000  91.846
 

 total amount of memory used by VASP MPI-rank0   140598. kBytes
=======================================================================

   base      :      30000. kBytes
   nonl-proj :      59902. kBytes
   fftplans  :       5382. kBytes
   grid      :      20451. kBytes
   one-center:        165. kBytes
   wavefun   :      24698. kBytes
 
  
  
 General timing and accounting informations for this job:
 ========================================================
  
                  Total CPU time used (sec):      145.015
                            User time (sec):      138.593
                          System time (sec):        6.422
                         Elapsed time (sec):      149.717
  
                   Maximum memory used (kb):      404300.
                   Average memory used (kb):           0.
  
                          Minor page faults:        36246
                          Major page faults:            0
                 Voluntary context switches:         4412
