<?xml version="1.0" encoding="ISO-8859-1"?>
<modeling>
 <generator>
  <i name="program" type="string">vasp </i>
  <i name="version" type="string">5.4.4.18Apr17-6-g9f103f2a35  </i>
  <i name="subversion" type="string">(build Jun 19 2019 10:34:07) complex            parallel </i>
  <i name="platform" type="string">LB-5.4 </i>
  <i name="date" type="string">2023 05 15 </i>
  <i name="time" type="string">18:44:12 </i>
 </generator>
 <incar>
  <i type="string" name="SYSTEM"> Si</i>
  <i type="string" name="PREC">normal</i>
  <i type="string" name="ALGO"> Normal</i>
  <i type="int" name="ISPIN">     1</i>
  <i name="AMIX">      0.20000000</i>
  <i type="int" name="NELM">   200</i>
  <i type="int" name="IBRION">     2</i>
  <i name="EDIFF">      0.00001000</i>
  <i name="EDIFFG">     -0.05000000</i>
  <i type="int" name="NSW">   100</i>
  <i type="int" name="ISIF">     2</i>
  <i type="int" name="ISYM">     2</i>
  <i name="ENCUT">    550.00000000</i>
  <i name="NELECT">    216.00000000</i>
  <i type="logical" name="LREAL"> F  </i>
  <i type="int" name="ISMEAR">     0</i>
  <i name="SIGMA">      0.05000000</i>
  <i type="logical" name="LWAVE"> T  </i>
  <i type="logical" name="LCHARG"> T  </i>
  <i type="int" name="LORBIT">    10</i>
  <v type="int" name="KPOINT_BSE">    -1     0     0     0</v>
  <i type="int" name="NELM">   200</i>
 </incar>
 <structure name="primitive_cell" >
  <crystal>
   <varray name="basis" >
    <v>       9.97646553       0.00000000       5.75991507 </v>
    <v>       3.32548851       9.40590192       5.75991507 </v>
    <v>       0.00000000       0.00000000      11.51983014 </v>
   </varray>
   <i name="volume">   1080.99386112 </i>
   <varray name="rec_basis" >
    <v>       0.10023590      -0.03543874       0.00000000 </v>
    <v>       0.00000000       0.10631623       0.00000000 </v>
    <v>      -0.05011795      -0.03543874       0.08680684 </v>
   </varray>
  </crystal>
  <varray name="positions" >
   <v>       0.29166667       0.29166667       0.29166667 </v>
   <v>       0.04166667       0.37500000       0.37500000 </v>
   <v>       0.37500000       0.37500000       0.04166667 </v>
   <v>       0.37500000       0.37500000       0.37500000 </v>
   <v>       0.37500000       0.04166667       0.37500000 </v>
   <v>      -0.04166667       0.29166667       0.29166667 </v>
   <v>      -0.37500000       0.29166667      -0.04166667 </v>
   <v>      -0.04166667       0.29166667      -0.37500000 </v>
   <v>      -0.37500000       0.29166667       0.29166667 </v>
   <v>      -0.37500000      -0.04166667       0.29166667 </v>
   <v>      -0.04166667      -0.37500000       0.29166667 </v>
   <v>       0.29166667      -0.04166667       0.29166667 </v>
   <v>       0.29166667      -0.37500000      -0.04166667 </v>
   <v>       0.29166667      -0.04166667      -0.37500000 </v>
   <v>       0.29166667      -0.37500000       0.29166667 </v>
   <v>       0.29166667       0.29166667      -0.04166667 </v>
   <v>       0.29166667       0.29166667      -0.37500000 </v>
   <v>      -0.29166667       0.37500000       0.04166667 </v>
   <v>       0.04166667       0.04166667       0.37500000 </v>
   <v>      -0.29166667       0.04166667       0.04166667 </v>
   <v>       0.04166667       0.04166667      -0.29166667 </v>
   <v>      -0.29166667       0.04166667       0.37500000 </v>
   <v>       0.37500000      -0.29166667       0.04166667 </v>
   <v>       0.04166667       0.37500000       0.04166667 </v>
   <v>       0.04166667       0.37500000      -0.29166667 </v>
   <v>       0.04166667      -0.29166667       0.04166667 </v>
   <v>       0.04166667      -0.29166667       0.37500000 </v>
   <v>       0.37500000       0.04166667       0.04166667 </v>
   <v>       0.37500000       0.04166667      -0.29166667 </v>
   <v>      -0.04166667      -0.04166667      -0.37500000 </v>
   <v>      -0.37500000      -0.37500000      -0.04166667 </v>
   <v>      -0.37500000      -0.04166667      -0.04166667 </v>
   <v>      -0.04166667      -0.37500000      -0.04166667 </v>
   <v>      -0.37500000      -0.04166667      -0.37500000 </v>
   <v>      -0.04166667      -0.37500000      -0.37500000 </v>
   <v>      -0.29166667       0.37500000       0.37500000 </v>
   <v>      -0.29166667       0.37500000      -0.29166667 </v>
   <v>      -0.29166667      -0.29166667       0.37500000 </v>
   <v>       0.37500000      -0.29166667      -0.29166667 </v>
   <v>       0.37500000      -0.29166667       0.37500000 </v>
   <v>       0.37500000       0.37500000      -0.29166667 </v>
   <v>      -0.37500000       0.29166667      -0.37500000 </v>
   <v>      -0.04166667       0.29166667      -0.04166667 </v>
   <v>      -0.37500000      -0.37500000       0.29166667 </v>
   <v>      -0.04166667      -0.04166667      -0.04166667 </v>
   <v>      -0.37500000      -0.37500000      -0.37500000 </v>
   <v>      -0.04166667      -0.04166667       0.29166667 </v>
   <v>       0.29166667      -0.37500000      -0.37500000 </v>
   <v>       0.29166667      -0.04166667      -0.04166667 </v>
   <v>      -0.29166667       0.04166667      -0.29166667 </v>
   <v>       0.04166667       0.04166667       0.04166667 </v>
   <v>      -0.29166667      -0.29166667      -0.29166667 </v>
   <v>      -0.29166667      -0.29166667       0.04166667 </v>
   <v>       0.04166667      -0.29166667      -0.29166667 </v>
  </varray>
 </structure>
 <varray name="primitive_index" >
  <v type="int" >        1 </v>
  <v type="int" >       32 </v>
  <v type="int" >       40 </v>
  <v type="int" >       41 </v>
  <v type="int" >       38 </v>
  <v type="int" >       19 </v>
  <v type="int" >       12 </v>
  <v type="int" >       20 </v>
  <v type="int" >       10 </v>
  <v type="int" >       16 </v>
  <v type="int" >       22 </v>
  <v type="int" >        7 </v>
  <v type="int" >        6 </v>
  <v type="int" >        8 </v>
  <v type="int" >        4 </v>
  <v type="int" >        3 </v>
  <v type="int" >        2 </v>
  <v type="int" >       49 </v>
  <v type="int" >       29 </v>
  <v type="int" >       46 </v>
  <v type="int" >       30 </v>
  <v type="int" >       47 </v>
  <v type="int" >       43 </v>
  <v type="int" >       31 </v>
  <v type="int" >       33 </v>
  <v type="int" >       34 </v>
  <v type="int" >       35 </v>
  <v type="int" >       37 </v>
  <v type="int" >       39 </v>
  <v type="int" >       26 </v>
  <v type="int" >       15 </v>
  <v type="int" >       18 </v>
  <v type="int" >       24 </v>
  <v type="int" >       17 </v>
  <v type="int" >       23 </v>
  <v type="int" >       50 </v>
  <v type="int" >       51 </v>
  <v type="int" >       53 </v>
  <v type="int" >       45 </v>
  <v type="int" >       44 </v>
  <v type="int" >       42 </v>
  <v type="int" >       11 </v>
  <v type="int" >       21 </v>
  <v type="int" >       13 </v>
  <v type="int" >       27 </v>
  <v type="int" >       14 </v>
  <v type="int" >       25 </v>
  <v type="int" >        5 </v>
  <v type="int" >        9 </v>
  <v type="int" >       48 </v>
  <v type="int" >       28 </v>
  <v type="int" >       54 </v>
  <v type="int" >       52 </v>
  <v type="int" >       36 </v>
 </varray>
 <kpoints>
  <generation param="Gamma">
   <v type="int" name="divisions">       4        4        4 </v>
   <v name="usershift">      0.00000000       0.00000000       0.00000000 </v>
   <v name="genvec1">      0.25000000       0.00000000       0.00000000 </v>
   <v name="genvec2">      0.00000000       0.25000000       0.00000000 </v>
   <v name="genvec3">     -0.00000000      -0.00000000       0.25000000 </v>
   <v name="shift">      0.00000000       0.00000000       0.00000000 </v>
  </generation>
  <varray name="kpointlist" >
   <v>       0.00000000       0.00000000       0.00000000 </v>
   <v>       0.25000000       0.00000000       0.00000000 </v>
   <v>       0.50000000       0.00000000       0.00000000 </v>
   <v>       0.25000000       0.25000000       0.00000000 </v>
   <v>       0.50000000       0.25000000       0.00000000 </v>
   <v>      -0.25000000       0.25000000       0.00000000 </v>
   <v>       0.50000000       0.50000000       0.00000000 </v>
   <v>      -0.25000000       0.50000000       0.25000000 </v>
  </varray>
  <varray name="weights" >
   <v>       0.01562500 </v>
   <v>       0.12500000 </v>
   <v>       0.06250000 </v>
   <v>       0.09375000 </v>
   <v>       0.37500000 </v>
   <v>       0.18750000 </v>
   <v>       0.04687500 </v>
   <v>       0.09375000 </v>
  </varray>
 </kpoints>
 <parameters>
  <separator name="general" >
   <i type="string" name="SYSTEM">Si</i>
   <i type="logical" name="LCOMPAT"> F  </i>
  </separator>
  <separator name="electronic" >
   <i type="string" name="PREC">normal</i>
   <i name="ENMAX">    550.00000000</i>
   <i name="ENAUG">    342.92400000</i>
   <i name="EDIFF">      0.00001000</i>
   <i type="int" name="IALGO">    38</i>
   <i type="int" name="IWAVPR">    11</i>
   <i type="int" name="NBANDS">   144</i>
   <i name="NELECT">    216.00000000</i>
   <i type="int" name="TURBO">     0</i>
   <i type="int" name="IRESTART">     0</i>
   <i type="int" name="NREBOOT">     0</i>
   <i type="int" name="NMIN">     0</i>
   <i name="EREF">      0.00000000</i>
   <separator name="electronic smearing" >
    <i type="int" name="ISMEAR">     0</i>
    <i name="SIGMA">      0.05000000</i>
    <i name="KSPACING">      0.50000000</i>
    <i type="logical" name="KGAMMA"> T  </i>
   </separator>
   <separator name="electronic projectors" >
    <i type="logical" name="LREAL"> F  </i>
    <v name="ROPT">      0.00000000      0.00000000</v>
    <i type="int" name="LMAXPAW">  -100</i>
    <i type="int" name="LMAXMIX">     2</i>
    <i type="logical" name="NLSPLINE"> F  </i>
   </separator>
   <separator name="electronic startup" >
    <i type="int" name="ISTART">     1</i>
    <i type="int" name="ICHARG">     0</i>
    <i type="int" name="INIWAV">     1</i>
   </separator>
   <separator name="electronic spin" >
    <i type="int" name="ISPIN">     1</i>
    <i type="logical" name="LNONCOLLINEAR"> F  </i>
    <v name="MAGMOM">      1.00000000      1.00000000      1.00000000      1.00000000      1.00000000      1.00000000      1.00000000      1.00000000      1.00000000      1.00000000      1.00000000      1.00000000      1.00000000      1.00000000      1.00000000      1.00000000      1.00000000      1.00000000      1.00000000      1.00000000
      1.00000000      1.00000000      1.00000000      1.00000000      1.00000000      1.00000000      1.00000000      1.00000000      1.00000000      1.00000000      1.00000000      1.00000000      1.00000000      1.00000000      1.00000000      1.00000000      1.00000000      1.00000000      1.00000000      1.00000000
      1.00000000      1.00000000      1.00000000      1.00000000      1.00000000      1.00000000      1.00000000      1.00000000      1.00000000      1.00000000      1.00000000      1.00000000      1.00000000      1.00000000</v>
    <i name="NUPDOWN">     -1.00000000</i>
    <i type="logical" name="LSORBIT"> F  </i>
    <v name="SAXIS">      0.00000000      0.00000000      1.00000000</v>
    <i type="logical" name="LSPIRAL"> F  </i>
    <v name="QSPIRAL">      0.00000000      0.00000000      0.00000000</v>
    <i type="logical" name="LZEROZ"> F  </i>
   </separator>
   <separator name="electronic exchange-correlation" >
    <i type="logical" name="LASPH"> F  </i>
    <i type="logical" name="LMETAGGA"> F  </i>
   </separator>
   <separator name="electronic convergence" >
    <i type="int" name="NELM">   200</i>
    <i type="int" name="NELMDL">     0</i>
    <i type="int" name="NELMIN">     2</i>
    <i name="ENINI">    550.00000000</i>
    <separator name="electronic convergence detail" >
     <i type="logical" name="LDIAG"> T  </i>
     <i type="logical" name="LSUBROT"> F  </i>
     <i name="WEIMIN">      0.00100000</i>
     <i name="EBREAK">      0.00000002</i>
     <i name="DEPER">      0.30000000</i>
     <i type="int" name="NRMM">     4</i>
     <i name="TIME">      0.40000000</i>
    </separator>
   </separator>
   <separator name="electronic mixer" >
    <i name="AMIX">      0.20000000</i>
    <i name="BMIX">      1.00000000</i>
    <i name="AMIN">      0.10000000</i>
    <i name="AMIX_MAG">      0.80000000</i>
    <i name="BMIX_MAG">      1.00000000</i>
    <separator name="electronic mixer details" >
     <i type="int" name="IMIX">     4</i>
     <i type="logical" name="MIXFIRST"> F  </i>
     <i type="int" name="MAXMIX">   -45</i>
     <i name="WC">    100.00000000</i>
     <i type="int" name="INIMIX">     1</i>
     <i type="int" name="MIXPRE">     1</i>
     <i type="int" name="MREMOVE">     5</i>
    </separator>
   </separator>
   <separator name="electronic dipolcorrection" >
    <i type="logical" name="LDIPOL"> F  </i>
    <i type="logical" name="LMONO"> F  </i>
    <i type="int" name="IDIPOL">     0</i>
    <i name="EPSILON">      1.00000000</i>
    <v name="DIPOL">   -100.00000000   -100.00000000   -100.00000000</v>
    <i name="EFIELD">      0.00000000</i>
   </separator>
  </separator>
  <separator name="grids" >
   <i type="int" name="NGX">    70</i>
   <i type="int" name="NGY">    70</i>
   <i type="int" name="NGZ">    70</i>
   <i type="int" name="NGXF">   140</i>
   <i type="int" name="NGYF">   140</i>
   <i type="int" name="NGZF">   140</i>
   <i type="logical" name="ADDGRID"> F  </i>
  </separator>
  <separator name="ionic" >
   <i type="int" name="NSW">   100</i>
   <i type="int" name="IBRION">     2</i>
   <i type="int" name="MDALGO">     0</i>
   <i type="int" name="ISIF">     2</i>
   <i name="PSTRESS">      0.00000000</i>
   <i name="EDIFFG">     -0.05000000</i>
   <i type="int" name="NFREE">     1</i>
   <i name="POTIM">      0.50000000</i>
   <i name="SMASS">     -3.00000000</i>
   <i name="SCALEE">      1.00000000</i>
  </separator>
  <separator name="ionic md" >
   <i name="TEBEG">      0.00010000</i>
   <i name="TEEND">      0.00010000</i>
   <i type="int" name="NBLOCK">     1</i>
   <i type="int" name="KBLOCK">   100</i>
   <i type="int" name="NPACO">   256</i>
   <i name="APACO">     16.00000000</i>
  </separator>
  <separator name="symmetry" >
   <i type="int" name="ISYM">     2</i>
   <i name="SYMPREC">      0.00001000</i>
  </separator>
  <separator name="dos" >
   <i type="int" name="LORBIT">    10</i>
   <v name="RWIGS">     -1.00000000     -1.00000000</v>
   <i type="int" name="NEDOS">   301</i>
   <i name="EMIN">     10.00000000</i>
   <i name="EMAX">    -10.00000000</i>
   <i name="EFERMI">      0.00000000</i>
  </separator>
  <separator name="writing" >
   <i type="int" name="NWRITE">     2</i>
   <i type="logical" name="LWAVE"> T  </i>
   <i type="logical" name="LDOWNSAMPLE"> F  </i>
   <i type="logical" name="LCHARG"> T  </i>
   <i type="logical" name="LPARD"> F  </i>
   <i type="logical" name="LVTOT"> F  </i>
   <i type="logical" name="LVHAR"> F  </i>
   <i type="logical" name="LELF"> F  </i>
   <i type="logical" name="LOPTICS"> F  </i>
   <v name="STM">      0.00000000      0.00000000      0.00000000      0.00000000      0.00000000      0.00000000      0.00000000</v>
  </separator>
  <separator name="performance" >
   <i type="int" name="NPAR">    24</i>
   <i type="int" name="NSIM">     4</i>
   <i type="int" name="NBLK">    -1</i>
   <i type="logical" name="LPLANE"> T  </i>
   <i type="logical" name="LSCALAPACK"> T  </i>
   <i type="logical" name="LSCAAWARE"> F  </i>
   <i type="logical" name="LSCALU"> F  </i>
   <i type="logical" name="LASYNC"> F  </i>
   <i type="logical" name="LORBITALREAL"> F  </i>
  </separator>
  <separator name="miscellaneous" >
   <i type="int" name="IDIOT">     3</i>
   <i type="int" name="ISPECIAL">     0</i>
   <i type="logical" name="LMUSIC"> F  </i>
   <v name="POMASS">     30.97400000     28.08500000</v>
   <v name="DARWINR">      0.00000000      0.00000000</v>
   <v name="DARWINV">      1.00000000      1.00000000</v>
   <i type="logical" name="LCORR"> T  </i>
  </separator>
  <i type="logical" name="GGA_COMPAT"> T  </i>
  <i type="logical" name="LBERRY"> F  </i>
  <i type="int" name="ICORELEVEL">     0</i>
  <i type="logical" name="LDAU"> F  </i>
  <i type="int" name="I_CONSTRAINED_M">     0</i>
  <separator name="electronic exchange-correlation" >
   <i type="string" name="GGA">--</i>
   <i type="int" name="VOSKOWN">     0</i>
   <i type="logical" name="LHFCALC"> F  </i>
   <i type="string" name="PRECFOCK"></i>
   <i type="logical" name="LSYMGRAD"> F  </i>
   <i type="logical" name="LHFONE"> F  </i>
   <i type="logical" name="LRHFCALC"> F  </i>
   <i type="logical" name="LTHOMAS"> F  </i>
   <i type="logical" name="LMODELHF"> F  </i>
   <i name="ENCUT4O">     -1.00000000</i>
   <i type="int" name="EXXOEP">     0</i>
   <i type="int" name="FOURORBIT">     0</i>
   <i name="AEXX">      0.00000000</i>
   <i name="HFALPHA">      0.00000000</i>
   <i name="MCALPHA">      0.00000000</i>
   <i name="ALDAX">      1.00000000</i>
   <i name="AGGAX">      1.00000000</i>
   <i name="ALDAC">      1.00000000</i>
   <i name="AGGAC">      1.00000000</i>
   <i type="int" name="NKREDX">     1</i>
   <i type="int" name="NKREDY">     1</i>
   <i type="int" name="NKREDZ">     1</i>
   <i type="logical" name="SHIFTRED"> F  </i>
   <i type="logical" name="ODDONLY"> F  </i>
   <i type="logical" name="EVENONLY"> F  </i>
   <i type="int" name="LMAXFOCK">     0</i>
   <i type="int" name="NMAXFOCKAE">     0</i>
   <i type="logical" name="LFOCKAEDFT"> F  </i>
   <i name="HFSCREEN">      0.00000000</i>
   <i name="HFSCREENC">      0.00000000</i>
   <i type="int" name="NBANDSGWLOW">     0</i>
  </separator>
  <separator name="vdW DFT" >
   <i type="logical" name="LUSE_VDW"> F  </i>
   <i name="Zab_VDW">     -0.84910000</i>
   <i name="PARAM1">      0.12340000</i>
   <i name="PARAM2">      1.00000000</i>
   <i name="PARAM3">      0.00000000</i>
  </separator>
  <separator name="model GW" >
   <i type="int" name="MODEL_GW">     0</i>
   <i name="MODEL_EPS0">     12.01104290</i>
   <i name="MODEL_ALPHA">      1.00000000</i>
  </separator>
  <separator name="linear response parameters" >
   <i type="logical" name="LEPSILON"> F  </i>
   <i type="logical" name="LRPA"> F  </i>
   <i type="logical" name="LNABLA"> F  </i>
   <i type="logical" name="LVEL"> F  </i>
   <i type="int" name="KINTER">     0</i>
   <i name="CSHIFT">      0.10000000</i>
   <i name="OMEGAMAX">     -1.00000000</i>
   <i name="DEG_THRESHOLD">      0.00200000</i>
   <i name="RTIME">     -0.10000000</i>
   <i name="WPLASMAI">      0.00000000</i>
   <v name="DFIELD">      0.00000000      0.00000000      0.00000000</v>
   <v name="WPLASMA">      0.00000000      0.00000000      0.00000000      0.00000000      0.00000000      0.00000000      0.00000000      0.00000000      0.00000000</v>
  </separator>
  <separator name="orbital magnetization" >
   <i type="logical" name="NUCIND"> F  </i>
   <v name="MAGPOS">      0.00000000      0.00000000      0.00000000</v>
   <i type="logical" name="LNICSALL"> T  </i>
   <i type="logical" name="ORBITALMAG"> F  </i>
   <i type="logical" name="LMAGBLOCH"> F  </i>
   <i type="logical" name="LCHIMAG"> F  </i>
   <i type="logical" name="LGAUGE"> T  </i>
   <i type="int" name="MAGATOM">     0</i>
   <v name="MAGDIPOL">      0.00000000      0.00000000      0.00000000</v>
   <v name="AVECCONST">      0.00000000      0.00000000      0.00000000</v>
  </separator>
  <separator name="response functions" >
   <i type="logical" name="LADDER"> F  </i>
   <i type="logical" name="LRPAFORCE"> F  </i>
   <i type="logical" name="LFXC"> F  </i>
   <i type="logical" name="LHARTREE"> T  </i>
   <i type="int" name="IBSE">     0</i>
   <v type="int" name="KPOINT">    -1     0     0     0</v>
   <i type="logical" name="LTCTE"> F  </i>
   <i type="logical" name="LTETE"> F  </i>
   <i type="logical" name="LTRIPLET"> F  </i>
   <i type="logical" name="LFXCEPS"> F  </i>
   <i type="logical" name="LFXHEG"> F  </i>
   <i type="int" name="NATURALO">     2</i>
   <i type="logical" name="L2ORDER"> F  </i>
   <i type="logical" name="LMP2LT"> F  </i>
   <i type="logical" name="LUSEW"> F  </i>
   <i name="ENCUTGW">     -2.00000000</i>
   <i name="ENCUTGWSOFT">     -2.00000000</i>
   <i name="ENCUTLF">     -1.00000000</i>
   <i type="int" name="LMAXMP2">    -1</i>
   <i name="SCISSOR">      0.00000000</i>
   <i type="int" name="NOMEGA">     0</i>
   <i type="int" name="NOMEGAR">     0</i>
   <i type="int" name="NBANDSGW">    -1</i>
   <i type="int" name="NBANDSO">    -1</i>
   <i type="int" name="NBANDSV">    -1</i>
   <i type="int" name="NELM">   200</i>
   <i type="int" name="NELMHF">     1</i>
   <i type="int" name="DIM">     3</i>
   <i type="int" name="ANTIRES">     0</i>
   <i name="OMEGAMAX">    -30.00000000</i>
   <i name="OMEGAMIN">    -30.00000000</i>
   <i name="OMEGATL">   -200.00000000</i>
   <i type="int" name="OMEGAGRID">   140</i>
   <i name="CSHIFT">     -0.10000000</i>
   <i type="logical" name="SELFENERGY"> F  </i>
   <i type="logical" name="LSPECTRAL"> F  </i>
   <i type="logical" name="LSPECTRALGW"> F  </i>
   <i type="logical" name="LSINGLES"> F  </i>
   <i type="logical" name="LFERMIGW"> F  </i>
   <i type="logical" name="ODDONLYGW"> F  </i>
   <i type="logical" name="EVENONLYGW"> F  </i>
   <i type="int" name="NKREDLFX">     1</i>
   <i type="int" name="NKREDLFY">     1</i>
   <i type="int" name="NKREDLFZ">     1</i>
   <i type="int" name="MAXMEM">  2800</i>
   <i type="int" name="TELESCOPE">     0</i>
   <i type="int" name="TAUPAR">     1</i>
   <i type="int" name="OMEGAPAR">    -1</i>
   <i name="LAMBDA">      1.00000000</i>
  </separator>
  <separator name="External order field" >
   <i name="OFIELD_KAPPA">      0.00000000</i>
   <v name="OFIELD_K">      0.00000000      0.00000000      0.00000000</v>
   <i name="OFIELD_Q6_NEAR">      0.00000000</i>
   <i name="OFIELD_Q6_FAR">      0.00000000</i>
   <i name="OFIELD_A">      0.00000000</i>
  </separator>
 </parameters>
 <atominfo>
  <atoms>      54 </atoms>
  <types>       2 </types>
  <array name="atoms" >
   <dimension dim="1">ion</dimension>
   <field type="string">element</field>
   <field type="int">atomtype</field>
   <set>
    <rc><c>P </c><c>   1</c></rc>
    <rc><c>Si</c><c>   2</c></rc>
    <rc><c>Si</c><c>   2</c></rc>
    <rc><c>Si</c><c>   2</c></rc>
    <rc><c>Si</c><c>   2</c></rc>
    <rc><c>Si</c><c>   2</c></rc>
    <rc><c>Si</c><c>   2</c></rc>
    <rc><c>Si</c><c>   2</c></rc>
    <rc><c>Si</c><c>   2</c></rc>
    <rc><c>Si</c><c>   2</c></rc>
    <rc><c>Si</c><c>   2</c></rc>
    <rc><c>Si</c><c>   2</c></rc>
    <rc><c>Si</c><c>   2</c></rc>
    <rc><c>Si</c><c>   2</c></rc>
    <rc><c>Si</c><c>   2</c></rc>
    <rc><c>Si</c><c>   2</c></rc>
    <rc><c>Si</c><c>   2</c></rc>
    <rc><c>Si</c><c>   2</c></rc>
    <rc><c>Si</c><c>   2</c></rc>
    <rc><c>Si</c><c>   2</c></rc>
    <rc><c>Si</c><c>   2</c></rc>
    <rc><c>Si</c><c>   2</c></rc>
    <rc><c>Si</c><c>   2</c></rc>
    <rc><c>Si</c><c>   2</c></rc>
    <rc><c>Si</c><c>   2</c></rc>
    <rc><c>Si</c><c>   2</c></rc>
    <rc><c>Si</c><c>   2</c></rc>
    <rc><c>Si</c><c>   2</c></rc>
    <rc><c>Si</c><c>   2</c></rc>
    <rc><c>Si</c><c>   2</c></rc>
    <rc><c>Si</c><c>   2</c></rc>
    <rc><c>Si</c><c>   2</c></rc>
    <rc><c>Si</c><c>   2</c></rc>
    <rc><c>Si</c><c>   2</c></rc>
    <rc><c>Si</c><c>   2</c></rc>
    <rc><c>Si</c><c>   2</c></rc>
    <rc><c>Si</c><c>   2</c></rc>
    <rc><c>Si</c><c>   2</c></rc>
    <rc><c>Si</c><c>   2</c></rc>
    <rc><c>Si</c><c>   2</c></rc>
    <rc><c>Si</c><c>   2</c></rc>
    <rc><c>Si</c><c>   2</c></rc>
    <rc><c>Si</c><c>   2</c></rc>
    <rc><c>Si</c><c>   2</c></rc>
    <rc><c>Si</c><c>   2</c></rc>
    <rc><c>Si</c><c>   2</c></rc>
    <rc><c>Si</c><c>   2</c></rc>
    <rc><c>Si</c><c>   2</c></rc>
    <rc><c>Si</c><c>   2</c></rc>
    <rc><c>Si</c><c>   2</c></rc>
    <rc><c>Si</c><c>   2</c></rc>
    <rc><c>Si</c><c>   2</c></rc>
    <rc><c>Si</c><c>   2</c></rc>
    <rc><c>Si</c><c>   2</c></rc>
   </set>
  </array>
  <array name="atomtypes" >
   <dimension dim="1">type</dimension>
   <field type="int">atomspertype</field>
   <field type="string">element</field>
   <field>mass</field>
   <field>valence</field>
   <field type="string">pseudopotential</field>
   <set>
    <rc><c>   1</c><c>P </c><c>     30.97400000</c><c>      5.00000000</c><c>  PAW_PBE P 06Sep2000                   </c></rc>
    <rc><c>  53</c><c>Si</c><c>     28.08500000</c><c>      4.00000000</c><c>  PAW_PBE Si 05Jan2001                  </c></rc>
   </set>
  </array>
 </atominfo>
 <structure name="initialpos" >
  <crystal>
   <varray name="basis" >
    <v>       9.97646553       0.00000000       5.75991507 </v>
    <v>       3.32548851       9.40590192       5.75991507 </v>
    <v>       0.00000000       0.00000000      11.51983014 </v>
   </varray>
   <i name="volume">   1080.99386112 </i>
   <varray name="rec_basis" >
    <v>       0.10023590      -0.03543874       0.00000000 </v>
    <v>       0.00000000       0.10631623       0.00000000 </v>
    <v>      -0.05011795      -0.03543874       0.08680684 </v>
   </varray>
  </crystal>
  <varray name="positions" >
   <v>       0.29166667       0.29166667       0.29166667 </v>
   <v>       0.29166667       0.29166667       0.62500000 </v>
   <v>       0.29166667       0.29166667       0.95833333 </v>
   <v>       0.29166667       0.62500000       0.29166667 </v>
   <v>       0.29166667       0.62500000       0.62500000 </v>
   <v>       0.29166667       0.62500000       0.95833333 </v>
   <v>       0.29166667       0.95833333       0.29166667 </v>
   <v>       0.29166667       0.95833333       0.62500000 </v>
   <v>       0.29166667       0.95833333       0.95833333 </v>
   <v>       0.62500000       0.29166667       0.29166667 </v>
   <v>       0.62500000       0.29166667       0.62500000 </v>
   <v>       0.62500000       0.29166667       0.95833333 </v>
   <v>       0.62500000       0.62500000       0.29166667 </v>
   <v>       0.62500000       0.62500000       0.62500000 </v>
   <v>       0.62500000       0.62500000       0.95833333 </v>
   <v>       0.62500000       0.95833333       0.29166667 </v>
   <v>       0.62500000       0.95833333       0.62500000 </v>
   <v>       0.62500000       0.95833333       0.95833333 </v>
   <v>       0.95833333       0.29166667       0.29166667 </v>
   <v>       0.95833333       0.29166667       0.62500000 </v>
   <v>       0.95833333       0.29166667       0.95833333 </v>
   <v>       0.95833333       0.62500000       0.29166667 </v>
   <v>       0.95833333       0.62500000       0.62500000 </v>
   <v>       0.95833333       0.62500000       0.95833333 </v>
   <v>       0.95833333       0.95833333       0.29166667 </v>
   <v>       0.95833333       0.95833333       0.62500000 </v>
   <v>       0.95833333       0.95833333       0.95833333 </v>
   <v>       0.04166667       0.04166667       0.04166667 </v>
   <v>       0.04166667       0.04166667       0.37500000 </v>
   <v>       0.04166667       0.04166667       0.70833333 </v>
   <v>       0.04166667       0.37500000       0.04166667 </v>
   <v>       0.04166667       0.37500000       0.37500000 </v>
   <v>       0.04166667       0.37500000       0.70833333 </v>
   <v>       0.04166667       0.70833333       0.04166667 </v>
   <v>       0.04166667       0.70833333       0.37500000 </v>
   <v>       0.04166667       0.70833333       0.70833333 </v>
   <v>       0.37500000       0.04166667       0.04166667 </v>
   <v>       0.37500000       0.04166667       0.37500000 </v>
   <v>       0.37500000       0.04166667       0.70833333 </v>
   <v>       0.37500000       0.37500000       0.04166667 </v>
   <v>       0.37500000       0.37500000       0.37500000 </v>
   <v>       0.37500000       0.37500000       0.70833333 </v>
   <v>       0.37500000       0.70833333       0.04166667 </v>
   <v>       0.37500000       0.70833333       0.37500000 </v>
   <v>       0.37500000       0.70833333       0.70833333 </v>
   <v>       0.70833333       0.04166667       0.04166667 </v>
   <v>       0.70833333       0.04166667       0.37500000 </v>
   <v>       0.70833333       0.04166667       0.70833333 </v>
   <v>       0.70833333       0.37500000       0.04166667 </v>
   <v>       0.70833333       0.37500000       0.37500000 </v>
   <v>       0.70833333       0.37500000       0.70833333 </v>
   <v>       0.70833333       0.70833333       0.04166667 </v>
   <v>       0.70833333       0.70833333       0.37500000 </v>
   <v>       0.70833333       0.70833333       0.70833333 </v>
  </varray>
 </structure>
 <calculation>
  <scstep>
   <time name="dav">    2.89    2.92</time>
   <time name="total">    3.27    3.32</time>
   <energy>
    <i name="alphaZ">     93.56316191 </i>
    <i name="ewald">  -6229.80980546 </i>
    <i name="hartreedc">   -415.26128013 </i>
    <i name="XCdc">   -475.43926955 </i>
    <i name="pawpsdc">  23288.04336452 </i>
    <i name="pawaedc"> -22353.21654902 </i>
    <i name="eentropy">     -0.00000000 </i>
    <i name="bandstr">    154.56830805 </i>
    <i name="atom">   5638.56506835 </i>
    <i name="e_fr_energy">   -298.98700133 </i>
    <i name="e_wo_entrp">   -298.98700133 </i>
    <i name="e_0_energy">   -298.98700133 </i>
   </energy>
  </scstep>
  <scstep>
   <time name="dav">    4.71    4.75</time>
   <time name="total">    5.12    5.17</time>
   <energy>
    <i name="alphaZ">     93.56316191 </i>
    <i name="ewald">  -6229.80980546 </i>
    <i name="hartreedc">   -415.26079247 </i>
    <i name="XCdc">   -475.43929188 </i>
    <i name="pawpsdc">  23288.08861531 </i>
    <i name="pawaedc"> -22353.26178027 </i>
    <i name="eentropy">     -0.00000000 </i>
    <i name="bandstr">    154.56782324 </i>
    <i name="atom">   5638.56506835 </i>
    <i name="e_fr_energy">   -298.98700126 </i>
    <i name="e_wo_entrp">   -298.98700126 </i>
    <i name="e_0_energy">   -298.98700126 </i>
   </energy>
  </scstep>
  <structure>
   <crystal>
    <varray name="basis" >
     <v>       9.97646553       0.00000000       5.75991507 </v>
     <v>       3.32548851       9.40590192       5.75991507 </v>
     <v>       0.00000000       0.00000000      11.51983014 </v>
    </varray>
    <i name="volume">   1080.99386112 </i>
    <varray name="rec_basis" >
     <v>       0.10023590      -0.03543874       0.00000000 </v>
     <v>       0.00000000       0.10631623       0.00000000 </v>
     <v>      -0.05011795      -0.03543874       0.08680684 </v>
    </varray>
   </crystal>
   <varray name="positions" >
    <v>       0.29166667       0.29166667       0.29166667 </v>
    <v>       0.29166667       0.29166667       0.62500000 </v>
    <v>       0.29166667       0.29166667       0.95833333 </v>
    <v>       0.29166667       0.62500000       0.29166667 </v>
    <v>       0.29166667       0.62500000       0.62500000 </v>
    <v>       0.29166667       0.62500000       0.95833333 </v>
    <v>       0.29166667       0.95833333       0.29166667 </v>
    <v>       0.29166667       0.95833333       0.62500000 </v>
    <v>       0.29166667       0.95833333       0.95833333 </v>
    <v>       0.62500000       0.29166667       0.29166667 </v>
    <v>       0.62500000       0.29166667       0.62500000 </v>
    <v>       0.62500000       0.29166667       0.95833333 </v>
    <v>       0.62500000       0.62500000       0.29166667 </v>
    <v>       0.62500000       0.62500000       0.62500000 </v>
    <v>       0.62500000       0.62500000       0.95833333 </v>
    <v>       0.62500000       0.95833333       0.29166667 </v>
    <v>       0.62500000       0.95833333       0.62500000 </v>
    <v>       0.62500000       0.95833333       0.95833333 </v>
    <v>       0.95833333       0.29166667       0.29166667 </v>
    <v>       0.95833333       0.29166667       0.62500000 </v>
    <v>       0.95833333       0.29166667       0.95833333 </v>
    <v>       0.95833333       0.62500000       0.29166667 </v>
    <v>       0.95833333       0.62500000       0.62500000 </v>
    <v>       0.95833333       0.62500000       0.95833333 </v>
    <v>       0.95833333       0.95833333       0.29166667 </v>
    <v>       0.95833333       0.95833333       0.62500000 </v>
    <v>       0.95833333       0.95833333       0.95833333 </v>
    <v>       0.04166667       0.04166667       0.04166667 </v>
    <v>       0.04166667       0.04166667       0.37500000 </v>
    <v>       0.04166667       0.04166667       0.70833333 </v>
    <v>       0.04166667       0.37500000       0.04166667 </v>
    <v>       0.04166667       0.37500000       0.37500000 </v>
    <v>       0.04166667       0.37500000       0.70833333 </v>
    <v>       0.04166667       0.70833333       0.04166667 </v>
    <v>       0.04166667       0.70833333       0.37500000 </v>
    <v>       0.04166667       0.70833333       0.70833333 </v>
    <v>       0.37500000       0.04166667       0.04166667 </v>
    <v>       0.37500000       0.04166667       0.37500000 </v>
    <v>       0.37500000       0.04166667       0.70833333 </v>
    <v>       0.37500000       0.37500000       0.04166667 </v>
    <v>       0.37500000       0.37500000       0.37500000 </v>
    <v>       0.37500000       0.37500000       0.70833333 </v>
    <v>       0.37500000       0.70833333       0.04166667 </v>
    <v>       0.37500000       0.70833333       0.37500000 </v>
    <v>       0.37500000       0.70833333       0.70833333 </v>
    <v>       0.70833333       0.04166667       0.04166667 </v>
    <v>       0.70833333       0.04166667       0.37500000 </v>
    <v>       0.70833333       0.04166667       0.70833333 </v>
    <v>       0.70833333       0.37500000       0.04166667 </v>
    <v>       0.70833333       0.37500000       0.37500000 </v>
    <v>       0.70833333       0.37500000       0.70833333 </v>
    <v>       0.70833333       0.70833333       0.04166667 </v>
    <v>       0.70833333       0.70833333       0.37500000 </v>
    <v>       0.70833333       0.70833333       0.70833333 </v>
   </varray>
  </structure>
  <varray name="forces" >
   <v>      -0.00000000      -0.00000000       0.00000000 </v>
   <v>      -0.23291622      -0.16469664      -0.03103959 </v>
   <v>      -0.23291622      -0.16469664       0.03103959 </v>
   <v>      -0.12541847       0.13935292      -0.21723116 </v>
   <v>      -0.06169493       0.02181245       0.00000000 </v>
   <v>      -0.12541847       0.13935292       0.21723116 </v>
   <v>      -0.10749775       0.19004036      -0.18619157 </v>
   <v>      -0.10749775       0.19004036       0.18619157 </v>
   <v>      -0.06947234       0.02456218       0.00000000 </v>
   <v>       0.08957703      -0.16469664      -0.21723116 </v>
   <v>       0.00000000      -0.06543736       0.00000000 </v>
   <v>       0.08957703      -0.16469664       0.21723116 </v>
   <v>       0.03084747       0.02181245      -0.05342938 </v>
   <v>       0.03084747       0.02181245       0.05342938 </v>
   <v>       0.00468849       0.00331527      -0.00000000 </v>
   <v>       0.21499550       0.19004036      -0.00000000 </v>
   <v>       0.00234425      -0.00331527       0.00406035 </v>
   <v>       0.00234425      -0.00331527      -0.00406035 </v>
   <v>       0.14333919      -0.16469664      -0.18619157 </v>
   <v>       0.14333919      -0.16469664       0.18619157 </v>
   <v>      -0.00000000      -0.07368654       0.00000000 </v>
   <v>       0.25083694       0.13935292       0.00000000 </v>
   <v>      -0.00234425       0.00331527       0.00406035 </v>
   <v>      -0.00234425       0.00331527      -0.00406035 </v>
   <v>       0.03473617       0.02456218      -0.06016481 </v>
   <v>      -0.00468849      -0.00331527      -0.00000000 </v>
   <v>       0.03473617       0.02456218       0.06016481 </v>
   <v>      -0.00000000      -0.00000000       0.00000000 </v>
   <v>      -0.04535316      -0.03206952       0.05531084 </v>
   <v>      -0.04535316      -0.03206952      -0.05531084 </v>
   <v>      -0.00670971       0.07723064      -0.01162156 </v>
   <v>       0.00877087      -0.00310097       0.00000000 </v>
   <v>      -0.00670971       0.07723064       0.01162156 </v>
   <v>      -0.03864344      -0.01309159      -0.06693241 </v>
   <v>      -0.03864344      -0.01309159       0.06693241 </v>
   <v>      -0.00193131       0.00068282       0.00000000 </v>
   <v>       0.07057717      -0.03206952      -0.01162156 </v>
   <v>      -0.00000000       0.00930291       0.00000000 </v>
   <v>       0.07057717      -0.03206952       0.01162156 </v>
   <v>      -0.00438544      -0.00310097       0.00759580 </v>
   <v>      -0.00438544      -0.00310097      -0.00759580 </v>
   <v>       0.21262420       0.15034801      -0.00000000 </v>
   <v>       0.07728689      -0.01309159      -0.00000000 </v>
   <v>       0.10631210      -0.15034801       0.18413796 </v>
   <v>       0.10631210      -0.15034801      -0.18413796 </v>
   <v>      -0.02522402      -0.03206952      -0.06693241 </v>
   <v>      -0.02522402      -0.03206952       0.06693241 </v>
   <v>      -0.00000000      -0.00204846       0.00000000 </v>
   <v>       0.01341943       0.07723064       0.00000000 </v>
   <v>      -0.10631210       0.15034801       0.18413796 </v>
   <v>      -0.10631210       0.15034801      -0.18413796 </v>
   <v>       0.00096565       0.00068282      -0.00167256 </v>
   <v>      -0.21262420      -0.15034801      -0.00000000 </v>
   <v>       0.00096565       0.00068282       0.00167256 </v>
  </varray>
  <varray name="stress" >
   <v>       2.27155244       0.00000000       0.00000000 </v>
   <v>       0.00000000       2.27155245       0.00000000 </v>
   <v>       0.00000000      -0.00000000       2.27155245 </v>
  </varray>
  <energy>
   <i name="e_fr_energy">   -298.98700126 </i>
   <i name="e_wo_entrp">   -298.98700126 </i>
   <i name="e_0_energy">     -0.00000000 </i>
  </energy>
  <time name="totalsc">   21.85   22.13</time>
 </calculation>
 <calculation>
  <scstep>
   <time name="dav">    3.83    3.86</time>
   <time name="total">    5.07    5.12</time>
   <energy>
    <i name="alphaZ">     93.56316191 </i>
    <i name="ewald">  -6229.70819309 </i>
    <i name="hartreedc">   -415.37532622 </i>
    <i name="XCdc">   -475.43900792 </i>
    <i name="pawpsdc">  23288.17808355 </i>
    <i name="pawaedc"> -22353.35122140 </i>
    <i name="eentropy">     -0.00000000 </i>
    <i name="bandstr">    154.54358611 </i>
    <i name="atom">   5638.56506835 </i>
    <i name="e_fr_energy">   -299.02384871 </i>
    <i name="e_wo_entrp">   -299.02384871 </i>
    <i name="e_0_energy">   -299.02384871 </i>
   </energy>
  </scstep>
  <scstep>
   <time name="dav">    4.69    4.73</time>
   <time name="total">    5.69    5.74</time>
   <energy>
    <i name="e_fr_energy">   -299.02740824 </i>
    <i name="e_wo_entrp">   -299.02740824 </i>
    <i name="e_0_energy">   -299.02740824 </i>
   </energy>
  </scstep>
  <scstep>
   <time name="dav">    4.66    4.71</time>
   <time name="total">    6.03    6.10</time>
   <energy>
    <i name="e_fr_energy">   -299.02676433 </i>
    <i name="e_wo_entrp">   -299.02676433 </i>
    <i name="e_0_energy">   -299.02676433 </i>
   </energy>
  </scstep>
  <scstep>
   <time name="dav">    4.82    4.87</time>
   <time name="total">    5.42    5.47</time>
   <energy>
    <i name="e_fr_energy">   -299.02660440 </i>
    <i name="e_wo_entrp">   -299.02660440 </i>
    <i name="e_0_energy">   -299.02660440 </i>
   </energy>
  </scstep>
  <scstep>
   <time name="dav">    5.36    5.41</time>
   <time name="total">    5.97    6.03</time>
   <energy>
    <i name="e_fr_energy">   -299.02659082 </i>
    <i name="e_wo_entrp">   -299.02659082 </i>
    <i name="e_0_energy">   -299.02659082 </i>
   </energy>
  </scstep>
  <scstep>
   <time name="dav">    4.56    4.61</time>
   <time name="total">    4.79    4.84</time>
   <energy>
    <i name="alphaZ">     93.56316191 </i>
    <i name="ewald">  -6229.70819309 </i>
    <i name="hartreedc">   -415.44848027 </i>
    <i name="XCdc">   -475.43572837 </i>
    <i name="pawpsdc">  23294.81101742 </i>
    <i name="pawaedc"> -22359.98609906 </i>
    <i name="eentropy">     -0.00000000 </i>
    <i name="bandstr">    154.61266934 </i>
    <i name="atom">   5638.56506835 </i>
    <i name="e_fr_energy">   -299.02658376 </i>
    <i name="e_wo_entrp">   -299.02658376 </i>
    <i name="e_0_energy">   -299.02658376 </i>
   </energy>
  </scstep>
  <structure>
   <crystal>
    <varray name="basis" >
     <v>       9.97646553       0.00000000       5.75991507 </v>
     <v>       3.32548851       9.40590192       5.75991507 </v>
     <v>       0.00000000       0.00000000      11.51983014 </v>
    </varray>
    <i name="volume">   1080.99386112 </i>
    <varray name="rec_basis" >
     <v>       0.10023590      -0.03543874       0.00000000 </v>
     <v>       0.00000000       0.10631623       0.00000000 </v>
     <v>      -0.05011795      -0.03543874       0.08680684 </v>
    </varray>
   </crystal>
   <varray name="positions" >
    <v>       0.29166667       0.29166667       0.29166667 </v>
    <v>       0.29082194       0.29082194       0.62571474 </v>
    <v>       0.29082194       0.29082194       0.95930805 </v>
    <v>       0.29082194       0.62571474       0.29082194 </v>
    <v>       0.29133104       0.62511188       0.62511188 </v>
    <v>       0.29082194       0.62571474       0.95930805 </v>
    <v>       0.29082194       0.95930805       0.29082194 </v>
    <v>       0.29082194       0.95930805       0.62571474 </v>
    <v>       0.29128873       0.95845931       0.95845931 </v>
    <v>       0.62571474       0.29082194       0.29082194 </v>
    <v>       0.62511188       0.29133104       0.62511188 </v>
    <v>       0.62571474       0.29082194       0.95930805 </v>
    <v>       0.62511188       0.62511188       0.29133104 </v>
    <v>       0.62511188       0.62511188       0.62511188 </v>
    <v>       0.62501700       0.62501700       0.95831633 </v>
    <v>       0.62571474       0.95930805       0.29082194 </v>
    <v>       0.62501700       0.95831633       0.62501700 </v>
    <v>       0.62501700       0.95831633       0.95831633 </v>
    <v>       0.95930805       0.29082194       0.29082194 </v>
    <v>       0.95930805       0.29082194       0.62571474 </v>
    <v>       0.95845931       0.29128873       0.95845931 </v>
    <v>       0.95930805       0.62571474       0.29082194 </v>
    <v>       0.95831633       0.62501700       0.62501700 </v>
    <v>       0.95831633       0.62501700       0.95831633 </v>
    <v>       0.95845931       0.95845931       0.29128873 </v>
    <v>       0.95831633       0.95831633       0.62501700 </v>
    <v>       0.95845931       0.95845931       0.95845931 </v>
    <v>       0.04166667       0.04166667       0.04166667 </v>
    <v>       0.04150218       0.04150218       0.37539611 </v>
    <v>       0.04150218       0.04150218       0.70826619 </v>
    <v>       0.04150218       0.37539611       0.04150218 </v>
    <v>       0.04171438       0.37498410       0.37498410 </v>
    <v>       0.04150218       0.37539611       0.70826619 </v>
    <v>       0.04150218       0.70826619       0.04150218 </v>
    <v>       0.04150218       0.70826619       0.37539611 </v>
    <v>       0.04165616       0.70833684       0.70833684 </v>
    <v>       0.37539611       0.04150218       0.04150218 </v>
    <v>       0.37498410       0.04171438       0.37498410 </v>
    <v>       0.37539611       0.04150218       0.70826619 </v>
    <v>       0.37498410       0.37498410       0.04171438 </v>
    <v>       0.37498410       0.37498410       0.37498410 </v>
    <v>       0.37577113       0.37577113       0.70756220 </v>
    <v>       0.37539611       0.70826619       0.04150218 </v>
    <v>       0.37577113       0.70756220       0.37577113 </v>
    <v>       0.37577113       0.70756220       0.70756220 </v>
    <v>       0.70826619       0.04150218       0.04150218 </v>
    <v>       0.70826619       0.04150218       0.37539611 </v>
    <v>       0.70833684       0.04165616       0.70833684 </v>
    <v>       0.70826619       0.37539611       0.04150218 </v>
    <v>       0.70756220       0.37577113       0.37577113 </v>
    <v>       0.70756220       0.37577113       0.70756220 </v>
    <v>       0.70833684       0.70833684       0.04165616 </v>
    <v>       0.70756220       0.70756220       0.37577113 </v>
    <v>       0.70833684       0.70833684       0.70833684 </v>
   </varray>
  </structure>
  <varray name="forces" >
   <v>      -0.00000000      -0.00000000      -0.00000000 </v>
   <v>      -0.03082918      -0.02179953       0.02849634 </v>
   <v>      -0.03082918      -0.02179953      -0.02849634 </v>
   <v>      -0.00718841       0.04506669      -0.01245069 </v>
   <v>      -0.03617188       0.01278869      -0.00000000 </v>
   <v>      -0.00718841       0.04506669       0.01245069 </v>
   <v>      -0.02364078      -0.00146764      -0.04094703 </v>
   <v>      -0.02364078      -0.00146764       0.04094703 </v>
   <v>       0.00509954      -0.00180296      -0.00000000 </v>
   <v>       0.04009315      -0.02179953      -0.01245069 </v>
   <v>       0.00000000      -0.03836607      -0.00000000 </v>
   <v>       0.04009315      -0.02179953       0.01245069 </v>
   <v>       0.01808594       0.01278869      -0.03132577 </v>
   <v>       0.01808594       0.01278869       0.03132577 </v>
   <v>       0.02171381       0.01535398       0.00000000 </v>
   <v>       0.04728156      -0.00146764       0.00000000 </v>
   <v>       0.01085690      -0.01535398       0.01880471 </v>
   <v>       0.01085690      -0.01535398      -0.01880471 </v>
   <v>      -0.00926396      -0.02179953      -0.04094703 </v>
   <v>      -0.00926396      -0.02179953       0.04094703 </v>
   <v>      -0.00000000       0.00540888      -0.00000000 </v>
   <v>       0.01437681       0.04506669       0.00000000 </v>
   <v>      -0.01085690       0.01535398       0.01880471 </v>
   <v>      -0.01085690       0.01535398      -0.01880471 </v>
   <v>      -0.00254977      -0.00180296       0.00441633 </v>
   <v>      -0.02171381      -0.01535398      -0.00000000 </v>
   <v>      -0.00254977      -0.00180296      -0.00441633 </v>
   <v>      -0.00000000      -0.00000000      -0.00000000 </v>
   <v>      -0.06021333      -0.04257725      -0.01908483 </v>
   <v>      -0.06021333      -0.04257725       0.01908483 </v>
   <v>      -0.03561598       0.02699455      -0.06168869 </v>
   <v>       0.01690484      -0.00597676      -0.00000000 </v>
   <v>      -0.03561598       0.02699455       0.06168869 </v>
   <v>      -0.02459735       0.05815996      -0.04260386 </v>
   <v>      -0.02459735       0.05815996       0.04260386 </v>
   <v>      -0.01997555       0.00706242       0.00000000 </v>
   <v>       0.01357871      -0.04257725      -0.06168869 </v>
   <v>      -0.00000000       0.01793029      -0.00000000 </v>
   <v>       0.01357871      -0.04257725       0.06168869 </v>
   <v>      -0.00845242      -0.00597676       0.01464002 </v>
   <v>      -0.00845242      -0.00597676      -0.01464002 </v>
   <v>      -0.01647710      -0.01165107      -0.00000000 </v>
   <v>       0.04919470       0.05815996       0.00000000 </v>
   <v>      -0.00823855       0.01165107      -0.01426958 </v>
   <v>      -0.00823855       0.01165107       0.01426958 </v>
   <v>       0.04663462      -0.04257725      -0.04260386 </v>
   <v>       0.04663462      -0.04257725       0.04260386 </v>
   <v>       0.00000000      -0.02118727       0.00000000 </v>
   <v>       0.07123197       0.02699455      -0.00000000 </v>
   <v>       0.00823855      -0.01165107      -0.01426958 </v>
   <v>       0.00823855      -0.01165107       0.01426958 </v>
   <v>       0.00998777       0.00706242      -0.01729933 </v>
   <v>       0.01647710       0.01165107      -0.00000000 </v>
   <v>       0.00998777       0.00706242       0.01729933 </v>
  </varray>
  <varray name="stress" >
   <v>       2.33965440       0.00000000       0.00000000 </v>
   <v>       0.00000000       2.33965441      -0.00000000 </v>
   <v>       0.00000000       0.00000000       2.33965441 </v>
  </varray>
  <energy>
   <i name="e_fr_energy">   -299.02658376 </i>
   <i name="e_wo_entrp">   -299.02658376 </i>
   <i name="e_0_energy">     -0.00000000 </i>
  </energy>
  <time name="totalsc">   41.91   42.31</time>
 </calculation>
 <calculation>
  <scstep>
   <time name="dav">    3.77    3.80</time>
   <time name="total">    4.26    4.30</time>
   <energy>
    <i name="alphaZ">     93.56316191 </i>
    <i name="ewald">  -6229.68918246 </i>
    <i name="hartreedc">   -415.46204482 </i>
    <i name="XCdc">   -475.43566356 </i>
    <i name="pawpsdc">  23294.30908212 </i>
    <i name="pawaedc"> -22359.48411390 </i>
    <i name="eentropy">     -0.00000000 </i>
    <i name="bandstr">    154.60681931 </i>
    <i name="atom">   5638.56506835 </i>
    <i name="e_fr_energy">   -299.02687304 </i>
    <i name="e_wo_entrp">   -299.02687304 </i>
    <i name="e_0_energy">   -299.02687304 </i>
   </energy>
  </scstep>
  <scstep>
   <time name="dav">    4.98    5.03</time>
   <time name="total">    5.80    5.86</time>
   <energy>
    <i name="e_fr_energy">   -299.02691096 </i>
    <i name="e_wo_entrp">   -299.02691096 </i>
    <i name="e_0_energy">   -299.02691096 </i>
   </energy>
  </scstep>
  <scstep>
   <time name="dav">    4.12    4.16</time>
   <time name="total">    4.63    4.69</time>
   <energy>
    <i name="alphaZ">     93.56316191 </i>
    <i name="ewald">  -6229.68918246 </i>
    <i name="hartreedc">   -415.46876889 </i>
    <i name="XCdc">   -475.43542093 </i>
    <i name="pawpsdc">  23294.65589841 </i>
    <i name="pawaedc"> -22359.83105987 </i>
    <i name="eentropy">     -0.00000000 </i>
    <i name="bandstr">    154.61339801 </i>
    <i name="atom">   5638.56506835 </i>
    <i name="e_fr_energy">   -299.02690548 </i>
    <i name="e_wo_entrp">   -299.02690548 </i>
    <i name="e_0_energy">   -299.02690548 </i>
   </energy>
  </scstep>
  <structure>
   <crystal>
    <varray name="basis" >
     <v>       9.97646553       0.00000000       5.75991507 </v>
     <v>       3.32548851       9.40590192       5.75991507 </v>
     <v>       0.00000000       0.00000000      11.51983014 </v>
    </varray>
    <i name="volume">   1080.99386112 </i>
    <varray name="rec_basis" >
     <v>       0.10023590      -0.03543874       0.00000000 </v>
     <v>       0.00000000       0.10631623       0.00000000 </v>
     <v>      -0.05011795      -0.03543874       0.08680684 </v>
    </varray>
   </crystal>
   <varray name="positions" >
    <v>       0.29166667       0.29166667       0.29166667 </v>
    <v>       0.29073970       0.29073970       0.62578432 </v>
    <v>       0.29073970       0.29073970       0.95940294 </v>
    <v>       0.29073970       0.62578432       0.29073970 </v>
    <v>       0.29129836       0.62512277       0.62512277 </v>
    <v>       0.29073970       0.62578432       0.95940294 </v>
    <v>       0.29073970       0.95940294       0.29073970 </v>
    <v>       0.29073970       0.95940294       0.62578432 </v>
    <v>       0.29125193       0.95847158       0.95847158 </v>
    <v>       0.62578432       0.29073970       0.29073970 </v>
    <v>       0.62512277       0.29129836       0.62512277 </v>
    <v>       0.62578432       0.29073970       0.95940294 </v>
    <v>       0.62512277       0.62512277       0.29129836 </v>
    <v>       0.62512277       0.62512277       0.62512277 </v>
    <v>       0.62501866       0.62501866       0.95831467 </v>
    <v>       0.62578432       0.95940294       0.29073970 </v>
    <v>       0.62501866       0.95831467       0.62501866 </v>
    <v>       0.62501866       0.95831467       0.95831467 </v>
    <v>       0.95940294       0.29073970       0.29073970 </v>
    <v>       0.95940294       0.29073970       0.62578432 </v>
    <v>       0.95847158       0.29125193       0.95847158 </v>
    <v>       0.95940294       0.62578432       0.29073970 </v>
    <v>       0.95831467       0.62501866       0.62501866 </v>
    <v>       0.95831467       0.62501866       0.95831467 </v>
    <v>       0.95847158       0.95847158       0.29125193 </v>
    <v>       0.95831467       0.95831467       0.62501866 </v>
    <v>       0.95847158       0.95847158       0.95847158 </v>
    <v>       0.04166667       0.04166667       0.04166667 </v>
    <v>       0.04148617       0.04148617       0.37543468 </v>
    <v>       0.04148617       0.04148617       0.70825965 </v>
    <v>       0.04148617       0.37543468       0.04148617 </v>
    <v>       0.04171903       0.37498255       0.37498255 </v>
    <v>       0.04148617       0.37543468       0.70825965 </v>
    <v>       0.04148617       0.70825965       0.04148617 </v>
    <v>       0.04148617       0.70825965       0.37543468 </v>
    <v>       0.04165514       0.70833718       0.70833718 </v>
    <v>       0.37543468       0.04148617       0.04148617 </v>
    <v>       0.37498255       0.04171903       0.37498255 </v>
    <v>       0.37543468       0.04148617       0.70825965 </v>
    <v>       0.37498255       0.37498255       0.04171903 </v>
    <v>       0.37498255       0.37498255       0.37498255 </v>
    <v>       0.37584621       0.37584621       0.70748713 </v>
    <v>       0.37543468       0.70825965       0.04148617 </v>
    <v>       0.37584621       0.70748713       0.37584621 </v>
    <v>       0.37584621       0.70748713       0.70748713 </v>
    <v>       0.70825965       0.04148617       0.04148617 </v>
    <v>       0.70825965       0.04148617       0.37543468 </v>
    <v>       0.70833718       0.04165514       0.70833718 </v>
    <v>       0.70825965       0.37543468       0.04148617 </v>
    <v>       0.70748713       0.37584621       0.37584621 </v>
    <v>       0.70748713       0.37584621       0.70748713 </v>
    <v>       0.70833718       0.70833718       0.04165514 </v>
    <v>       0.70748713       0.70748713       0.37584621 </v>
    <v>       0.70833718       0.70833718       0.70833718 </v>
   </varray>
  </structure>
  <varray name="forces" >
   <v>      -0.00000000      -0.00000000      -0.00000000 </v>
   <v>      -0.01182962      -0.00836481       0.03393358 </v>
   <v>      -0.01182962      -0.00836481      -0.03393358 </v>
   <v>       0.00388097       0.03607146       0.00672204 </v>
   <v>      -0.03318108       0.01173128      -0.00000000 </v>
   <v>       0.00388097       0.03607146      -0.00672204 </v>
   <v>      -0.01571059      -0.01934185      -0.02721155 </v>
   <v>      -0.01571059      -0.01934185       0.02721155 </v>
   <v>       0.01275176      -0.00450843      -0.00000000 </v>
   <v>       0.03530216      -0.00836481       0.00672204 </v>
   <v>      -0.00000000      -0.03519385      -0.00000000 </v>
   <v>       0.03530216      -0.00836481      -0.00672204 </v>
   <v>       0.01659054       0.01173128      -0.02873565 </v>
   <v>       0.01659054       0.01173128       0.02873565 </v>
   <v>       0.02361391       0.01669756       0.00000000 </v>
   <v>       0.03142119      -0.01934185      -0.00000000 </v>
   <v>       0.01180695      -0.01669756       0.02045025 </v>
   <v>       0.01180695      -0.01669756      -0.02045025 </v>
   <v>      -0.02347253      -0.00836481      -0.02721155 </v>
   <v>      -0.02347253      -0.00836481       0.02721155 </v>
   <v>      -0.00000000       0.01352529      -0.00000000 </v>
   <v>      -0.00776194       0.03607146      -0.00000000 </v>
   <v>      -0.01180695       0.01669756       0.02045025 </v>
   <v>      -0.01180695       0.01669756      -0.02045025 </v>
   <v>      -0.00637588      -0.00450843       0.01104335 </v>
   <v>      -0.02361391      -0.01669756       0.00000000 </v>
   <v>      -0.00637588      -0.00450843      -0.01104335 </v>
   <v>      -0.00000000      -0.00000000      -0.00000000 </v>
   <v>      -0.06193448      -0.04379429      -0.02656422 </v>
   <v>      -0.06193448      -0.04379429       0.02656422 </v>
   <v>      -0.03863567       0.02210470      -0.06691895 </v>
   <v>       0.01792390      -0.00633706      -0.00000000 </v>
   <v>      -0.03863567       0.02210470       0.06691895 </v>
   <v>      -0.02329881       0.06548389      -0.04035473 </v>
   <v>      -0.02329881       0.06548389       0.04035473 </v>
   <v>      -0.02220667       0.00785124      -0.00000000 </v>
   <v>       0.00796195      -0.04379429      -0.06691895 </v>
   <v>      -0.00000000       0.01901117      -0.00000000 </v>
   <v>       0.00796195      -0.04379429       0.06691895 </v>
   <v>      -0.00896195      -0.00633706       0.01552255 </v>
   <v>      -0.00896195      -0.00633706      -0.01552255 </v>
   <v>      -0.03781711      -0.02674074      -0.00000000 </v>
   <v>       0.04659762       0.06548389      -0.00000000 </v>
   <v>      -0.01890856       0.02674074      -0.03275058 </v>
   <v>      -0.01890856       0.02674074       0.03275058 </v>
   <v>       0.05397254      -0.04379429      -0.04035473 </v>
   <v>       0.05397254      -0.04379429       0.04035473 </v>
   <v>      -0.00000000      -0.02355373      -0.00000000 </v>
   <v>       0.07727135       0.02210470      -0.00000000 </v>
   <v>       0.01890856      -0.02674074      -0.03275058 </v>
   <v>       0.01890856      -0.02674074       0.03275058 </v>
   <v>       0.01110334       0.00785124      -0.01923154 </v>
   <v>       0.03781711       0.02674074      -0.00000000 </v>
   <v>       0.01110334       0.00785124       0.01923154 </v>
  </varray>
  <varray name="stress" >
   <v>       2.36431971       0.00000000      -0.00000000 </v>
   <v>       0.00000000       2.36431972       0.00000000 </v>
   <v>      -0.00000000      -0.00000000       2.36431972 </v>
  </varray>
  <energy>
   <i name="e_fr_energy">   -299.02690548 </i>
   <i name="e_wo_entrp">   -299.02690548 </i>
   <i name="e_0_energy">     -0.00000000 </i>
  </energy>
  <time name="totalsc">   24.64   24.88</time>
 </calculation>
 <calculation>
  <scstep>
   <time name="dav">    3.57    3.59</time>
   <time name="total">    3.83    3.87</time>
   <energy>
    <i name="alphaZ">     93.56316191 </i>
    <i name="ewald">  -6229.79926656 </i>
    <i name="hartreedc">   -415.37697448 </i>
    <i name="XCdc">   -475.43594258 </i>
    <i name="pawpsdc">  23294.50048066 </i>
    <i name="pawaedc"> -22359.67577392 </i>
    <i name="eentropy">     -0.00000000 </i>
    <i name="bandstr">    154.62843055 </i>
    <i name="atom">   5638.56506835 </i>
    <i name="e_fr_energy">   -299.03081607 </i>
    <i name="e_wo_entrp">   -299.03081607 </i>
    <i name="e_0_energy">   -299.03081607 </i>
   </energy>
  </scstep>
  <scstep>
   <time name="dav">    4.22    4.25</time>
   <time name="total">    4.47    4.51</time>
   <energy>
    <i name="e_fr_energy">   -299.03127914 </i>
    <i name="e_wo_entrp">   -299.03127914 </i>
    <i name="e_0_energy">   -299.03127914 </i>
   </energy>
  </scstep>
  <scstep>
   <time name="dav">    3.90    3.93</time>
   <time name="total">    4.16    4.19</time>
   <energy>
    <i name="e_fr_energy">   -299.03120032 </i>
    <i name="e_wo_entrp">   -299.03120032 </i>
    <i name="e_0_energy">   -299.03120032 </i>
   </energy>
  </scstep>
  <scstep>
   <time name="dav">    3.90    3.93</time>
   <time name="total">    4.16    4.19</time>
   <energy>
    <i name="e_fr_energy">   -299.03116103 </i>
    <i name="e_wo_entrp">   -299.03116103 </i>
    <i name="e_0_energy">   -299.03116103 </i>
   </energy>
  </scstep>
  <scstep>
   <time name="dav">    4.68    4.73</time>
   <time name="total">    4.91    4.95</time>
   <energy>
    <i name="alphaZ">     93.56316191 </i>
    <i name="ewald">  -6229.79926656 </i>
    <i name="hartreedc">   -415.38312020 </i>
    <i name="XCdc">   -475.43578078 </i>
    <i name="pawpsdc">  23294.09443593 </i>
    <i name="pawaedc"> -22359.26939501 </i>
    <i name="eentropy">     -0.00000000 </i>
    <i name="bandstr">    154.63373741 </i>
    <i name="atom">   5638.56506835 </i>
    <i name="e_fr_energy">   -299.03115895 </i>
    <i name="e_wo_entrp">   -299.03115895 </i>
    <i name="e_0_energy">   -299.03115895 </i>
   </energy>
  </scstep>
  <structure>
   <crystal>
    <varray name="basis" >
     <v>       9.97646553       0.00000000       5.75991507 </v>
     <v>       3.32548851       9.40590192       5.75991507 </v>
     <v>       0.00000000       0.00000000      11.51983014 </v>
    </varray>
    <i name="volume">   1080.99386112 </i>
    <varray name="rec_basis" >
     <v>       0.10023590      -0.03543874       0.00000000 </v>
     <v>       0.00000000       0.10631623       0.00000000 </v>
     <v>      -0.05011795      -0.03543874       0.08680684 </v>
    </varray>
   </crystal>
   <varray name="positions" >
    <v>       0.29166667       0.29166667       0.29166667 </v>
    <v>       0.29062946       0.29062946       0.62602920 </v>
    <v>       0.29062946       0.29062946       0.95937854 </v>
    <v>       0.29062946       0.62602920       0.29062946 </v>
    <v>       0.29108792       0.62519292       0.62519292 </v>
    <v>       0.29062946       0.62602920       0.95937854 </v>
    <v>       0.29062946       0.95937854       0.29062946 </v>
    <v>       0.29062946       0.95937854       0.62602920 </v>
    <v>       0.29129290       0.95845792       0.95845792 </v>
    <v>       0.62602920       0.29062946       0.29062946 </v>
    <v>       0.62519292       0.29108792       0.62519292 </v>
    <v>       0.62602920       0.29062946       0.95937854 </v>
    <v>       0.62519292       0.62519292       0.29108792 </v>
    <v>       0.62519292       0.62519292       0.62519292 </v>
    <v>       0.62510731       0.62510731       0.95822603 </v>
    <v>       0.62602920       0.95937854       0.29062946 </v>
    <v>       0.62510731       0.95822603       0.62510731 </v>
    <v>       0.62510731       0.95822603       0.95822603 </v>
    <v>       0.95937854       0.29062946       0.29062946 </v>
    <v>       0.95937854       0.29062946       0.62602920 </v>
    <v>       0.95845792       0.29129290       0.95845792 </v>
    <v>       0.95937854       0.62602920       0.29062946 </v>
    <v>       0.95822603       0.62510731       0.62510731 </v>
    <v>       0.95822603       0.62510731       0.95822603 </v>
    <v>       0.95845792       0.95845792       0.29129290 </v>
    <v>       0.95822603       0.95822603       0.62510731 </v>
    <v>       0.95845792       0.95845792       0.95845792 </v>
    <v>       0.04166667       0.04166667       0.04166667 </v>
    <v>       0.04124423       0.04124423       0.37558144 </v>
    <v>       0.04124423       0.04124423       0.70859677 </v>
    <v>       0.04124423       0.37558144       0.04124423 </v>
    <v>       0.04182219       0.37494816       0.37494816 </v>
    <v>       0.04124423       0.37558144       0.70859677 </v>
    <v>       0.04124423       0.70859677       0.04124423 </v>
    <v>       0.04124423       0.70859677       0.37558144 </v>
    <v>       0.04153115       0.70837851       0.70837851 </v>
    <v>       0.37558144       0.04124423       0.04124423 </v>
    <v>       0.37494816       0.04182219       0.37494816 </v>
    <v>       0.37558144       0.04124423       0.70859677 </v>
    <v>       0.37494816       0.37494816       0.04182219 </v>
    <v>       0.37494816       0.37494816       0.37494816 </v>
    <v>       0.37576709       0.37576709       0.70756624 </v>
    <v>       0.37558144       0.70859677       0.04124423 </v>
    <v>       0.37576709       0.70756624       0.37576709 </v>
    <v>       0.37576709       0.70756624       0.70756624 </v>
    <v>       0.70859677       0.04124423       0.04124423 </v>
    <v>       0.70859677       0.04124423       0.37558144 </v>
    <v>       0.70837851       0.04153115       0.70837851 </v>
    <v>       0.70859677       0.37558144       0.04124423 </v>
    <v>       0.70756624       0.37576709       0.37576709 </v>
    <v>       0.70756624       0.37576709       0.70756624 </v>
    <v>       0.70837851       0.70837851       0.04153115 </v>
    <v>       0.70756624       0.70756624       0.37576709 </v>
    <v>       0.70837851       0.70837851       0.70837851 </v>
   </varray>
  </structure>
  <varray name="forces" >
   <v>       0.00000000       0.00000000      -0.00000000 </v>
   <v>      -0.00755874      -0.00534484       0.01378446 </v>
   <v>      -0.00755874      -0.00534484      -0.01378446 </v>
   <v>       0.00019986       0.01659980       0.00034617 </v>
   <v>      -0.00811857       0.00287035      -0.00000000 </v>
   <v>       0.00019986       0.01659980      -0.00034617 </v>
   <v>      -0.00775860      -0.00591013      -0.01343829 </v>
   <v>      -0.00775860      -0.00591013       0.01343829 </v>
   <v>      -0.00352046       0.00124467      -0.00000000 </v>
   <v>       0.01571706      -0.00534484       0.00034617 </v>
   <v>       0.00000000      -0.00861104      -0.00000000 </v>
   <v>       0.01571706      -0.00534484      -0.00034617 </v>
   <v>       0.00405929       0.00287035      -0.00703089 </v>
   <v>       0.00405929       0.00287035       0.00703089 </v>
   <v>       0.02014960       0.01424792      -0.00000000 </v>
   <v>       0.01551721      -0.00591013      -0.00000000 </v>
   <v>       0.01007480      -0.01424792       0.01745006 </v>
   <v>       0.01007480      -0.01424792      -0.01745006 </v>
   <v>      -0.00815832      -0.00534484      -0.01343829 </v>
   <v>      -0.00815832      -0.00534484       0.01343829 </v>
   <v>       0.00000000      -0.00373401      -0.00000000 </v>
   <v>      -0.00039972       0.01659980      -0.00000000 </v>
   <v>      -0.01007480       0.01424792       0.01745006 </v>
   <v>      -0.01007480       0.01424792      -0.01745006 </v>
   <v>       0.00176023       0.00124467      -0.00304880 </v>
   <v>      -0.02014960      -0.01424792       0.00000000 </v>
   <v>       0.00176023       0.00124467       0.00304880 </v>
   <v>       0.00000000      -0.00000000      -0.00000000 </v>
   <v>      -0.02403123      -0.01699265      -0.01087915 </v>
   <v>      -0.02403123      -0.01699265       0.01087915 </v>
   <v>      -0.01515616       0.00810986      -0.02625124 </v>
   <v>      -0.00343300       0.00121375       0.00000000 </v>
   <v>      -0.01515616       0.00810986       0.02625124 </v>
   <v>      -0.00887508       0.02587544      -0.01537208 </v>
   <v>      -0.00887508       0.02587544       0.01537208 </v>
   <v>      -0.01673526       0.00591681       0.00000000 </v>
   <v>       0.00259399      -0.01699265      -0.02625124 </v>
   <v>       0.00000000      -0.00364124       0.00000000 </v>
   <v>       0.00259399      -0.01699265       0.02625124 </v>
   <v>       0.00171650       0.00121375      -0.00297306 </v>
   <v>       0.00171650       0.00121375       0.00297306 </v>
   <v>      -0.02181244      -0.01542372      -0.00000000 </v>
   <v>       0.01775015       0.02587544      -0.00000000 </v>
   <v>      -0.01090622       0.01542372      -0.01889012 </v>
   <v>      -0.01090622       0.01542372       0.01889012 </v>
   <v>       0.02143724      -0.01699265      -0.01537208 </v>
   <v>       0.02143724      -0.01699265       0.01537208 </v>
   <v>       0.00000000      -0.01775042       0.00000000 </v>
   <v>       0.03031232       0.00810986      -0.00000000 </v>
   <v>       0.01090622      -0.01542372      -0.01889012 </v>
   <v>       0.01090622      -0.01542372       0.01889012 </v>
   <v>       0.00836763       0.00591681      -0.01449316 </v>
   <v>       0.02181244       0.01542372      -0.00000000 </v>
   <v>       0.00836763       0.00591681       0.01449316 </v>
  </varray>
  <varray name="stress" >
   <v>       2.34221671      -0.00000000       0.00000000 </v>
   <v>       0.00000000       2.34221671       0.00000000 </v>
   <v>       0.00000000       0.00000000       2.34221671 </v>
  </varray>
  <energy>
   <i name="e_fr_energy">   -299.03115895 </i>
   <i name="e_wo_entrp">   -299.03115895 </i>
   <i name="e_0_energy">     -0.00000000 </i>
  </energy>
  <time name="totalsc">   30.80   31.09</time>
  <eigenvalues>
   <array>
    <dimension dim="1">band</dimension>
    <dimension dim="2">kpoint</dimension>
    <dimension dim="3">spin</dimension>
    <field>eigene</field>
    <field>occ</field>
    <set>
     <set comment="spin 1">
      <set comment="kpoint 1">
       <r>   -6.7078    1.0000 </r>
       <r>   -5.8256    1.0000 </r>
       <r>   -4.7646    1.0000 </r>
       <r>   -4.7646    1.0000 </r>
       <r>   -4.7646    1.0000 </r>
       <r>   -4.7251    1.0000 </r>
       <r>   -4.7251    1.0000 </r>
       <r>   -4.7251    1.0000 </r>
       <r>   -4.7096    1.0000 </r>
       <r>   -4.3746    1.0000 </r>
       <r>   -4.2291    1.0000 </r>
       <r>   -4.2291    1.0000 </r>
       <r>   -4.2291    1.0000 </r>
       <r>   -4.1941    1.0000 </r>
       <r>   -4.1941    1.0000 </r>
       <r>   -3.4212    1.0000 </r>
       <r>   -2.9487    1.0000 </r>
       <r>   -2.9487    1.0000 </r>
       <r>   -2.9487    1.0000 </r>
       <r>   -2.8590    1.0000 </r>
       <r>   -2.8590    1.0000 </r>
       <r>   -2.8590    1.0000 </r>
       <r>   -2.8163    1.0000 </r>
       <r>   -2.8163    1.0000 </r>
       <r>   -2.8097    1.0000 </r>
       <r>   -2.8097    1.0000 </r>
       <r>   -2.8097    1.0000 </r>
       <r>   -1.4177    1.0000 </r>
       <r>   -1.0708    1.0000 </r>
       <r>   -1.0708    1.0000 </r>
       <r>   -1.0708    1.0000 </r>
       <r>   -0.9216    1.0000 </r>
       <r>   -0.9216    1.0000 </r>
       <r>   -0.9216    1.0000 </r>
       <r>   -0.9187    1.0000 </r>
       <r>   -0.9187    1.0000 </r>
       <r>   -0.8964    1.0000 </r>
       <r>   -0.8964    1.0000 </r>
       <r>   -0.8964    1.0000 </r>
       <r>    0.2764    1.0000 </r>
       <r>    0.3496    1.0000 </r>
       <r>    0.3496    1.0000 </r>
       <r>    0.3496    1.0000 </r>
       <r>    0.5159    1.0000 </r>
       <r>    0.5159    1.0000 </r>
       <r>    0.5159    1.0000 </r>
       <r>    0.5332    1.0000 </r>
       <r>    0.7520    1.0000 </r>
       <r>    0.7871    1.0000 </r>
       <r>    0.7871    1.0000 </r>
       <r>    0.7871    1.0000 </r>
       <r>    0.8294    1.0000 </r>
       <r>    0.8294    1.0000 </r>
       <r>    1.2111    1.0000 </r>
       <r>    1.2111    1.0000 </r>
       <r>    1.2111    1.0000 </r>
       <r>    1.4125    1.0000 </r>
       <r>    1.4125    1.0000 </r>
       <r>    1.4581    1.0000 </r>
       <r>    1.4614    1.0000 </r>
       <r>    1.4614    1.0000 </r>
       <r>    1.4614    1.0000 </r>
       <r>    1.4672    1.0000 </r>
       <r>    1.4672    1.0000 </r>
       <r>    1.4672    1.0000 </r>
       <r>    2.9921    1.0000 </r>
       <r>    2.9921    1.0000 </r>
       <r>    2.9921    1.0000 </r>
       <r>    3.4094    1.0000 </r>
       <r>    3.4094    1.0000 </r>
       <r>    3.4094    1.0000 </r>
       <r>    3.4304    1.0000 </r>
       <r>    3.4304    1.0000 </r>
       <r>    3.4304    1.0000 </r>
       <r>    3.4459    1.0000 </r>
       <r>    3.4459    1.0000 </r>
       <r>    3.4459    1.0000 </r>
       <r>    3.6410    1.0000 </r>
       <r>    3.6410    1.0000 </r>
       <r>    3.6410    1.0000 </r>
       <r>    3.7096    1.0000 </r>
       <r>    3.7096    1.0000 </r>
       <r>    3.7096    1.0000 </r>
       <r>    3.7303    1.0000 </r>
       <r>    3.7414    1.0000 </r>
       <r>    3.7414    1.0000 </r>
       <r>    3.7717    1.0000 </r>
       <r>    3.7717    1.0000 </r>
       <r>    3.7717    1.0000 </r>
       <r>    4.5950    1.0000 </r>
       <r>    4.5950    1.0000 </r>
       <r>    4.5950    1.0000 </r>
       <r>    4.8208    1.0000 </r>
       <r>    4.8208    1.0000 </r>
       <r>    4.8264    1.0000 </r>
       <r>    4.8264    1.0000 </r>
       <r>    4.8264    1.0000 </r>
       <r>    4.8596    1.0000 </r>
       <r>    4.8596    1.0000 </r>
       <r>    4.8596    1.0000 </r>
       <r>    4.8637    1.0000 </r>
       <r>    4.8637    1.0000 </r>
       <r>    4.8659    1.0000 </r>
       <r>    4.8659    1.0000 </r>
       <r>    4.8659    1.0000 </r>
       <r>    5.8017    1.0000 </r>
       <r>    5.8017    1.0000 </r>
       <r>    5.8017    1.0000 </r>
       <r>    6.3039    0.0000 </r>
       <r>    6.5215    0.0000 </r>
       <r>    6.5215    0.0000 </r>
       <r>    6.5215    0.0000 </r>
       <r>    6.5759    0.0000 </r>
       <r>    6.5759    0.0000 </r>
       <r>    6.9280    0.0000 </r>
       <r>    7.3062    0.0000 </r>
       <r>    7.3062    0.0000 </r>
       <r>    7.3062    0.0000 </r>
       <r>    7.3804    0.0000 </r>
       <r>    7.3804    0.0000 </r>
       <r>    7.4033    0.0000 </r>
       <r>    7.4033    0.0000 </r>
       <r>    7.4033    0.0000 </r>
       <r>    7.4455    0.0000 </r>
       <r>    7.4455    0.0000 </r>
       <r>    7.4455    0.0000 </r>
       <r>    7.5209    0.0000 </r>
       <r>    7.5912    0.0000 </r>
       <r>    7.5912    0.0000 </r>
       <r>    7.5912    0.0000 </r>
       <r>    7.6247    0.0000 </r>
       <r>    7.6332    0.0000 </r>
       <r>    7.6332    0.0000 </r>
       <r>    7.6332    0.0000 </r>
       <r>    7.8251    0.0000 </r>
       <r>    7.8307    0.0000 </r>
       <r>    7.8307    0.0000 </r>
       <r>    7.8307    0.0000 </r>
       <r>    7.8392    0.0000 </r>
       <r>    7.8392    0.0000 </r>
       <r>    8.3483    0.0000 </r>
       <r>    8.3483    0.0000 </r>
       <r>    8.3483    0.0000 </r>
       <r>    9.1315    0.0000 </r>
      </set>
      <set comment="kpoint 2">
       <r>   -6.6890    1.0000 </r>
       <r>   -5.7968    1.0000 </r>
       <r>   -5.2261    1.0000 </r>
       <r>   -4.8711    1.0000 </r>
       <r>   -4.8711    1.0000 </r>
       <r>   -4.7172    1.0000 </r>
       <r>   -4.6025    1.0000 </r>
       <r>   -4.6025    1.0000 </r>
       <r>   -4.5232    1.0000 </r>
       <r>   -4.4469    1.0000 </r>
       <r>   -4.4469    1.0000 </r>
       <r>   -4.1878    1.0000 </r>
       <r>   -3.8743    1.0000 </r>
       <r>   -3.6814    1.0000 </r>
       <r>   -3.6814    1.0000 </r>
       <r>   -3.5922    1.0000 </r>
       <r>   -3.4547    1.0000 </r>
       <r>   -3.4547    1.0000 </r>
       <r>   -3.1095    1.0000 </r>
       <r>   -2.8985    1.0000 </r>
       <r>   -2.8985    1.0000 </r>
       <r>   -2.8542    1.0000 </r>
       <r>   -2.8120    1.0000 </r>
       <r>   -2.8120    1.0000 </r>
       <r>   -2.6763    1.0000 </r>
       <r>   -2.5809    1.0000 </r>
       <r>   -2.5809    1.0000 </r>
       <r>   -1.4992    1.0000 </r>
       <r>   -1.2368    1.0000 </r>
       <r>   -1.2368    1.0000 </r>
       <r>   -1.1922    1.0000 </r>
       <r>   -1.0423    1.0000 </r>
       <r>   -1.0423    1.0000 </r>
       <r>   -0.9578    1.0000 </r>
       <r>   -0.9460    1.0000 </r>
       <r>   -0.9460    1.0000 </r>
       <r>   -0.6771    1.0000 </r>
       <r>   -0.5282    1.0000 </r>
       <r>   -0.4949    1.0000 </r>
       <r>   -0.4949    1.0000 </r>
       <r>   -0.1033    1.0000 </r>
       <r>    0.0044    1.0000 </r>
       <r>    0.0044    1.0000 </r>
       <r>    0.1014    1.0000 </r>
       <r>    0.1014    1.0000 </r>
       <r>    0.1231    1.0000 </r>
       <r>    0.8700    1.0000 </r>
       <r>    0.8904    1.0000 </r>
       <r>    0.8904    1.0000 </r>
       <r>    1.2731    1.0000 </r>
       <r>    1.2983    1.0000 </r>
       <r>    1.2983    1.0000 </r>
       <r>    1.4282    1.0000 </r>
       <r>    1.4704    1.0000 </r>
       <r>    1.4704    1.0000 </r>
       <r>    1.6108    1.0000 </r>
       <r>    1.6108    1.0000 </r>
       <r>    1.6399    1.0000 </r>
       <r>    1.6424    1.0000 </r>
       <r>    1.6526    1.0000 </r>
       <r>    1.6526    1.0000 </r>
       <r>    1.7581    1.0000 </r>
       <r>    1.8280    1.0000 </r>
       <r>    1.8280    1.0000 </r>
       <r>    1.9160    1.0000 </r>
       <r>    2.7076    1.0000 </r>
       <r>    2.8300    1.0000 </r>
       <r>    2.8300    1.0000 </r>
       <r>    3.0801    1.0000 </r>
       <r>    3.0801    1.0000 </r>
       <r>    3.1525    1.0000 </r>
       <r>    3.2834    1.0000 </r>
       <r>    3.3588    1.0000 </r>
       <r>    3.3588    1.0000 </r>
       <r>    3.4169    1.0000 </r>
       <r>    3.4169    1.0000 </r>
       <r>    3.4179    1.0000 </r>
       <r>    3.4545    1.0000 </r>
       <r>    3.4545    1.0000 </r>
       <r>    3.4559    1.0000 </r>
       <r>    3.4882    1.0000 </r>
       <r>    3.4999    1.0000 </r>
       <r>    3.4999    1.0000 </r>
       <r>    3.6554    1.0000 </r>
       <r>    3.6554    1.0000 </r>
       <r>    3.7126    1.0000 </r>
       <r>    3.8861    1.0000 </r>
       <r>    3.9873    1.0000 </r>
       <r>    3.9873    1.0000 </r>
       <r>    4.0599    1.0000 </r>
       <r>    4.0599    1.0000 </r>
       <r>    4.1291    1.0000 </r>
       <r>    4.4331    1.0000 </r>
       <r>    4.4331    1.0000 </r>
       <r>    4.4703    1.0000 </r>
       <r>    4.5302    1.0000 </r>
       <r>    4.5609    1.0000 </r>
       <r>    4.5609    1.0000 </r>
       <r>    4.6561    1.0000 </r>
       <r>    4.6561    1.0000 </r>
       <r>    4.8127    1.0000 </r>
       <r>    4.8127    1.0000 </r>
       <r>    4.8547    1.0000 </r>
       <r>    4.9547    1.0000 </r>
       <r>    5.0558    1.0000 </r>
       <r>    5.0558    1.0000 </r>
       <r>    5.6613    1.0000 </r>
       <r>    5.6613    1.0000 </r>
       <r>    6.5580    0.0000 </r>
       <r>    6.6994    0.0000 </r>
       <r>    6.6994    0.0000 </r>
       <r>    6.8262    0.0000 </r>
       <r>    7.0174    0.0000 </r>
       <r>    7.0174    0.0000 </r>
       <r>    7.0631    0.0000 </r>
       <r>    7.1018    0.0000 </r>
       <r>    7.1018    0.0000 </r>
       <r>    7.3280    0.0000 </r>
       <r>    7.5176    0.0000 </r>
       <r>    7.6812    0.0000 </r>
       <r>    7.6812    0.0000 </r>
       <r>    7.7472    0.0000 </r>
       <r>    7.8284    0.0000 </r>
       <r>    7.8284    0.0000 </r>
       <r>    7.8471    0.0000 </r>
       <r>    7.9027    0.0000 </r>
       <r>    7.9227    0.0000 </r>
       <r>    7.9227    0.0000 </r>
       <r>    7.9833    0.0000 </r>
       <r>    7.9833    0.0000 </r>
       <r>    8.0121    0.0000 </r>
       <r>    8.0345    0.0000 </r>
       <r>    8.0519    0.0000 </r>
       <r>    8.0519    0.0000 </r>
       <r>    8.1202    0.0000 </r>
       <r>    8.1446    0.0000 </r>
       <r>    8.1446    0.0000 </r>
       <r>    8.3925    0.0000 </r>
       <r>    8.5484    0.0000 </r>
       <r>    8.5484    0.0000 </r>
       <r>    8.5843    0.0000 </r>
       <r>    8.6226    0.0000 </r>
       <r>    8.6226    0.0000 </r>
       <r>    8.9752    0.0000 </r>
      </set>
      <set comment="kpoint 3">
       <r>   -6.6691    1.0000 </r>
       <r>   -5.7341    1.0000 </r>
       <r>   -5.4687    1.0000 </r>
       <r>   -4.8522    1.0000 </r>
       <r>   -4.8522    1.0000 </r>
       <r>   -4.7883    1.0000 </r>
       <r>   -4.7883    1.0000 </r>
       <r>   -4.7796    1.0000 </r>
       <r>   -4.3962    1.0000 </r>
       <r>   -4.0436    1.0000 </r>
       <r>   -4.0296    1.0000 </r>
       <r>   -4.0296    1.0000 </r>
       <r>   -3.9972    1.0000 </r>
       <r>   -3.9972    1.0000 </r>
       <r>   -3.8149    1.0000 </r>
       <r>   -3.3937    1.0000 </r>
       <r>   -3.0939    1.0000 </r>
       <r>   -3.0801    1.0000 </r>
       <r>   -3.0801    1.0000 </r>
       <r>   -3.0333    1.0000 </r>
       <r>   -3.0333    1.0000 </r>
       <r>   -2.9476    1.0000 </r>
       <r>   -2.8815    1.0000 </r>
       <r>   -2.8815    1.0000 </r>
       <r>   -2.8494    1.0000 </r>
       <r>   -2.8063    1.0000 </r>
       <r>   -2.8063    1.0000 </r>
       <r>   -1.4390    1.0000 </r>
       <r>   -1.1992    1.0000 </r>
       <r>   -1.1005    1.0000 </r>
       <r>   -1.1005    1.0000 </r>
       <r>   -0.9923    1.0000 </r>
       <r>   -0.9849    1.0000 </r>
[...]
        <r>  0.0000  0.0048  0.0000 </r>
       </set>
       <set comment="band 138">
        <r>  0.0000  0.0004  0.0000 </r>
        <r>  0.0011  0.0017  0.0000 </r>
        <r>  0.0011  0.0017  0.0000 </r>
        <r>  0.0014  0.0011  0.0000 </r>
        <r>  0.0025  0.0032  0.0000 </r>
        <r>  0.0011  0.0017  0.0000 </r>
        <r>  0.0014  0.0011  0.0000 </r>
        <r>  0.0011  0.0017  0.0000 </r>
        <r>  0.0000  0.0025  0.0000 </r>
        <r>  0.0011  0.0017  0.0000 </r>
        <r>  0.0025  0.0032  0.0000 </r>
        <r>  0.0014  0.0011  0.0000 </r>
        <r>  0.0025  0.0032  0.0000 </r>
        <r>  0.0025  0.0032  0.0000 </r>
        <r>  0.0003  0.0055  0.0000 </r>
        <r>  0.0011  0.0017  0.0000 </r>
        <r>  0.0000  0.0044  0.0000 </r>
        <r>  0.0003  0.0055  0.0000 </r>
        <r>  0.0011  0.0017  0.0000 </r>
        <r>  0.0014  0.0011  0.0000 </r>
        <r>  0.0000  0.0025  0.0000 </r>
        <r>  0.0011  0.0017  0.0000 </r>
        <r>  0.0003  0.0055  0.0000 </r>
        <r>  0.0000  0.0044  0.0000 </r>
        <r>  0.0000  0.0025  0.0000 </r>
        <r>  0.0003  0.0055  0.0000 </r>
        <r>  0.0000  0.0025  0.0000 </r>
        <r>  0.0008  0.0000  0.0000 </r>
        <r>  0.0020  0.0026  0.0000 </r>
        <r>  0.0020  0.0026  0.0000 </r>
        <r>  0.0007  0.0049  0.0000 </r>
        <r>  0.0001  0.0015  0.0000 </r>
        <r>  0.0020  0.0026  0.0000 </r>
        <r>  0.0007  0.0049  0.0000 </r>
        <r>  0.0020  0.0026  0.0000 </r>
        <r>  0.0001  0.0031  0.0000 </r>
        <r>  0.0020  0.0026  0.0000 </r>
        <r>  0.0001  0.0015  0.0000 </r>
        <r>  0.0007  0.0049  0.0000 </r>
        <r>  0.0001  0.0015  0.0000 </r>
        <r>  0.0001  0.0015  0.0000 </r>
        <r>  0.0006  0.0021  0.0000 </r>
        <r>  0.0020  0.0026  0.0000 </r>
        <r>  0.0022  0.0010  0.0000 </r>
        <r>  0.0006  0.0021  0.0000 </r>
        <r>  0.0020  0.0026  0.0000 </r>
        <r>  0.0007  0.0049  0.0000 </r>
        <r>  0.0001  0.0031  0.0000 </r>
        <r>  0.0020  0.0026  0.0000 </r>
        <r>  0.0006  0.0021  0.0000 </r>
        <r>  0.0022  0.0010  0.0000 </r>
        <r>  0.0001  0.0031  0.0000 </r>
        <r>  0.0006  0.0021  0.0000 </r>
        <r>  0.0001  0.0031  0.0000 </r>
       </set>
       <set comment="band 139">
        <r>  0.0000  0.0005  0.0000 </r>
        <r>  0.0007  0.0026  0.0000 </r>
        <r>  0.0007  0.0026  0.0000 </r>
        <r>  0.0015  0.0031  0.0000 </r>
        <r>  0.0018  0.0009  0.0000 </r>
        <r>  0.0007  0.0026  0.0000 </r>
        <r>  0.0015  0.0031  0.0000 </r>
        <r>  0.0007  0.0026  0.0000 </r>
        <r>  0.0002  0.0018  0.0000 </r>
        <r>  0.0007  0.0026  0.0000 </r>
        <r>  0.0018  0.0009  0.0000 </r>
        <r>  0.0015  0.0031  0.0000 </r>
        <r>  0.0018  0.0009  0.0000 </r>
        <r>  0.0018  0.0009  0.0000 </r>
        <r>  0.0000  0.0019  0.0000 </r>
        <r>  0.0007  0.0026  0.0000 </r>
        <r>  0.0000  0.0101  0.0000 </r>
        <r>  0.0000  0.0019  0.0000 </r>
        <r>  0.0007  0.0026  0.0000 </r>
        <r>  0.0015  0.0031  0.0000 </r>
        <r>  0.0002  0.0018  0.0000 </r>
        <r>  0.0007  0.0026  0.0000 </r>
        <r>  0.0000  0.0019  0.0000 </r>
        <r>  0.0000  0.0101  0.0000 </r>
        <r>  0.0002  0.0018  0.0000 </r>
        <r>  0.0000  0.0019  0.0000 </r>
        <r>  0.0002  0.0018  0.0000 </r>
        <r>  0.0000  0.0043  0.0000 </r>
        <r>  0.0001  0.0026  0.0000 </r>
        <r>  0.0001  0.0026  0.0000 </r>
        <r>  0.0003  0.0009  0.0000 </r>
        <r>  0.0000  0.0067  0.0000 </r>
        <r>  0.0001  0.0026  0.0000 </r>
        <r>  0.0003  0.0009  0.0000 </r>
        <r>  0.0001  0.0026  0.0000 </r>
        <r>  0.0007  0.0022  0.0000 </r>
        <r>  0.0001  0.0026  0.0000 </r>
        <r>  0.0000  0.0067  0.0000 </r>
        <r>  0.0003  0.0009  0.0000 </r>
        <r>  0.0000  0.0067  0.0000 </r>
        <r>  0.0000  0.0067  0.0000 </r>
        <r>  0.0018  0.0047  0.0000 </r>
        <r>  0.0001  0.0026  0.0000 </r>
        <r>  0.0009  0.0011  0.0000 </r>
        <r>  0.0018  0.0047  0.0000 </r>
        <r>  0.0001  0.0026  0.0000 </r>
        <r>  0.0003  0.0009  0.0000 </r>
        <r>  0.0007  0.0022  0.0000 </r>
        <r>  0.0001  0.0026  0.0000 </r>
        <r>  0.0018  0.0047  0.0000 </r>
        <r>  0.0009  0.0011  0.0000 </r>
        <r>  0.0007  0.0022  0.0000 </r>
        <r>  0.0018  0.0047  0.0000 </r>
        <r>  0.0007  0.0022  0.0000 </r>
       </set>
       <set comment="band 140">
        <r>  0.0002  0.0000  0.0000 </r>
        <r>  0.0002  0.0037  0.0000 </r>
        <r>  0.0002  0.0037  0.0000 </r>
        <r>  0.0001  0.0043  0.0000 </r>
        <r>  0.0000  0.0031  0.0000 </r>
        <r>  0.0002  0.0037  0.0000 </r>
        <r>  0.0001  0.0043  0.0000 </r>
        <r>  0.0002  0.0037  0.0000 </r>
        <r>  0.0000  0.0047  0.0000 </r>
        <r>  0.0002  0.0037  0.0000 </r>
        <r>  0.0000  0.0031  0.0000 </r>
        <r>  0.0001  0.0043  0.0000 </r>
        <r>  0.0000  0.0031  0.0000 </r>
        <r>  0.0000  0.0031  0.0000 </r>
        <r>  0.0001  0.0030  0.0000 </r>
        <r>  0.0002  0.0037  0.0000 </r>
        <r>  0.0008  0.0001  0.0000 </r>
        <r>  0.0001  0.0030  0.0000 </r>
        <r>  0.0002  0.0037  0.0000 </r>
        <r>  0.0001  0.0043  0.0000 </r>
        <r>  0.0000  0.0047  0.0000 </r>
        <r>  0.0002  0.0037  0.0000 </r>
        <r>  0.0001  0.0030  0.0000 </r>
        <r>  0.0008  0.0001  0.0000 </r>
        <r>  0.0000  0.0047  0.0000 </r>
        <r>  0.0001  0.0030  0.0000 </r>
        <r>  0.0000  0.0047  0.0000 </r>
        <r>  0.0000  0.0023  0.0000 </r>
        <r>  0.0007  0.0019  0.0000 </r>
        <r>  0.0007  0.0019  0.0000 </r>
        <r>  0.0010  0.0032  0.0000 </r>
        <r>  0.0001  0.0030  0.0000 </r>
        <r>  0.0007  0.0019  0.0000 </r>
        <r>  0.0010  0.0032  0.0000 </r>
        <r>  0.0007  0.0019  0.0000 </r>
        <r>  0.0000  0.0041  0.0000 </r>
        <r>  0.0007  0.0019  0.0000 </r>
        <r>  0.0001  0.0030  0.0000 </r>
        <r>  0.0010  0.0032  0.0000 </r>
        <r>  0.0001  0.0030  0.0000 </r>
        <r>  0.0001  0.0030  0.0000 </r>
        <r>  0.0002  0.0026  0.0000 </r>
        <r>  0.0007  0.0019  0.0000 </r>
        <r>  0.0000  0.0032  0.0000 </r>
        <r>  0.0002  0.0026  0.0000 </r>
        <r>  0.0007  0.0019  0.0000 </r>
        <r>  0.0010  0.0032  0.0000 </r>
        <r>  0.0000  0.0041  0.0000 </r>
        <r>  0.0007  0.0019  0.0000 </r>
        <r>  0.0002  0.0026  0.0000 </r>
        <r>  0.0000  0.0032  0.0000 </r>
        <r>  0.0000  0.0041  0.0000 </r>
        <r>  0.0002  0.0026  0.0000 </r>
        <r>  0.0000  0.0041  0.0000 </r>
       </set>
       <set comment="band 141">
        <r>  0.0000  0.0037  0.0000 </r>
        <r>  0.0018  0.0032  0.0000 </r>
        <r>  0.0018  0.0032  0.0000 </r>
        <r>  0.0000  0.0023  0.0000 </r>
        <r>  0.0003  0.0035  0.0000 </r>
        <r>  0.0018  0.0032  0.0000 </r>
        <r>  0.0000  0.0023  0.0000 </r>
        <r>  0.0018  0.0032  0.0000 </r>
        <r>  0.0000  0.0108  0.0000 </r>
        <r>  0.0018  0.0032  0.0000 </r>
        <r>  0.0003  0.0035  0.0000 </r>
        <r>  0.0000  0.0023  0.0000 </r>
        <r>  0.0003  0.0035  0.0000 </r>
        <r>  0.0003  0.0035  0.0000 </r>
        <r>  0.0000  0.0004  0.0000 </r>
        <r>  0.0018  0.0032  0.0000 </r>
        <r>  0.0004  0.0041  0.0000 </r>
        <r>  0.0000  0.0004  0.0000 </r>
        <r>  0.0018  0.0032  0.0000 </r>
        <r>  0.0000  0.0023  0.0000 </r>
        <r>  0.0000  0.0108  0.0000 </r>
        <r>  0.0018  0.0032  0.0000 </r>
        <r>  0.0000  0.0004  0.0000 </r>
        <r>  0.0004  0.0041  0.0000 </r>
        <r>  0.0000  0.0108  0.0000 </r>
        <r>  0.0000  0.0004  0.0000 </r>
        <r>  0.0000  0.0108  0.0000 </r>
        <r>  0.0000  0.0067  0.0000 </r>
        <r>  0.0004  0.0023  0.0000 </r>
        <r>  0.0004  0.0023  0.0000 </r>
        <r>  0.0032  0.0070  0.0000 </r>
        <r>  0.0000  0.0070  0.0000 </r>
        <r>  0.0004  0.0023  0.0000 </r>
        <r>  0.0032  0.0070  0.0000 </r>
        <r>  0.0004  0.0023  0.0000 </r>
        <r>  0.0015  0.0017  0.0000 </r>
        <r>  0.0004  0.0023  0.0000 </r>
        <r>  0.0000  0.0070  0.0000 </r>
        <r>  0.0032  0.0070  0.0000 </r>
        <r>  0.0000  0.0070  0.0000 </r>
        <r>  0.0000  0.0070  0.0000 </r>
        <r>  0.0012  0.0027  0.0000 </r>
        <r>  0.0004  0.0023  0.0000 </r>
        <r>  0.0000  0.0014  0.0000 </r>
        <r>  0.0012  0.0027  0.0000 </r>
        <r>  0.0004  0.0023  0.0000 </r>
        <r>  0.0032  0.0070  0.0000 </r>
        <r>  0.0015  0.0017  0.0000 </r>
        <r>  0.0004  0.0023  0.0000 </r>
        <r>  0.0012  0.0027  0.0000 </r>
        <r>  0.0000  0.0014  0.0000 </r>
        <r>  0.0015  0.0017  0.0000 </r>
        <r>  0.0012  0.0027  0.0000 </r>
        <r>  0.0015  0.0017  0.0000 </r>
       </set>
       <set comment="band 142">
        <r>  0.0000  0.0015  0.0000 </r>
        <r>  0.0006  0.0033  0.0000 </r>
        <r>  0.0006  0.0033  0.0000 </r>
        <r>  0.0003  0.0037  0.0000 </r>
        <r>  0.0000  0.0088  0.0000 </r>
        <r>  0.0006  0.0033  0.0000 </r>
        <r>  0.0003  0.0037  0.0000 </r>
        <r>  0.0006  0.0033  0.0000 </r>
        <r>  0.0030  0.0065  0.0000 </r>
        <r>  0.0006  0.0033  0.0000 </r>
        <r>  0.0000  0.0088  0.0000 </r>
        <r>  0.0003  0.0037  0.0000 </r>
        <r>  0.0000  0.0088  0.0000 </r>
        <r>  0.0000  0.0088  0.0000 </r>
        <r>  0.0000  0.0012  0.0000 </r>
        <r>  0.0006  0.0033  0.0000 </r>
        <r>  0.0000  0.0052  0.0000 </r>
        <r>  0.0000  0.0012  0.0000 </r>
        <r>  0.0006  0.0033  0.0000 </r>
        <r>  0.0003  0.0037  0.0000 </r>
        <r>  0.0030  0.0065  0.0000 </r>
        <r>  0.0006  0.0033  0.0000 </r>
        <r>  0.0000  0.0012  0.0000 </r>
        <r>  0.0000  0.0052  0.0000 </r>
        <r>  0.0030  0.0065  0.0000 </r>
        <r>  0.0000  0.0012  0.0000 </r>
        <r>  0.0030  0.0065  0.0000 </r>
        <r>  0.0000  0.0040  0.0000 </r>
        <r>  0.0008  0.0014  0.0000 </r>
        <r>  0.0008  0.0014  0.0000 </r>
        <r>  0.0001  0.0087  0.0000 </r>
        <r>  0.0004  0.0028  0.0000 </r>
        <r>  0.0008  0.0014  0.0000 </r>
        <r>  0.0001  0.0087  0.0000 </r>
        <r>  0.0008  0.0014  0.0000 </r>
        <r>  0.0000  0.0034  0.0000 </r>
        <r>  0.0008  0.0014  0.0000 </r>
        <r>  0.0004  0.0028  0.0000 </r>
        <r>  0.0001  0.0087  0.0000 </r>
        <r>  0.0004  0.0028  0.0000 </r>
        <r>  0.0004  0.0028  0.0000 </r>
        <r>  0.0051  0.0025  0.0000 </r>
        <r>  0.0008  0.0014  0.0000 </r>
        <r>  0.0001  0.0023  0.0000 </r>
        <r>  0.0051  0.0025  0.0000 </r>
        <r>  0.0008  0.0014  0.0000 </r>
        <r>  0.0001  0.0087  0.0000 </r>
        <r>  0.0000  0.0034  0.0000 </r>
        <r>  0.0008  0.0014  0.0000 </r>
        <r>  0.0051  0.0025  0.0000 </r>
        <r>  0.0001  0.0023  0.0000 </r>
        <r>  0.0000  0.0034  0.0000 </r>
        <r>  0.0051  0.0025  0.0000 </r>
        <r>  0.0000  0.0034  0.0000 </r>
       </set>
       <set comment="band 143">
        <r>  0.0022  0.0000  0.0000 </r>
        <r>  0.0020  0.0047  0.0000 </r>
        <r>  0.0020  0.0047  0.0000 </r>
        <r>  0.0010  0.0009  0.0000 </r>
        <r>  0.0020  0.0043  0.0000 </r>
        <r>  0.0020  0.0047  0.0000 </r>
        <r>  0.0010  0.0010  0.0000 </r>
        <r>  0.0020  0.0047  0.0000 </r>
        <r>  0.0018  0.0005  0.0000 </r>
        <r>  0.0020  0.0047  0.0000 </r>
        <r>  0.0020  0.0043  0.0000 </r>
        <r>  0.0010  0.0009  0.0000 </r>
        <r>  0.0020  0.0043  0.0000 </r>
        <r>  0.0020  0.0043  0.0000 </r>
        <r>  0.0004  0.0014  0.0000 </r>
        <r>  0.0020  0.0047  0.0000 </r>
        <r>  0.0048  0.0000  0.0000 </r>
        <r>  0.0004  0.0014  0.0000 </r>
        <r>  0.0020  0.0047  0.0000 </r>
        <r>  0.0010  0.0009  0.0000 </r>
        <r>  0.0018  0.0005  0.0000 </r>
        <r>  0.0020  0.0047  0.0000 </r>
        <r>  0.0004  0.0014  0.0000 </r>
        <r>  0.0048  0.0000  0.0000 </r>
        <r>  0.0018  0.0005  0.0000 </r>
        <r>  0.0004  0.0014  0.0000 </r>
        <r>  0.0018  0.0005  0.0000 </r>
        <r>  0.0000  0.0002  0.0000 </r>
        <r>  0.0000  0.0047  0.0000 </r>
        <r>  0.0000  0.0047  0.0000 </r>
        <r>  0.0019  0.0051  0.0000 </r>
        <r>  0.0000  0.0024  0.0000 </r>
        <r>  0.0000  0.0047  0.0000 </r>
        <r>  0.0019  0.0051  0.0000 </r>
        <r>  0.0000  0.0047  0.0000 </r>
        <r>  0.0000  0.0039  0.0000 </r>
        <r>  0.0000  0.0047  0.0000 </r>
        <r>  0.0000  0.0023  0.0000 </r>
        <r>  0.0019  0.0051  0.0000 </r>
        <r>  0.0000  0.0023  0.0000 </r>
        <r>  0.0000  0.0023  0.0000 </r>
        <r>  0.0002  0.0158  0.0000 </r>
        <r>  0.0000  0.0047  0.0000 </r>
        <r>  0.0000  0.0002  0.0000 </r>
        <r>  0.0002  0.0158  0.0000 </r>
        <r>  0.0000  0.0048  0.0000 </r>
        <r>  0.0019  0.0051  0.0000 </r>
        <r>  0.0000  0.0039  0.0000 </r>
        <r>  0.0000  0.0047  0.0000 </r>
        <r>  0.0002  0.0158  0.0000 </r>
        <r>  0.0000  0.0002  0.0000 </r>
        <r>  0.0000  0.0039  0.0000 </r>
        <r>  0.0002  0.0158  0.0000 </r>
        <r>  0.0000  0.0039  0.0000 </r>
       </set>
       <set comment="band 144">
        <r>  0.0000  0.0000  0.0000 </r>
        <r>  0.0005  0.0071  0.0000 </r>
        <r>  0.0005  0.0071  0.0000 </r>
        <r>  0.0012  0.0035  0.0000 </r>
        <r>  0.0010  0.0023  0.0000 </r>
        <r>  0.0005  0.0071  0.0000 </r>
        <r>  0.0012  0.0035  0.0000 </r>
        <r>  0.0005  0.0071  0.0000 </r>
        <r>  0.0020  0.0030  0.0000 </r>
        <r>  0.0005  0.0071  0.0000 </r>
        <r>  0.0011  0.0023  0.0000 </r>
        <r>  0.0011  0.0035  0.0000 </r>
        <r>  0.0010  0.0023  0.0000 </r>
        <r>  0.0011  0.0023  0.0000 </r>
        <r>  0.0004  0.0060  0.0000 </r>
        <r>  0.0005  0.0071  0.0000 </r>
        <r>  0.0000  0.0002  0.0000 </r>
        <r>  0.0004  0.0060  0.0000 </r>
        <r>  0.0005  0.0071  0.0000 </r>
        <r>  0.0012  0.0035  0.0000 </r>
        <r>  0.0020  0.0030  0.0000 </r>
        <r>  0.0005  0.0071  0.0000 </r>
        <r>  0.0004  0.0060  0.0000 </r>
        <r>  0.0000  0.0002  0.0000 </r>
        <r>  0.0020  0.0030  0.0000 </r>
        <r>  0.0004  0.0060  0.0000 </r>
        <r>  0.0020  0.0030  0.0000 </r>
        <r>  0.0020  0.0000  0.0000 </r>
        <r>  0.0003  0.0069  0.0000 </r>
        <r>  0.0003  0.0069  0.0000 </r>
        <r>  0.0005  0.0025  0.0000 </r>
        <r>  0.0010  0.0038  0.0000 </r>
        <r>  0.0003  0.0069  0.0000 </r>
        <r>  0.0005  0.0025  0.0000 </r>
        <r>  0.0003  0.0069  0.0000 </r>
        <r>  0.0008  0.0032  0.0000 </r>
        <r>  0.0003  0.0069  0.0000 </r>
        <r>  0.0010  0.0037  0.0000 </r>
        <r>  0.0005  0.0025  0.0000 </r>
        <r>  0.0010  0.0038  0.0000 </r>
        <r>  0.0010  0.0037  0.0000 </r>
        <r>  0.0001  0.0068  0.0000 </r>
        <r>  0.0003  0.0070  0.0000 </r>
        <r>  0.0037  0.0000  0.0000 </r>
        <r>  0.0001  0.0068  0.0000 </r>
        <r>  0.0003  0.0069  0.0000 </r>
        <r>  0.0005  0.0025  0.0000 </r>
        <r>  0.0008  0.0031  0.0000 </r>
        <r>  0.0003  0.0069  0.0000 </r>
        <r>  0.0001  0.0068  0.0000 </r>
        <r>  0.0037  0.0000  0.0000 </r>
        <r>  0.0008  0.0031  0.0000 </r>
        <r>  0.0001  0.0067  0.0000 </r>
        <r>  0.0008  0.0031  0.0000 </r>
       </set>
      </set>
     </set>
    </set>
   </array>
  </projected>
 </calculation>
 <structure name="finalpos" >
  <crystal>
   <varray name="basis" >
    <v>       9.97646553       0.00000000       5.75991507 </v>
    <v>       3.32548851       9.40590192       5.75991507 </v>
    <v>       0.00000000       0.00000000      11.51983014 </v>
   </varray>
   <i name="volume">   1080.99386112 </i>
   <varray name="rec_basis" >
    <v>       0.10023590      -0.03543874       0.00000000 </v>
    <v>       0.00000000       0.10631623       0.00000000 </v>
    <v>      -0.05011795      -0.03543874       0.08680684 </v>
   </varray>
  </crystal>
  <varray name="positions" >
   <v>       0.29166667       0.29166667       0.29166667 </v>
   <v>       0.29062946       0.29062946       0.62602920 </v>
   <v>       0.29062946       0.29062946       0.95937854 </v>
   <v>       0.29062946       0.62602920       0.29062946 </v>
   <v>       0.29108792       0.62519292       0.62519292 </v>
   <v>       0.29062946       0.62602920       0.95937854 </v>
   <v>       0.29062946       0.95937854       0.29062946 </v>
   <v>       0.29062946       0.95937854       0.62602920 </v>
   <v>       0.29129290       0.95845792       0.95845792 </v>
   <v>       0.62602920       0.29062946       0.29062946 </v>
   <v>       0.62519292       0.29108792       0.62519292 </v>
   <v>       0.62602920       0.29062946       0.95937854 </v>
   <v>       0.62519292       0.62519292       0.29108792 </v>
   <v>       0.62519292       0.62519292       0.62519292 </v>
   <v>       0.62510731       0.62510731       0.95822603 </v>
   <v>       0.62602920       0.95937854       0.29062946 </v>
   <v>       0.62510731       0.95822603       0.62510731 </v>
   <v>       0.62510731       0.95822603       0.95822603 </v>
   <v>       0.95937854       0.29062946       0.29062946 </v>
   <v>       0.95937854       0.29062946       0.62602920 </v>
   <v>       0.95845792       0.29129290       0.95845792 </v>
   <v>       0.95937854       0.62602920       0.29062946 </v>
   <v>       0.95822603       0.62510731       0.62510731 </v>
   <v>       0.95822603       0.62510731       0.95822603 </v>
   <v>       0.95845792       0.95845792       0.29129290 </v>
   <v>       0.95822603       0.95822603       0.62510731 </v>
   <v>       0.95845792       0.95845792       0.95845792 </v>
   <v>       0.04166667       0.04166667       0.04166667 </v>
   <v>       0.04124423       0.04124423       0.37558144 </v>
   <v>       0.04124423       0.04124423       0.70859677 </v>
   <v>       0.04124423       0.37558144       0.04124423 </v>
   <v>       0.04182219       0.37494816       0.37494816 </v>
   <v>       0.04124423       0.37558144       0.70859677 </v>
   <v>       0.04124423       0.70859677       0.04124423 </v>
   <v>       0.04124423       0.70859677       0.37558144 </v>
   <v>       0.04153115       0.70837851       0.70837851 </v>
   <v>       0.37558144       0.04124423       0.04124423 </v>
   <v>       0.37494816       0.04182219       0.37494816 </v>
   <v>       0.37558144       0.04124423       0.70859677 </v>
   <v>       0.37494816       0.37494816       0.04182219 </v>
   <v>       0.37494816       0.37494816       0.37494816 </v>
   <v>       0.37576709       0.37576709       0.70756624 </v>
   <v>       0.37558144       0.70859677       0.04124423 </v>
   <v>       0.37576709       0.70756624       0.37576709 </v>
   <v>       0.37576709       0.70756624       0.70756624 </v>
   <v>       0.70859677       0.04124423       0.04124423 </v>
   <v>       0.70859677       0.04124423       0.37558144 </v>
   <v>       0.70837851       0.04153115       0.70837851 </v>
   <v>       0.70859677       0.37558144       0.04124423 </v>
   <v>       0.70756624       0.37576709       0.37576709 </v>
   <v>       0.70756624       0.37576709       0.70756624 </v>
   <v>       0.70837851       0.70837851       0.04153115 </v>
   <v>       0.70756624       0.70756624       0.37576709 </v>
   <v>       0.70837851       0.70837851       0.70837851 </v>
  </varray>
 </structure>
</modeling>
