 vasp.5.4.4.18Apr17-6-g9f103f2a35 (build Jun 19 2019 10:34:07) complex          
  
 executed on               LB-5.4 date 2023.05.15  18:42:44
 running on   96 total cores
 distrk:  each k-point on   24 cores,    4 groups
 distr:  one band on NCORES_PER_BAND=   1 cores,   24 groups


--------------------------------------------------------------------------------------------------------


 INCAR:
 POTCAR:    PAW_PBE Si 05Jan2001                  

 ----------------------------------------------------------------------------- 
|                                                                             |
|           W    W    AA    RRRRR   N    N  II  N    N   GGGG   !!!           |
|           W    W   A  A   R    R  NN   N  II  NN   N  G    G  !!!           |
|           W    W  A    A  R    R  N N  N  II  N N  N  G       !!!           |
|           W WW W  AAAAAA  RRRRR   N  N N  II  N  N N  G  GGG   !            |
|           WW  WW  A    A  R   R   N   NN  II  N   NN  G    G                |
|           W    W  A    A  R    R  N    N  II  N    N   GGGG   !!!           |
|                                                                             |
|      For optimal performance we recommend to set                            |
|        NCORE= 4 - approx SQRT( number of cores)                             |
|      NCORE specifies how many cores store one orbital (NPAR=cpu/NCORE).     |
|      This setting can  greatly improve the performance of VASP for DFT.     |
|      The default,   NCORE=1            might be grossly inefficient         |
|      on modern multi-core architectures or massively parallel machines.     |
|      Do your own testing !!!!                                               |
|      Unfortunately you need to use the default for GW and RPA calculations. |
|      (for HF NCORE is supported but not extensively tested yet)             |
|                                                                             |
 ----------------------------------------------------------------------------- 


 ----------------------------------------------------------------------------- 
|                                                                             |
|           W    W    AA    RRRRR   N    N  II  N    N   GGGG   !!!           |
|           W    W   A  A   R    R  NN   N  II  NN   N  G    G  !!!           |
|           W    W  A    A  R    R  N N  N  II  N N  N  G       !!!           |
|           W WW W  AAAAAA  RRRRR   N  N N  II  N  N N  G  GGG   !            |
|           WW  WW  A    A  R   R   N   NN  II  N   NN  G    G                |
|           W    W  A    A  R    R  N    N  II  N    N   GGGG   !!!           |
|                                                                             |
|      You have enabled k-point parallelism (KPAR>1).                         |
|      This developmental code was originally  written by Paul Kent at ORNL,  |
|      and carefully double checked in Vienna.                                |
|      GW as well as linear response parallelism added by Martijn Marsman     |
|      and Georg Kresse.                                                      |
|      Carefully verify results versus KPAR=1.                                |
|      Report problems to Paul Kent and Vienna.                               |
|                                                                             |
 ----------------------------------------------------------------------------- 

 POTCAR:    PAW_PBE Si 05Jan2001                  
   VRHFIN =Si: s2p2                                                             
   LEXCH  = PE                                                                  
   EATOM  =   103.0669 eV,    7.5752 Ry                                         
                                                                                
   TITEL  = PAW_PBE Si 05Jan2001                                                
   LULTRA =        F    use ultrasoft PP ?                                      
   IUNSCR =        1    unscreen: 0-lin 1-nonlin 2-no                           
   RPACOR =    1.500    partial core radius                                     
   POMASS =   28.085; ZVAL   =    4.000    mass and valenz                      
   RCORE  =    1.900    outmost cutoff radius                                   
   RWIGS  =    2.480; RWIGS  =    1.312    wigner-seitz radius (au A)           
   ENMAX  =  245.345; ENMIN  =  184.009 eV                                      
   ICORE  =        2    local potential                                         
   LCOR   =        T    correct aug charges                                     
   LPAW   =        T    paw PP                                                  
   EAUG   =  322.069                                                            
   DEXC   =    0.000                                                            
   RMAX   =    1.950    core radius for proj-oper                               
   RAUG   =    1.300    factor for augmentation sphere                          
   RDEP   =    1.993    radius for radial grids                                 
   RDEPT  =    1.837    core radius for aug-charge                              
                                                                                
   Atomic configuration                                                         
    6 entries                                                                   
     n  l   j            E        occ.                                          
     1  0  0.50     -1785.8828   2.0000                                         
     2  0  0.50      -139.4969   2.0000                                         
     2  1  1.50       -95.5546   6.0000                                         
     3  0  0.50       -10.8127   2.0000                                         
     3  1  0.50        -4.0811   2.0000                                         
     3  2  1.50        -4.0817   0.0000                                         
   Description                                                                  
     l       E           TYP  RCUT    TYP  RCUT                                 
     0    -10.8127223     23  1.900                                             
     0     -7.6451159     23  1.900                                             
     1     -4.0811372     23  1.900                                             
     1      2.4879257     23  1.900                                             
     2     -4.0817478      7  1.900                                             
  local pseudopotential read in
  partial core-charges read in
  partial kinetic energy density read in
  atomic valenz-charges read in
  non local Contribution for L=           0  read in
    real space projection operators read in
  non local Contribution for L=           0  read in
    real space projection operators read in
  non local Contribution for L=           1  read in
    real space projection operators read in
  non local Contribution for L=           1  read in
    real space projection operators read in
    PAW grid and wavefunctions read in
 
   number of l-projection  operators is LMAX  =           4
   number of lm-projection operators is LMMAX =           8
 

 ----------------------------------------------------------------------------- 
|                                                                             |
|  ADVICE TO THIS USER RUNNING 'VASP/VAMP'   (HEAR YOUR MASTER'S VOICE ...):  |
|                                                                             |
|      You have a (more or less) 'large supercell' and for larger cells       |
|      it might be more efficient to use real space projection opertators     |
|      So try LREAL= Auto  in the INCAR   file.                               |
|      Mind:          For very  accurate calculation you might also keep the  |
|      reciprocal projection scheme          (i.e. LREAL=.FALSE.)             |
|                                                                             |
 ----------------------------------------------------------------------------- 

  PAW_PBE Si 05Jan2001                  :
 energy of atom  1       EATOM= -103.0669
 kinetic energy error for atom=    0.0004 (will be added to EATOM!!)
 
 
 POSCAR: Si55                                    
  positions in direct lattice
  velocities in cartesian coordinates
 exchange correlation table for  LEXCH =        8
   RHO(1)=    0.500       N(1)  =     2000
   RHO(2)=  100.500       N(2)  =     4000
 


--------------------------------------------------------------------------------------------------------


 ion  position               nearest neighbor table
   1  0.292  0.292  0.292-  32 2.35  40 2.35  41 2.35  38 2.35
   2  0.292  0.292  0.625-  33 2.35  41 2.35  42 2.35  39 2.35
   3  0.292  0.292  0.958-  31 2.35  40 2.35  42 2.35  37 2.35
   4  0.292  0.625  0.292-  35 2.35  43 2.35  44 2.35  41 2.35
   5  0.292  0.625  0.625-  36 2.35  55 2.35  44 2.35  45 2.35  42 2.35
   6  0.292  0.625  0.958-  34 2.35  43 2.35  45 2.35  40 2.35
   7  0.292  0.958  0.292-  29 2.35  37 2.35  38 2.35  44 2.35
   8  0.292  0.958  0.625-  30 2.35  38 2.35  39 2.35  45 2.35
   9  0.292  0.958  0.958-  28 2.35  37 2.35  39 2.35  43 2.35
  10  0.625  0.292  0.292-  41 2.35  49 2.35  50 2.35  47 2.35
  11  0.625  0.292  0.625-  42 2.35  55 2.35  50 2.35  51 2.35  48 2.35
  12  0.625  0.292  0.958-  40 2.35  49 2.35  51 2.35  46 2.35
  13  0.625  0.625  0.292-  44 2.35  55 2.35  52 2.35  53 2.35  50 2.35
  14  0.625  0.625  0.625-  45 2.35  55 2.35  53 2.35  54 2.35  51 2.35
  15  0.625  0.625  0.958-  43 2.35  52 2.35  54 2.35  49 2.35
  16  0.625  0.958  0.292-  38 2.35  46 2.35  47 2.35  53 2.35
  17  0.625  0.958  0.625-  39 2.35  47 2.35  48 2.35  54 2.35
  18  0.625  0.958  0.958-  37 2.35  46 2.35  48 2.35  52 2.35
  19  0.958  0.292  0.292-  50 2.35  32 2.35  31 2.35  29 2.35
  20  0.958  0.292  0.625-  51 2.35  33 2.35  32 2.35  30 2.35
  21  0.958  0.292  0.958-  49 2.35  31 2.35  33 2.35  28 2.35
  22  0.958  0.625  0.292-  53 2.35  35 2.35  34 2.35  32 2.35
  23  0.958  0.625  0.625-  54 2.35  36 2.35  35 2.35  33 2.35
  24  0.958  0.625  0.958-  52 2.35  34 2.35  36 2.35  31 2.35
  25  0.958  0.958  0.292-  47 2.35  29 2.35  28 2.35  35 2.35
  26  0.958  0.958  0.625-  48 2.35  30 2.35  29 2.35  36 2.35
  27  0.958  0.958  0.958-  46 2.35  28 2.35  30 2.35  34 2.35
  28  0.042  0.042  0.042-   9 2.35  27 2.35  25 2.35  21 2.35
  29  0.042  0.042  0.375-   7 2.35  25 2.35  26 2.35  19 2.35
  30  0.042  0.042  0.708-   8 2.35  26 2.35  27 2.35  20 2.35
  31  0.042  0.375  0.042-   3 2.35  21 2.35  19 2.35  24 2.35
  32  0.042  0.375  0.375-   1 2.35  19 2.35  20 2.35  22 2.35
  33  0.042  0.375  0.708-   2 2.35  20 2.35  21 2.35  23 2.35
  34  0.042  0.708  0.042-   6 2.35  24 2.35  22 2.35  27 2.35
  35  0.042  0.708  0.375-   4 2.35  22 2.35  23 2.35  25 2.35
  36  0.042  0.708  0.708-   5 2.35  23 2.35  24 2.35  26 2.35
  37  0.375  0.042  0.042-  18 2.35   9 2.35   7 2.35   3 2.35
  38  0.375  0.042  0.375-  16 2.35   8 2.35   7 2.35   1 2.35
  39  0.375  0.042  0.708-  17 2.35   9 2.35   8 2.35   2 2.35
  40  0.375  0.375  0.042-  12 2.35   3 2.35   1 2.35   6 2.35
  41  0.375  0.375  0.375-  10 2.35   2 2.35   1 2.35   4 2.35
  42  0.375  0.375  0.708-  11 2.35   3 2.35   2 2.35   5 2.35  55 2.72
  43  0.375  0.708  0.042-  15 2.35   6 2.35   4 2.35   9 2.35
  44  0.375  0.708  0.375-  13 2.35   5 2.35   4 2.35   7 2.35  55 2.72
  45  0.375  0.708  0.708-  14 2.35   6 2.35   5 2.35   8 2.35  55 2.72
  46  0.708  0.042  0.042-  27 2.35  18 2.35  16 2.35  12 2.35
  47  0.708  0.042  0.375-  25 2.35  17 2.35  16 2.35  10 2.35
  48  0.708  0.042  0.708-  26 2.35  18 2.35  17 2.35  11 2.35
  49  0.708  0.375  0.042-  21 2.35  12 2.35  10 2.35  15 2.35
  50  0.708  0.375  0.375-  19 2.35  11 2.35  10 2.35  13 2.35  55 2.72
  51  0.708  0.375  0.708-  20 2.35  12 2.35  11 2.35  14 2.35  55 2.72
  52  0.708  0.708  0.042-  24 2.35  15 2.35  13 2.35  18 2.35
  53  0.708  0.708  0.375-  22 2.35  14 2.35  13 2.35  16 2.35  55 2.72
  54  0.708  0.708  0.708-  23 2.35  15 2.35  14 2.35  17 2.35
  55  0.542  0.542  0.542-  14 2.35   5 2.35  13 2.35  11 2.35  53 2.72  42 2.72  51 2.72  50 2.72
                            45 2.72  44 2.72
 
  LATTYP: Found a face centered cubic cell.
 ALAT       =    16.2915000202
  
  Lattice vectors:
  
 A1 = (   9.9764655300,   0.0000000000,   5.7599150700)
 A2 = (   3.3254885100,   9.4059019200,   5.7599150700)
 A3 = (   0.0000000000,   0.0000000000,  11.5198301400)


Analysis of symmetry for initial positions (statically):
=====================================================================
 Subroutine PRICEL returns:
 Original cell was already a primitive cell.
 

 Routine SETGRP: Setting up the symmetry group for a 
 face centered cubic supercell.


 Subroutine GETGRP returns: Found 24 space group operations
 (whereof  6 operations were pure point group operations)
 out of a pool of 48 trial point group operations.


The static configuration has the point symmetry C_3v.
 The point group associated with its full space group is T_d .


Analysis of symmetry for dynamics (positions and initial velocities):
=====================================================================
 Subroutine PRICEL returns:
 Original cell was already a primitive cell.
 

 Routine SETGRP: Setting up the symmetry group for a 
 face centered cubic supercell.


 Subroutine GETGRP returns: Found 24 space group operations
 (whereof  6 operations were pure point group operations)
 out of a pool of 48 trial point group operations.


The dynamic configuration has the point symmetry C_3v.
 The point group associated with its full space group is T_d .


 Subroutine INISYM returns: Found 24 space group operations
 (whereof  6 operations are pure point group operations),
 and found     1 'primitive' translations

 
 
 KPOINTS: Automatic kpoint scheme                 

Automatic generation of k-mesh.
Space group operators:
 irot       det(A)        alpha          n_x          n_y          n_z        tau_x        tau_y        tau_z
    1     1.000000     0.000000     1.000000     0.000000     0.000000     0.000000     0.000000     0.000000
    2     1.000000   120.000000    -0.471405    -0.333333    -0.816497     0.000000     0.000000     0.000000
    3     1.000000   120.000000     0.471405     0.333333     0.816497     0.000000     0.000000     0.000000
    4    -1.000000   180.000000     0.288675     0.816497    -0.500000     0.000000     0.000000     0.000000
    5    -1.000000   180.000000     0.577350    -0.816497     0.000000     0.000000     0.000000     0.000000
    6    -1.000000   180.000000     0.866025     0.000000    -0.500000     0.000000     0.000000     0.000000
    7    -1.000000    90.000000    -0.816497    -0.577350    -0.000000     0.166667     0.000000     0.000000
    8    -1.000000   180.000000     0.866025     0.000000     0.500000     0.166667     0.000000     0.000000
    9    -1.000000    90.000000     0.408248    -0.577350     0.707107     0.166667     0.000000     0.000000
   10     1.000000   180.000000     0.816497     0.577350     0.000000     0.000000     0.000000     0.166667
   11     1.000000   120.000000     0.942809    -0.333333     0.000000     0.000000     0.000000     0.166667
   12     1.000000   120.000000    -0.000000    -1.000000    -0.000000     0.000000     0.000000     0.166667
   13    -1.000000    90.000000     0.816497     0.577350    -0.000000     0.000000     0.166667     0.000000
   14    -1.000000    90.000000     0.408248    -0.577350    -0.707107     0.000000     0.166667    -0.000000
   15    -1.000000   180.000000     0.288675     0.816497     0.500000    -0.000000     0.166667     0.000000
   16     1.000000   120.000000    -0.000000     1.000000    -0.000000     0.166667     0.000000     0.000000
   17     1.000000   120.000000     0.471405     0.333333    -0.816497     0.166667     0.000000     0.000000
   18     1.000000   180.000000    -0.408248     0.577350     0.707107     0.166667     0.000000     0.000000
   19    -1.000000    90.000000    -0.408248     0.577350    -0.707107     0.000000     0.000000     0.166667
   20    -1.000000   180.000000     0.000000    -0.000000     1.000000     0.000000     0.000000     0.166667
   21    -1.000000    90.000000    -0.408248     0.577350     0.707107     0.000000     0.000000     0.166667
   22     1.000000   120.000000    -0.942809     0.333333     0.000000    -0.000000     0.166667     0.000000
   23     1.000000   180.000000    -0.408248     0.577350    -0.707107     0.000000     0.166667    -0.000000
   24     1.000000   120.000000    -0.471405    -0.333333     0.816497     0.000000     0.166667    -0.000000
 
 Subroutine IBZKPT returns following result:
 ===========================================
 
 Found      8 irreducible k-points:
 
 Following reciprocal coordinates:
            Coordinates               Weight
  0.000000  0.000000  0.000000      1.000000
  0.250000  0.000000  0.000000      8.000000
  0.500000  0.000000  0.000000      4.000000
  0.250000  0.250000  0.000000      6.000000
  0.500000  0.250000  0.000000     24.000000
 -0.250000  0.250000  0.000000     12.000000
  0.500000  0.500000  0.000000      3.000000
 -0.250000  0.500000  0.250000      6.000000
 
 Following cartesian coordinates:
            Coordinates               Weight
  0.000000  0.000000  0.000000      1.000000
  0.025059 -0.008860  0.000000      8.000000
  0.050118 -0.017719  0.000000      4.000000
  0.025059  0.017719  0.000000      6.000000
  0.050118  0.008860  0.000000     24.000000
 -0.025059  0.035439  0.000000     12.000000
  0.050118  0.035439  0.000000      3.000000
 -0.037588  0.053158  0.021702      6.000000
 


--------------------------------------------------------------------------------------------------------




 Dimension of arrays:
   k-points           NKPTS =      8   k-points in BZ     NKDIM =      8   number of bands    NBANDS=    144
   number of dos      NEDOS =    301   number of ions     NIONS =     55
   non local maximal  LDIM  =      4   non local SUM 2l+1 LMDIM =      8
   total plane-waves  NPLWV = 343000
   max r-space proj   IRMAX =      1   max aug-charges    IRDMAX=  10807
   dimension x,y,z NGX =    70 NGY =   70 NGZ =   70
   dimension x,y,z NGXF=   140 NGYF=  140 NGZF=  140
   support grid    NGXF=   140 NGYF=  140 NGZF=  140
   ions per type =              55
   NGX,Y,Z   is equivalent  to a cutoff of  10.10, 10.10, 10.10 a.u.
   NGXF,Y,Z  is equivalent  to a cutoff of  20.20, 20.20, 20.20 a.u.

 SYSTEM =  Si                                      
 POSCAR =  Si55                                    

 Startparameter for this run:
   NWRITE =      2    write-flag & timer
   PREC   = normal    normal or accurate (medium, high low for compatibility)
   ISTART =      1    job   : 0-new  1-cont  2-samecut
   ICHARG =      0    charge: 1-file 2-atom 10-const
   ISPIN  =      1    spin polarized calculation?
   LNONCOLLINEAR =      F non collinear calculations
   LSORBIT =      F    spin-orbit coupling
   INIWAV =      1    electr: 0-lowe 1-rand  2-diag
   LASPH  =      F    aspherical Exc in radial PAW
   METAGGA=      F    non-selfconsistent MetaGGA calc.

 Electronic Relaxation 1
   ENCUT  =  550.0 eV  40.42 Ry    6.36 a.u.  22.03 22.03 22.03*2*pi/ulx,y,z
   ENINI  =  550.0     initial cutoff
   ENAUG  =  322.1 eV  augmentation charge cutoff
   NELM   =    200;   NELMIN=  2; NELMDL=  0     # of ELM steps 
   EDIFF  = 0.1E-04   stopping-criterion for ELM
   LREAL  =      F    real-space projection
   NLSPLINE    = F    spline interpolate recip. space projectors
   LCOMPAT=      F    compatible to vasp.4.4
   GGA_COMPAT  = T    GGA compatible to vasp.4.4-vasp.4.6
   LMAXPAW     = -100 max onsite density
   LMAXMIX     =    2 max onsite mixed and CHGCAR
   VOSKOWN=      0    Vosko Wilk Nusair interpolation
   ROPT   =    0.00000
 Ionic relaxation
   EDIFFG = -.5E-01   stopping-criterion for IOM
   NSW    =    100    number of steps for IOM
   NBLOCK =      1;   KBLOCK =    100    inner block; outer block 
   IBRION =      2    ionic relax: 0-MD 1-quasi-New 2-CG
   NFREE  =      1    steps in history (QN), initial steepest desc. (CG)
   ISIF   =      2    stress and relaxation
   IWAVPR =     11    prediction:  0-non 1-charg 2-wave 3-comb
   ISYM   =      2    0-nonsym 1-usesym 2-fastsym
   LCORR  =      T    Harris-Foulkes like correction to forces

   POTIM  = 0.5000    time-step for ionic-motion
   TEIN   =    0.0    initial temperature
   TEBEG  =    0.0;   TEEND  =   0.0 temperature during run
   SMASS  =  -3.00    Nose mass-parameter (am)
   estimated Nose-frequenzy (Omega)   =  0.10E-29 period in steps =****** mass=  -0.303E-26a.u.
   SCALEE = 1.0000    scale energy and forces
   NPACO  =    256;   APACO  = 16.0  distance and # of slots for P.C.
   PSTRESS=    0.0 pullay stress

  Mass of Ions in am
   POMASS =  28.09
  Ionic Valenz
   ZVAL   =   4.00
  Atomic Wigner-Seitz radii
   RWIGS  =  -1.00
  virtual crystal weights 
   VCA    =   1.00
   NELECT =     221.0000    total number of electrons
   NUPDOWN=      -1.0000    fix difference up-down

 DOS related values:
   EMIN   =  10.00;   EMAX   =-10.00  energy-range for DOS
   EFERMI =   0.00
   ISMEAR =     0;   SIGMA  =   0.05  broadening in eV -4-tet -1-fermi 0-gaus

 Electronic relaxation 2 (details)
   IALGO  =     38    algorithm
   LDIAG  =      T    sub-space diagonalisation (order eigenvalues)
   LSUBROT=      F    optimize rotation matrix (better conditioning)
   TURBO    =      0    0=normal 1=particle mesh
   IRESTART =      0    0=no restart 2=restart with 2 vectors
   NREBOOT  =      0    no. of reboots
   NMIN     =      0    reboot dimension
   EREF     =   0.00    reference energy to select bands
   IMIX   =      4    mixing-type and parameters
     AMIX     =   0.20;   BMIX     =  1.00
     AMIX_MAG =   0.80;   BMIX_MAG =  1.00
     AMIN     =   0.10
     WC   =   100.;   INIMIX=   1;  MIXPRE=   1;  MAXMIX= -45

 Intra band minimization:
   WEIMIN = 0.0010     energy-eigenvalue tresh-hold
   EBREAK =  0.17E-07  absolut break condition
   DEPER  =   0.30     relativ break condition  

   TIME   =   0.40     timestep for ELM

  volume/ion in A,a.u.               =      19.65       132.63
  Fermi-wavevector in a.u.,A,eV,Ry     =   0.964416  1.822482 12.654761  0.930099
  Thomas-Fermi vector in A             =   2.094046
 
 Write flags
   LWAVE        =      T    write WAVECAR
   LDOWNSAMPLE  =      F    k-point downsampling of WAVECAR
   LCHARG       =      T    write CHGCAR
   LVTOT        =      F    write LOCPOT, total local potential
   LVHAR        =      F    write LOCPOT, Hartree potential only
   LELF         =      F    write electronic localiz. function (ELF)
   LORBIT       =     10    0 simple, 1 ext, 2 COOP (PROOUT), +10 PAW based schemes


 Dipole corrections
   LMONO  =      F    monopole corrections only (constant potential shift)
   LDIPOL =      F    correct potential (dipole corrections)
   IDIPOL =      0    1-x, 2-y, 3-z, 4-all directions 
   EPSILON=  1.0000000 bulk dielectric constant

 Exchange correlation treatment:
   GGA     =    --    GGA type
   LEXCH   =     8    internal setting for exchange type
   VOSKOWN=      0    Vosko Wilk Nusair interpolation
   LHFCALC =     F    Hartree Fock is set to
   LHFONE  =     F    Hartree Fock one center treatment
   AEXX    =    0.0000 exact exchange contribution

 Linear response parameters
   LEPSILON=     F    determine dielectric tensor
   LRPA    =     F    only Hartree local field effects (RPA)
   LNABLA  =     F    use nabla operator in PAW spheres
   LVEL    =     F    velocity operator in full k-point grid
   LINTERFAST=   F  fast interpolation
   KINTER  =     0    interpolate to denser k-point grid
   CSHIFT  =0.1000    complex shift for real part using Kramers Kronig
   OMEGAMAX=  -1.0    maximum frequency
   DEG_THRESHOLD= 0.2000000E-02 threshold for treating states as degnerate
   RTIME   =   -0.100 relaxation time in fs
  (WPLASMAI=    0.000 imaginary part of plasma frequency in eV, 0.658/RTIME)
   DFIELD  = 0.0000000 0.0000000 0.0000000 field for delta impulse in time
 
 Orbital magnetization related:
   ORBITALMAG=     F  switch on orbital magnetization
   LCHIMAG   =     F  perturbation theory with respect to B field
   DQ        =  0.001000  dq finite difference perturbation B field
   LLRAUG    =     F  two centre corrections for induced B field



--------------------------------------------------------------------------------------------------------


 conjugate gradient relaxation of ions
 charge density and potential will be updated during run
 non-spin polarized calculation
 Variant of blocked Davidson
 Davidson routine will perform the subspace rotation
 perform sub-space diagonalisation
    after iterative eigenvector-optimisation
 modified Broyden-mixing scheme, WC =      100.0
 initial mixing is a Kerker type mixing with AMIX =  0.2000 and BMIX =      1.0000
 Hartree-type preconditioning will be used
 using additional bands           33
 reciprocal scheme for non local part
 use partial core corrections
 calculate Harris-corrections to forces 
   (improved forces if not selfconsistent)
 use gradient corrections 
 use of overlap-Matrix (Vanderbilt PP)
 Gauss-broadening in eV      SIGMA  =   0.05


--------------------------------------------------------------------------------------------------------


  energy-cutoff  :      550.00
  volume of cell :     1080.99
      direct lattice vectors                 reciprocal lattice vectors
     9.976465530  0.000000000  5.759915070     0.100235900 -0.035438742  0.000000000
     3.325488510  9.405901920  5.759915070     0.000000000  0.106316227  0.000000000
     0.000000000  0.000000000 11.519830140    -0.050117950 -0.035438742  0.086806836

  length of vectors
    11.519830124 11.519830136 11.519830140     0.106316227  0.106316227  0.106316227


 
 old parameters found on file WAVECAR:
  energy-cutoff  :      550.00
  volume of cell :     1080.99
      direct lattice vectors                 reciprocal lattice vectors
     9.976465530  0.000000000  5.759915070     0.100235900 -0.035438742  0.000000000
     3.325488510  9.405901920  5.759915070     0.000000000  0.106316227  0.000000000
     0.000000000  0.000000000 11.519830140    -0.050117950 -0.035438742  0.086806836

  length of vectors

 
 k-points in units of 2pi/SCALE and weight: Automatic kpoint scheme                 
   0.00000000  0.00000000  0.00000000       0.016
   0.02505897 -0.00885969  0.00000000       0.125
   0.05011795 -0.01771937  0.00000000       0.062
   0.02505897  0.01771937  0.00000000       0.094
   0.05011795  0.00885969  0.00000000       0.375
  -0.02505897  0.03543874  0.00000000       0.188
   0.05011795  0.03543874  0.00000000       0.047
  -0.03758846  0.05315811  0.02170171       0.094
 
 k-points in reciprocal lattice and weights: Automatic kpoint scheme                 
   0.00000000  0.00000000  0.00000000       0.016
   0.25000000  0.00000000  0.00000000       0.125
   0.50000000  0.00000000  0.00000000       0.062
   0.25000000  0.25000000  0.00000000       0.094
   0.50000000  0.25000000  0.00000000       0.375
  -0.25000000  0.25000000  0.00000000       0.188
   0.50000000  0.50000000  0.00000000       0.047
  -0.25000000  0.50000000  0.25000000       0.094
 
 position of ions in fractional coordinates (direct lattice) 
   0.29166667  0.29166667  0.29166667
   0.29166667  0.29166667  0.62500000
   0.29166667  0.29166667  0.95833333
   0.29166667  0.62500000  0.29166667
   0.29166667  0.62500000  0.62500000
   0.29166667  0.62500000  0.95833333
   0.29166667  0.95833333  0.29166667
   0.29166667  0.95833333  0.62500000
   0.29166667  0.95833333  0.95833333
   0.62500000  0.29166667  0.29166667
   0.62500000  0.29166667  0.62500000
   0.62500000  0.29166667  0.95833333
   0.62500000  0.62500000  0.29166667
   0.62500000  0.62500000  0.62500000
   0.62500000  0.62500000  0.95833333
   0.62500000  0.95833333  0.29166667
   0.62500000  0.95833333  0.62500000
   0.62500000  0.95833333  0.95833333
   0.95833333  0.29166667  0.29166667
   0.95833333  0.29166667  0.62500000
   0.95833333  0.29166667  0.95833333
   0.95833333  0.62500000  0.29166667
   0.95833333  0.62500000  0.62500000
   0.95833333  0.62500000  0.95833333
   0.95833333  0.95833333  0.29166667
   0.95833333  0.95833333  0.62500000
   0.95833333  0.95833333  0.95833333
   0.04166667  0.04166667  0.04166667
   0.04166667  0.04166667  0.37500000
   0.04166667  0.04166667  0.70833333
   0.04166667  0.37500000  0.04166667
   0.04166667  0.37500000  0.37500000
   0.04166667  0.37500000  0.70833333
   0.04166667  0.70833333  0.04166667
   0.04166667  0.70833333  0.37500000
   0.04166667  0.70833333  0.70833333
   0.37500000  0.04166667  0.04166667
   0.37500000  0.04166667  0.37500000
   0.37500000  0.04166667  0.70833333
   0.37500000  0.37500000  0.04166667
   0.37500000  0.37500000  0.37500000
   0.37500000  0.37500000  0.70833333
   0.37500000  0.70833333  0.04166667
   0.37500000  0.70833333  0.37500000
   0.37500000  0.70833333  0.70833333
   0.70833333  0.04166667  0.04166667
   0.70833333  0.04166667  0.37500000
   0.70833333  0.04166667  0.70833333
   0.70833333  0.37500000  0.04166667
   0.70833333  0.37500000  0.37500000
   0.70833333  0.37500000  0.70833333
   0.70833333  0.70833333  0.04166667
   0.70833333  0.70833333  0.37500000
   0.70833333  0.70833333  0.70833333
   0.54166667  0.54166667  0.54166667
 
 position of ions in cartesian coordinates  (Angst):
   3.87973659  2.74338806  6.71990091
   3.87973659  2.74338806 10.55984429
   3.87973659  2.74338806 14.39978767
   4.98823276  5.87868870  8.63987260
   4.98823276  5.87868870 12.47981598
   4.98823276  5.87868870 16.31975937
   6.09672893  9.01398934 10.55984429
   6.09672893  9.01398934 14.39978767
   6.09672893  9.01398934 18.23973106
   7.20522510  2.74338806  8.63987260
   7.20522510  2.74338806 12.47981598
   7.20522510  2.74338806 16.31975937
   8.31372128  5.87868870 10.55984429
   8.31372128  5.87868870 14.39978767
   8.31372128  5.87868870 18.23973106
   9.42221745  9.01398934 12.47981598
   9.42221745  9.01398934 16.31975937
   9.42221745  9.01398934 20.15970275
  10.53071362  2.74338806 10.55984429
  10.53071362  2.74338806 14.39978767
  10.53071362  2.74338806 18.23973106
  11.63920979  5.87868870 12.47981598
  11.63920979  5.87868870 16.31975937
  11.63920979  5.87868870 20.15970275
  12.74770596  9.01398934 14.39978767
  12.74770596  9.01398934 18.23973106
  12.74770596  9.01398934 22.07967444
   0.55424808  0.39191258  0.95998584
   0.55424808  0.39191258  4.79992922
   0.55424808  0.39191258  8.63987260
   1.66274425  3.52721322  2.87995753
   1.66274425  3.52721322  6.71990091
   1.66274425  3.52721322 10.55984430
   2.77124042  6.66251386  4.79992922
   2.77124042  6.66251386  8.63987261
   2.77124042  6.66251386 12.47981599
   3.87973659  0.39191258  2.87995753
   3.87973659  0.39191258  6.71990091
   3.87973659  0.39191258 10.55984430
   4.98823277  3.52721322  4.79992922
   4.98823277  3.52721322  8.63987261
   4.98823277  3.52721322 12.47981599
   6.09672894  6.66251386  6.71990091
   6.09672894  6.66251386 10.55984430
   6.09672894  6.66251386 14.39978768
   7.20522511  0.39191258  4.79992922
   7.20522511  0.39191258  8.63987261
   7.20522511  0.39191258 12.47981599
   8.31372128  3.52721322  6.71990091
   8.31372128  3.52721322 10.55984430
   8.31372128  3.52721322 14.39978768
   9.42221745  6.66251386  8.63987260
   9.42221745  6.66251386 12.47981599
   9.42221745  6.66251386 16.31975937
   7.20522511  5.09486354 12.47981599
 


--------------------------------------------------------------------------------------------------------


 k-point  1 :   0.0000 0.0000 0.0000  plane waves:   31415
 k-point  2 :   0.2500 0.0000 0.0000  plane waves:   31608
 k-point  3 :   0.5000 0.0000 0.0000  plane waves:   31638
 k-point  4 :   0.2500 0.2500 0.0000  plane waves:   31695
 k-point  5 :   0.5000 0.2500 0.0000  plane waves:   31649
 k-point  6 :  -0.2500 0.2500 0.0000  plane waves:   31674
 k-point  7 :   0.5000 0.5000 0.0000  plane waves:   31716
 k-point  8 :  -0.2500 0.5000 0.2500  plane waves:   31684

 maximum and minimum number of plane-waves per node :     31716    31415

 maximum number of plane-waves:     31716
 maximum index in each direction: 
   IXMAX=   22   IYMAX=   22   IZMAX=   22
   IXMIN=  -22   IYMIN=  -22   IZMIN=  -22


 serial   3D FFT for wavefunctions
 parallel 3D FFT for charge:
    minimum data exchange during FFTs selected (reduces bandwidth)


 total amount of memory used by VASP MPI-rank0   123928. kBytes
=======================================================================

   base      :      30000. kBytes
   nonl-proj :      44165. kBytes
   fftplans  :       5382. kBytes
   grid      :      19496. kBytes
   one-center:        168. kBytes
   wavefun   :      24717. kBytes
 
     INWAV:  cpu time    8.2480: real time    8.6139
 Broyden mixing: mesh for mixing (old mesh)
   NGX = 45   NGY = 45   NGZ = 45
  (NGX  =140   NGY  =140   NGZ  =140)
  gives a total of  91125 points

 charge density for first step will be calculated from the start-wavefunctions


--------------------------------------------------------------------------------------------------------


 Maximum index for augmentation-charges          503 (set IRDMAX)


--------------------------------------------------------------------------------------------------------


 initial charge from wavefunction
 First call to EWALD:  gamma=   0.173
 Maximum number of real-space cells 3x 3x 3
 Maximum number of reciprocal cells 3x 3x 3

    FEWALD:  cpu time    0.0942: real time    0.0951


--------------------------------------- Iteration      1(   1)  ---------------------------------------


    POTLOK:  cpu time    0.1236: real time    0.1338
    SETDIJ:  cpu time    0.0852: real time    0.0865
     EDDAV:  cpu time    3.4079: real time    3.4439
       DOS:  cpu time    0.0531: real time    0.0543
    CHARGE:  cpu time    0.2157: real time    0.2178
    MIXING:  cpu time    0.0113: real time    0.0119
    --------------------------------------------
      LOOP:  cpu time    3.8969: real time    3.9483

 eigenvalue-minimisations  :  1656
 total energy-change (2. order) :-0.2873096E+03  (-0.6963060E-07)
 number of electron     221.0000000 magnetization 
 augmentation part      -12.7207414 magnetization 

 Broyden mixing:
  rms(total) = 0.96272E-04    rms(broyden)= 0.96272E-04
  rms(prec ) = 0.28062E-03
  weight for this iteration     100.00

 Free energy of the ion-electron system (eV)
  ---------------------------------------------------
  alpha Z        PSCENC =        94.20124788
  Ewald energy   TEWEN  =     -6283.32455330
  -Hartree energ DENC   =      -437.60604373
  -exchange      EXHF   =         0.00000000
  -V(xc)+E(xc)   XCENC  =      -489.56431416
  PAW double counting   =     24157.09036203   -23195.59147448
  entropy T*S    EENTRO =        -0.01996693
  eigenvalues    EBANDS =       198.84932732
  atomic energy  EATOM  =      5668.65580356
  Solvation  Ediel_sol  =         0.00000000
  ---------------------------------------------------
  free energy    TOTEN  =      -287.30961180 eV

  energy without entropy =     -287.28964487  energy(sigma->0) =     -287.29962834


--------------------------------------------------------------------------------------------------------




--------------------------------------- Iteration      1(   2)  ---------------------------------------


    POTLOK:  cpu time    0.2968: real time    0.2998
    SETDIJ:  cpu time    0.0750: real time    0.0758
     EDDAV:  cpu time    4.4517: real time    4.5021
       DOS:  cpu time    0.0827: real time    0.0834
    --------------------------------------------
      LOOP:  cpu time    4.9061: real time    4.9611

 eigenvalue-minimisations  :  1656
 total energy-change (2. order) : 0.1229491E-06  (-0.2310302E-07)
 number of electron     221.0000000 magnetization 
 augmentation part      -12.7207414 magnetization 

 Free energy of the ion-electron system (eV)
  ---------------------------------------------------
  alpha Z        PSCENC =        94.20124788
  Ewald energy   TEWEN  =     -6283.32455330
  -Hartree energ DENC   =      -437.60480689
  -exchange      EXHF   =         0.00000000
  -V(xc)+E(xc)   XCENC  =      -489.56434681
  PAW double counting   =     24157.11496438   -23195.61605696
  entropy T*S    EENTRO =        -0.01997296
  eigenvalues    EBANDS =       198.84810943
  atomic energy  EATOM  =      5668.65580356
  Solvation  Ediel_sol  =         0.00000000
  ---------------------------------------------------
  free energy    TOTEN  =      -287.30961168 eV

  energy without entropy =     -287.28963872  energy(sigma->0) =     -287.29962520


--------------------------------------------------------------------------------------------------------




 average (electrostatic) potential at core
  the test charge radii are     0.9892
  (the norm of the test charge is              1.0000)
       1 -83.0570       2 -83.0990       3 -83.0990       4 -83.0990       5 -83.3178
       6 -83.0990       7 -83.0990       8 -83.0990       9 -83.0354      10 -83.0990
      11 -83.3178      12 -83.0990      13 -83.3178      14 -83.3178      15 -83.0536
      16 -83.0990      17 -83.0536      18 -83.0536      19 -83.0990      20 -83.0990
      21 -83.0354      22 -83.0990      23 -83.0536      24 -83.0536      25 -83.0354
      26 -83.0536      27 -83.0354      28 -83.0348      29 -83.0656      30 -83.0656
      31 -83.0656      32 -83.0532      33 -83.0656      34 -83.0656      35 -83.0656
      36 -83.1009      37 -83.0656      38 -83.0532      39 -83.0656      40 -83.0532
      41 -83.0532      42 -83.3126      43 -83.0656      44 -83.3126      45 -83.3126
      46 -83.0656      47 -83.0656      48 -83.1009      49 -83.0656      50 -83.3126
      51 -83.3126      52 -83.1009      53 -83.3126      54 -83.1009      55 -83.7721
 
 
 
 E-fermi :   6.7787     XC(G=0):  -9.5172     alpha+bet :-12.2050


 k-point     1 :       0.0000    0.0000    0.0000
  band No.  band energies     occupation 
      1      -6.7911      2.00000
      2      -5.5895      2.00000
      3      -4.8801      2.00000
      4      -4.8801      2.00000
      5      -4.8801      2.00000
      6      -4.5765      2.00000
      7      -4.5765      2.00000
      8      -4.5765      2.00000
      9      -4.5721      2.00000
     10      -4.2215      2.00000
     11      -4.1652      2.00000
     12      -4.1652      2.00000
     13      -4.1652      2.00000
     14      -4.1001      2.00000
     15      -4.1001      2.00000
     16      -3.0861      2.00000
     17      -3.0861      2.00000
     18      -3.0861      2.00000
     19      -2.8198      2.00000
     20      -2.7936      2.00000
     21      -2.7936      2.00000
     22      -2.7132      2.00000
     23      -2.7132      2.00000
     24      -2.7132      2.00000
     25      -2.6937      2.00000
     26      -2.6937      2.00000
     27      -2.6937      2.00000
     28      -1.5379      2.00000
     29      -1.0291      2.00000
     30      -1.0291      2.00000
     31      -1.0291      2.00000
     32      -0.9174      2.00000
     33      -0.9174      2.00000
     34      -0.8737      2.00000
     35      -0.8737      2.00000
     36      -0.8737      2.00000
     37      -0.7704      2.00000
     38      -0.7704      2.00000
     39      -0.7704      2.00000
     40      -0.3464      2.00000
     41       0.4685      2.00000
     42       0.4685      2.00000
     43       0.4685      2.00000
     44       0.5608      2.00000
     45       0.5608      2.00000
     46       0.5608      2.00000
     47       0.6277      2.00000
     48       0.8629      2.00000
     49       0.8629      2.00000
     50       0.8757      2.00000
     51       0.8757      2.00000
     52       0.8757      2.00000
     53       0.9151      2.00000
     54       1.0083      2.00000
     55       1.3298      2.00000
     56       1.3298      2.00000
     57       1.3298      2.00000
     58       1.5148      2.00000
     59       1.5148      2.00000
     60       1.5148      2.00000
     61       1.5692      2.00000
     62       1.5692      2.00000
     63       1.5984      2.00000
     64       1.5984      2.00000
     65       1.5984      2.00000
     66       2.8476      2.00000
     67       2.8476      2.00000
     68       2.8476      2.00000
     69       3.4791      2.00000
     70       3.4791      2.00000
     71       3.4791      2.00000
     72       3.5180      2.00000
     73       3.5180      2.00000
     74       3.5180      2.00000
     75       3.5794      2.00000
     76       3.5794      2.00000
     77       3.5794      2.00000
     78       3.6704      2.00000
     79       3.6704      2.00000
     80       3.7816      2.00000
     81       3.7816      2.00000
     82       3.7816      2.00000
     83       3.8353      2.00000
     84       3.8353      2.00000
     85       3.8353      2.00000
     86       3.8718      2.00000
     87       3.8718      2.00000
     88       3.8718      2.00000
     89       3.8916      2.00000
     90       4.4065      2.00000
     91       4.7512      2.00000
     92       4.7512      2.00000
     93       4.7851      2.00000
     94       4.7851      2.00000
     95       4.7851      2.00000
     96       4.9202      2.00000
     97       4.9202      2.00000
     98       4.9202      2.00000
     99       4.9211      2.00000
    100       4.9211      2.00000
    101       4.9211      2.00000
    102       5.0115      2.00000
    103       5.0115      2.00000
    104       5.0115      2.00000
    105       5.0125      2.00000
    106       5.0125      2.00000
    107       5.9087      2.00000
    108       5.9087      2.00000
    109       5.9087      2.00000
    110       6.5444      2.00000
    111       6.5444      2.00000
    112       6.5444      2.00000
    113       6.6557      1.99950
    114       6.6557      1.99950
    115       6.7211      1.89663
    116       6.7211      1.89663
    117       6.7211      1.89663
    118       6.9819      0.00000
    119       7.4181      0.00000
    120       7.4181      0.00000
    121       7.4181      0.00000
    122       7.4936      0.00000
    123       7.4936      0.00000
    124       7.5169      0.00000
    125       7.5169      0.00000
    126       7.5169      0.00000
    127       7.6538      0.00000
    128       7.6802      0.00000
    129       7.6802      0.00000
    130       7.6802      0.00000
    131       7.7037      0.00000
    132       7.7037      0.00000
    133       7.7037      0.00000
    134       7.7107      0.00000
    135       7.8410      0.00000
    136       7.8410      0.00000
    137       7.8410      0.00000
    138       7.8793      0.00000
    139       7.9468      0.00000
    140       7.9468      0.00000
    141       8.2982      0.00000
    142       8.2982      0.00000
    143       8.2982      0.00000
    144       8.8945      0.00000

 k-point     2 :       0.2500    0.0000    0.0000
  band No.  band energies     occupation 
      1      -6.7725      2.00000
      2      -5.6175      2.00000
      3      -5.0985      2.00000
      4      -4.9152      2.00000
      5      -4.9152      2.00000
      6      -4.5844      2.00000
      7      -4.5400      2.00000
      8      -4.5400      2.00000
      9      -4.5174      2.00000
     10      -4.3508      2.00000
     11      -4.3508      2.00000
     12      -4.0978      2.00000
     13      -3.6834      2.00000
     14      -3.6257      2.00000
     15      -3.6257      2.00000
     16      -3.5484      2.00000
     17      -3.4086      2.00000
     18      -3.4086      2.00000
     19      -2.9371      2.00000
     20      -2.9371      2.00000
     21      -2.7995      2.00000
     22      -2.7430      2.00000
     23      -2.7430      2.00000
     24      -2.6886      2.00000
     25      -2.6079      2.00000
     26      -2.4782      2.00000
     27      -2.4782      2.00000
     28      -1.6432      2.00000
     29      -1.2245      2.00000
     30      -1.2245      2.00000
     31      -1.0930      2.00000
     32      -0.9877      2.00000
     33      -0.9877      2.00000
     34      -0.8931      2.00000
     35      -0.8931      2.00000
     36      -0.8097      2.00000
     37      -0.6939      2.00000
     38      -0.5132      2.00000
     39      -0.4112      2.00000
     40      -0.4112      2.00000
     41      -0.1075      2.00000
     42       0.0679      2.00000
     43       0.0679      2.00000
     44       0.1427      2.00000
     45       0.1874      2.00000
     46       0.1874      2.00000
     47       0.5150      2.00000
     48       0.9856      2.00000
     49       0.9856      2.00000
     50       1.1728      2.00000
     51       1.2822      2.00000
     52       1.4256      2.00000
     53       1.4256      2.00000
     54       1.5573      2.00000
     55       1.5573      2.00000
     56       1.5964      2.00000
     57       1.6881      2.00000
     58       1.7317      2.00000
     59       1.7317      2.00000
     60       1.7700      2.00000
     61       1.7700      2.00000
     62       1.8728      2.00000
     63       1.9138      2.00000
     64       1.9138      2.00000
     65       2.0308      2.00000
     66       2.5095      2.00000
     67       2.7315      2.00000
     68       2.7315      2.00000
     69       3.0859      2.00000
     70       3.0859      2.00000
     71       3.3011      2.00000
     72       3.3730      2.00000
     73       3.3863      2.00000
     74       3.3863      2.00000
     75       3.4680      2.00000
     76       3.4680      2.00000
     77       3.5433      2.00000
     78       3.5433      2.00000
     79       3.5560      2.00000
     80       3.5843      2.00000
     81       3.5923      2.00000
     82       3.6289      2.00000
     83       3.6289      2.00000
     84       3.7422      2.00000
     85       3.7422      2.00000
     86       3.8281      2.00000
     87       3.9817      2.00000
     88       4.0773      2.00000
     89       4.0773      2.00000
     90       4.1523      2.00000
     91       4.1523      2.00000
     92       4.2476      2.00000
     93       4.5148      2.00000
     94       4.5148      2.00000
     95       4.5286      2.00000
     96       4.6268      2.00000
     97       4.6268      2.00000
     98       4.6448      2.00000
     99       4.7682      2.00000
    100       4.7682      2.00000
    101       4.9217      2.00000
    102       4.9217      2.00000
    103       4.9378      2.00000
    104       4.9796      2.00000
    105       5.0828      2.00000
    106       5.1571      2.00000
    107       5.1571      2.00000
    108       5.7680      2.00000
    109       5.7680      2.00000
    110       6.5778      2.00000
    111       6.7367      1.76498
    112       6.7367      1.76498
    113       6.8617      0.01892
    114       6.8617      0.01892
    115       6.8745      0.00673
    116       7.1487      0.00000
    117       7.1487      0.00000
    118       7.2904      0.00000
    119       7.3800      0.00000
    120       7.3800      0.00000
    121       7.5143      0.00000
    122       7.5820      0.00000
    123       7.8129      0.00000
    124       7.8129      0.00000
    125       7.9195      0.00000
    126       7.9752      0.00000
    127       7.9796      0.00000
    128       7.9796      0.00000
    129       8.0471      0.00000
    130       8.0471      0.00000
    131       8.0814      0.00000
    132       8.0877      0.00000
    133       8.1404      0.00000
    134       8.1404      0.00000
    135       8.2105      0.00000
    136       8.2105      0.00000
    137       8.2169      0.00000
    138       8.3905      0.00000
    139       8.4901      0.00000
    140       8.4901      0.00000
    141       8.5636      0.00000
    142       8.6813      0.00000
    143       8.6813      0.00000
    144       8.8790      0.00000

 k-point     3 :       0.5000    0.0000    0.0000
  band No.  band energies     occupation 
      1      -6.7525      2.00000
      2      -5.6444      2.00000
      3      -5.2417      2.00000
      4      -4.9234      2.00000
      5      -4.9234      2.00000
      6      -4.6670      2.00000
      7      -4.6670      2.00000
      8      -4.6571      2.00000
      9      -4.2496      2.00000
     10      -4.0905      2.00000
     11      -4.0396      2.00000
     12      -4.0396      2.00000
     13      -3.8743      2.00000
     14      -3.8743      2.00000
     15      -3.6985      2.00000
     16      -3.1493      2.00000
     17      -3.1022      2.00000
     18      -3.0831      2.00000
     19      -3.0831      2.00000
     20      -2.9736      2.00000
     21      -2.9736      2.00000
     22      -2.8307      2.00000
     23      -2.8307      2.00000
     24      -2.7395      2.00000
     25      -2.7231      2.00000
     26      -2.7231      2.00000
     27      -2.6833      2.00000
     28      -1.6660      2.00000
     29      -1.0974      2.00000
     30      -1.0974      2.00000
     31      -1.0151      2.00000
     32      -0.9334      2.00000
     33      -0.9334      2.00000
     34      -0.8470      2.00000
     35      -0.7710      2.00000
     36      -0.7710      2.00000
     37      -0.6842      2.00000
     38      -0.5965      2.00000
     39      -0.5965      2.00000
     40      -0.5931      2.00000
     41      -0.4906      2.00000
     42      -0.1206      2.00000
     43      -0.1206      2.00000
     44      -0.0830      2.00000
     45      -0.0830      2.00000
     46      -0.0418      2.00000
     47       0.7354      2.00000
     48       1.0464      2.00000
     49       1.4241      2.00000
     50       1.4241      2.00000
     51       1.4375      2.00000
     52       1.4375      2.00000
     53       1.6231      2.00000
     54       1.7429      2.00000
     55       1.8409      2.00000
     56       1.8409      2.00000
     57       1.9088      2.00000
     58       1.9920      2.00000
     59       1.9920      2.00000
     60       2.1640      2.00000
     61       2.1640      2.00000
     62       2.2684      2.00000
     63       2.3331      2.00000
     64       2.3331      2.00000
     65       2.6194      2.00000
     66       2.6194      2.00000
     67       2.7031      2.00000
     68       2.7795      2.00000
     69       2.8105      2.00000
     70       2.8105      2.00000
     71       2.9967      2.00000
     72       2.9967      2.00000
     73       3.1141      2.00000
     74       3.1617      2.00000
     75       3.1617      2.00000
     76       3.2285      2.00000
     77       3.2597      2.00000
     78       3.2597      2.00000
     79       3.3504      2.00000
     80       3.4107      2.00000
     81       3.4107      2.00000
     82       3.4604      2.00000
     83       3.4912      2.00000
     84       3.5429      2.00000
     85       3.7893      2.00000
     86       3.8417      2.00000
     87       3.8417      2.00000
     88       3.9527      2.00000
     89       3.9527      2.00000
     90       4.0044      2.00000
     91       4.0817      2.00000
     92       4.0817      2.00000
     93       4.1366      2.00000
     94       4.1366      2.00000
     95       4.1913      2.00000
     96       4.2351      2.00000
     97       4.5401      2.00000
     98       4.5401      2.00000
     99       4.6031      2.00000
    100       4.6031      2.00000
    101       4.6532      2.00000
    102       4.6946      2.00000
    103       4.7601      2.00000
    104       4.7601      2.00000
    105       5.2673      2.00000
    106       5.4230      2.00000
    107       5.4230      2.00000
    108       5.4972      2.00000
    109       5.4972      2.00000
    110       6.5933      2.00000
    111       6.7862      0.83288
    112       6.7862      0.83287
    113       6.9619      0.00000
    114       6.9619      0.00000
    115       7.0779      0.00000
    116       7.3212      0.00000
    117       7.5634      0.00000
    118       7.6983      0.00000
    119       7.6983      0.00000
    120       7.8255      0.00000
    121       7.8255      0.00000
    122       7.9256      0.00000
    123       7.9256      0.00000
    124       7.9444      0.00000
    125       8.1474      0.00000
    126       8.2718      0.00000
    127       8.3182      0.00000
    128       8.3586      0.00000
    129       8.3586      0.00000
    130       8.4339      0.00000
    131       8.4661      0.00000
    132       8.4661      0.00000
    133       8.5208      0.00000
    134       8.5208      0.00000
    135       8.6533      0.00000
    136       8.7817      0.00000
    137       8.7817      0.00000
    138       9.0019      0.00000
    139       9.1078      0.00000
    140       9.1078      0.00000
    141       9.1233      0.00000
    142       9.1589      0.00000
    143       9.1594      0.00000
    144       9.2645      0.00000

 k-point     4 :       0.2500    0.2500    0.0000
  band No.  band energies     occupation 
      1      -6.7666      2.00000
      2      -5.6045      2.00000
      3      -5.0562      2.00000
      4      -5.0562      2.00000
      5      -4.9285      2.00000
      6      -4.8893      2.00000
      7      -4.6349      2.00000
      8      -4.3032      2.00000
      9      -4.3032      2.00000
     10      -4.0932      2.00000
     11      -4.0365      2.00000
     12      -4.0082      2.00000
     13      -4.0082      2.00000
     14      -4.0036      2.00000
     15      -3.5792      2.00000
     16      -3.3850      2.00000
     17      -3.3850      2.00000
     18      -3.2710      2.00000
     19      -3.1631      2.00000
     20      -3.0349      2.00000
     21      -3.0091      2.00000
     22      -3.0091      2.00000
     23      -2.9519      2.00000
     24      -2.3030      2.00000
     25      -2.2946      2.00000
     26      -2.2946      2.00000
     27      -2.2206      2.00000
     28      -1.7406      2.00000
     29      -1.4077      2.00000
     30      -1.4077      2.00000
     31      -1.3224      2.00000
     32      -1.2687      2.00000
     33      -0.9101      2.00000
     34      -0.8824      2.00000
     35      -0.8824      2.00000
     36      -0.6343      2.00000
     37      -0.5321      2.00000
     38      -0.3659      2.00000
     39      -0.3659      2.00000
     40      -0.3014      2.00000
     41      -0.2872      2.00000
     42      -0.2050      2.00000
     43      -0.2050      2.00000
     44      -0.1467      2.00000
     45       0.4670      2.00000
     46       0.6909      2.00000
     47       0.6909      2.00000
     48       0.7055      2.00000
     49       0.7384      2.00000
     50       1.3349      2.00000
     51       1.3349      2.00000
     52       1.4443      2.00000
     53       1.5324      2.00000
     54       1.6203      2.00000
     55       1.6203      2.00000
     56       1.6961      2.00000
     57       1.6977      2.00000
     58       1.7757      2.00000
     59       1.7757      2.00000
     60       1.8056      2.00000
     61       1.8868      2.00000
     62       1.9950      2.00000
     63       2.0632      2.00000
     64       2.0632      2.00000
     65       2.3635      2.00000
     66       2.4566      2.00000
     67       2.6862      2.00000
     68       2.6862      2.00000
     69       3.0937      2.00000
     70       3.1314      2.00000
     71       3.1314      2.00000
     72       3.1332      2.00000
     73       3.1812      2.00000
     74       3.2019      2.00000
     75       3.2019      2.00000
     76       3.4232      2.00000
     77       3.4369      2.00000
     78       3.4369      2.00000
     79       3.5450      2.00000
     80       3.7367      2.00000
     81       3.7367      2.00000
     82       3.7410      2.00000
     83       3.7579      2.00000
     84       3.8822      2.00000
     85       3.8822      2.00000
     86       3.9185      2.00000
     87       3.9446      2.00000
     88       4.0420      2.00000
     89       4.0654      2.00000
     90       4.0654      2.00000
     91       4.1722      2.00000
     92       4.2157      2.00000
     93       4.2157      2.00000
     94       4.3067      2.00000
     95       4.3862      2.00000
     96       4.3871      2.00000
     97       4.3871      2.00000
     98       4.4842      2.00000
     99       4.4900      2.00000
    100       4.4900      2.00000
    101       4.5613      2.00000
    102       5.0430      2.00000
    103       5.1977      2.00000
    104       5.2190      2.00000
    105       5.2190      2.00000
    106       5.2492      2.00000
    107       5.2852      2.00000
    108       5.4838      2.00000
    109       5.4838      2.00000
    110       6.4809      2.00000
    111       6.7180      1.91393
    112       6.9287      0.00002
    113       6.9287      0.00002
    114       7.0586      0.00000
    115       7.2330      0.00000
    116       7.2330      0.00000
    117       7.3130      0.00000
    118       7.3652      0.00000
    119       7.4673      0.00000
    120       7.6411      0.00000
    121       7.6539      0.00000
    122       7.6539      0.00000
    123       7.6761      0.00000
    124       7.8058      0.00000
    125       7.9345      0.00000
    126       7.9345      0.00000
    127       7.9358      0.00000
    128       8.0377      0.00000
    129       8.1413      0.00000
    130       8.1413      0.00000
    131       8.2244      0.00000
    132       8.3119      0.00000
    133       8.3536      0.00000
    134       8.3536      0.00000
    135       8.3816      0.00000
    136       8.4315      0.00000
    137       8.4538      0.00000
    138       8.4846      0.00000
    139       8.4931      0.00000
    140       8.4931      0.00000
    141       8.6479      0.00000
    142       8.7433      0.00000
    143       8.7433      0.00000
    144       9.0118      0.00000

 k-point     5 :       0.5000    0.2500    0.0000
  band No.  band energies     occupation 
      1      -6.7471      2.00000
      2      -5.5763      2.00000
      3      -5.3344      2.00000
      4      -5.0727      2.00000
      5      -5.0652      2.00000
      6      -4.6608      2.00000
      7      -4.5884      2.00000
      8      -4.3821      2.00000
      9      -4.1968      2.00000
     10      -4.1018      2.00000
     11      -3.9711      2.00000
     12      -3.9497      2.00000
     13      -3.8012      2.00000
     14      -3.6958      2.00000
     15      -3.5752      2.00000
     16      -3.4495      2.00000
     17      -3.4474      2.00000
     18      -3.3760      2.00000
     19      -3.2214      2.00000
     20      -3.2072      2.00000
     21      -3.1102      2.00000
     22      -3.0736      2.00000
     23      -2.5714      2.00000
     24      -2.5287      2.00000
     25      -2.4407      2.00000
     26      -2.2914      2.00000
     27      -2.2826      2.00000
     28      -1.6569      2.00000
     29      -1.3835      2.00000
     30      -1.3303      2.00000
     31      -1.3012      2.00000
     32      -1.1932      2.00000
     33      -1.1175      2.00000
     34      -0.9088      2.00000
     35      -0.8454      2.00000
     36      -0.8317      2.00000
     37      -0.5821      2.00000
     38      -0.5562      2.00000
     39      -0.5194      2.00000
     40      -0.4563      2.00000
     41      -0.4496      2.00000
     42      -0.1290      2.00000
     43      -0.1266      2.00000
     44       0.0696      2.00000
     45       0.2003      2.00000
     46       0.2386      2.00000
     47       0.7157      2.00000
     48       0.8790      2.00000
     49       0.9176      2.00000
     50       1.1200      2.00000
     51       1.5299      2.00000
     52       1.7014      2.00000
     53       1.8225      2.00000
     54       1.8965      2.00000
     55       1.9509      2.00000
     56       2.0300      2.00000
     57       2.1081      2.00000
     58       2.1284      2.00000
     59       2.2951      2.00000
     60       2.2967      2.00000
     61       2.3495      2.00000
     62       2.4192      2.00000
     63       2.4818      2.00000
     64       2.5183      2.00000
     65       2.5212      2.00000
     66       2.6119      2.00000
     67       2.6377      2.00000
     68       2.7570      2.00000
     69       2.7850      2.00000
     70       2.8125      2.00000
     71       2.8869      2.00000
     72       2.9794      2.00000
     73       2.9965      2.00000
     74       3.0179      2.00000
     75       3.0461      2.00000
     76       3.1105      2.00000
     77       3.1980      2.00000
     78       3.2447      2.00000
     79       3.2610      2.00000
     80       3.3140      2.00000
     81       3.3347      2.00000
     82       3.3979      2.00000
     83       3.5019      2.00000
     84       3.6380      2.00000
     85       3.6501      2.00000
     86       3.7123      2.00000
     87       3.7497      2.00000
     88       3.7948      2.00000
     89       3.9134      2.00000
     90       3.9889      2.00000
     91       3.9946      2.00000
     92       4.0701      2.00000
     93       4.0748      2.00000
     94       4.2057      2.00000
     95       4.2272      2.00000
     96       4.3144      2.00000
     97       4.3424      2.00000
     98       4.3778      2.00000
     99       4.3851      2.00000
    100       4.4273      2.00000
    101       4.5297      2.00000
    102       4.5469      2.00000
    103       4.9127      2.00000
    104       4.9201      2.00000
    105       5.0036      2.00000
    106       5.1236      2.00000
    107       5.2966      2.00000
    108       5.4908      2.00000
    109       5.5680      2.00000
    110       6.6737      1.99702
    111       6.8050      0.45721
    112       7.0839      0.00000
    113       7.1585      0.00000
    114       7.3919      0.00000
    115       7.5368      0.00000
    116       7.5416      0.00000
    117       7.5729      0.00000
    118       7.6799      0.00000
    119       7.7725      0.00000
    120       7.8607      0.00000
    121       7.9799      0.00000
    122       8.0090      0.00000
    123       8.0638      0.00000
    124       8.1364      0.00000
    125       8.2251      0.00000
    126       8.3260      0.00000
    127       8.3766      0.00000
    128       8.4645      0.00000
    129       8.4681      0.00000
    130       8.5246      0.00000
    131       8.5642      0.00000
    132       8.6523      0.00000
    133       8.6569      0.00000
    134       8.6776      0.00000
    135       8.7584      0.00000
    136       8.8218      0.00000
    137       8.8849      0.00000
    138       8.9652      0.00000
    139       8.9653      0.00000
    140       8.9925      0.00000
    141       9.0421      0.00000
    142       9.0966      0.00000
    143       9.1035      0.00000
    144       9.1638      0.00000

 k-point     6 :      -0.2500    0.2500    0.0000
  band No.  band energies     occupation 
      1      -6.7533      2.00000
      2      -5.5984      2.00000
      3      -5.3152      2.00000
      4      -5.0040      2.00000
      5      -4.9493      2.00000
      6      -4.6815      2.00000
      7      -4.5309      2.00000
      8      -4.5183      2.00000
      9      -4.3408      2.00000
     10      -4.1549      2.00000
     11      -4.0692      2.00000
     12      -3.9852      2.00000
     13      -3.8453      2.00000
     14      -3.7400      2.00000
     15      -3.5067      2.00000
     16      -3.4722      2.00000
     17      -3.3423      2.00000
     18      -3.2538      2.00000
     19      -3.1262      2.00000
     20      -3.0325      2.00000
     21      -2.9997      2.00000
     22      -2.8644      2.00000
     23      -2.8249      2.00000
     24      -2.7688      2.00000
     25      -2.5605      2.00000
     26      -2.5382      2.00000
     27      -2.0865      2.00000
     28      -1.7591      2.00000
     29      -1.5130      2.00000
     30      -1.1286      2.00000
     31      -1.0221      2.00000
     32      -0.9765      2.00000
     33      -0.8709      2.00000
     34      -0.8407      2.00000
     35      -0.8154      2.00000
     36      -0.7527      2.00000
     37      -0.6985      2.00000
     38      -0.6746      2.00000
     39      -0.6012      2.00000
     40      -0.5924      2.00000
     41      -0.5443      2.00000
     42      -0.5238      2.00000
     43       0.0693      2.00000
     44       0.3643      2.00000
     45       0.3911      2.00000
     46       0.5276      2.00000
     47       0.5810      2.00000
     48       0.6418      2.00000
     49       0.6551      2.00000
     50       1.0410      2.00000
     51       1.4490      2.00000
     52       1.6176      2.00000
     53       1.7146      2.00000
     54       1.9074      2.00000
     55       1.9188      2.00000
     56       1.9605      2.00000
     57       2.0448      2.00000
     58       2.0569      2.00000
     59       2.1515      2.00000
     60       2.2094      2.00000
     61       2.2150      2.00000
     62       2.2726      2.00000
     63       2.3839      2.00000
     64       2.4129      2.00000
     65       2.4929      2.00000
     66       2.5186      2.00000
     67       2.5244      2.00000
     68       2.6344      2.00000
     69       2.8352      2.00000
     70       2.8396      2.00000
     71       2.9384      2.00000
     72       2.9820      2.00000
     73       3.0022      2.00000
     74       3.0328      2.00000
     75       3.2076      2.00000
     76       3.2805      2.00000
     77       3.3188      2.00000
     78       3.3196      2.00000
     79       3.4105      2.00000
     80       3.4581      2.00000
     81       3.4740      2.00000
     82       3.5242      2.00000
     83       3.5507      2.00000
     84       3.5763      2.00000
     85       3.6268      2.00000
     86       3.7289      2.00000
     87       3.7729      2.00000
     88       3.8573      2.00000
     89       3.9273      2.00000
     90       3.9988      2.00000
     91       4.0437      2.00000
     92       4.0665      2.00000
     93       4.2613      2.00000
     94       4.2948      2.00000
     95       4.3471      2.00000
     96       4.4809      2.00000
     97       4.4867      2.00000
     98       4.5400      2.00000
     99       4.6303      2.00000
    100       4.6383      2.00000
    101       4.6983      2.00000
    102       4.7326      2.00000
    103       4.8061      2.00000
    104       4.8608      2.00000
    105       4.9381      2.00000
    106       4.9794      2.00000
    107       5.0482      2.00000
    108       5.3928      2.00000
    109       5.8010      2.00000
    110       6.6894      1.98842
    111       6.8502      0.04313
    112       7.0560      0.00000
    113       7.1439      0.00000
    114       7.1860      0.00000
    115       7.2429      0.00000
    116       7.3616      0.00000
    117       7.5230      0.00000
    118       7.6595      0.00000
    119       7.7300      0.00000
    120       7.7886      0.00000
    121       7.7943      0.00000
    122       7.8382      0.00000
    123       7.9536      0.00000
    124       8.0031      0.00000
    125       8.1014      0.00000
    126       8.1347      0.00000
    127       8.1487      0.00000
    128       8.3065      0.00000
    129       8.4144      0.00000
    130       8.4275      0.00000
    131       8.4745      0.00000
    132       8.5281      0.00000
    133       8.5747      0.00000
    134       8.5855      0.00000
    135       8.6111      0.00000
    136       8.6771      0.00000
    137       8.7277      0.00000
    138       8.7479      0.00000
    139       8.8547      0.00000
    140       8.8941      0.00000
    141       9.0082      0.00000
    142       9.0199      0.00000
    143       9.1404      0.00000
    144       9.1981      0.00000

 k-point     7 :       0.5000    0.5000    0.0000
  band No.  band energies     occupation 
      1      -6.7414      2.00000
      2      -5.5387      2.00000
      3      -5.2820      2.00000
      4      -5.1507      2.00000
      5      -5.1507      2.00000
      6      -5.0088      2.00000
      7      -4.2226      2.00000
      8      -4.1565      2.00000
      9      -4.0949      2.00000
     10      -4.0949      2.00000
     11      -3.7730      2.00000
     12      -3.6709      2.00000
     13      -3.6709      2.00000
     14      -3.6545      2.00000
     15      -3.5933      2.00000
     16      -3.5703      2.00000
     17      -3.5454      2.00000
     18      -3.5454      2.00000
     19      -3.4791      2.00000
     20      -3.4688      2.00000
     21      -3.4688      2.00000
     22      -3.4516      2.00000
     23      -2.0540      2.00000
     24      -2.0260      2.00000
     25      -1.9738      2.00000
     26      -1.9738      2.00000
     27      -1.9384      2.00000
     28      -1.8174      2.00000
     29      -1.7295      2.00000
     30      -1.7230      2.00000
     31      -1.7230      2.00000
     32      -1.6976      2.00000
     33      -1.4165      2.00000
     34      -0.7575      2.00000
     35      -0.7575      2.00000
     36      -0.7456      2.00000
     37      -0.6659      2.00000
     38      -0.6659      2.00000
     39      -0.6450      2.00000
     40      -0.6222      2.00000
     41       0.1273      2.00000
     42       0.1273      2.00000
     43       0.1455      2.00000
     44       0.1605      2.00000
     45       0.2743      2.00000
     46       0.3291      2.00000
     47       0.3291      2.00000
     48       0.3633      2.00000
     49       0.8340      2.00000
     50       1.4369      2.00000
     51       1.7517      2.00000
     52       1.7517      2.00000
     53       2.1948      2.00000
     54       2.2356      2.00000
     55       2.2356      2.00000
     56       2.2408      2.00000
     57       2.2442      2.00000
     58       2.2913      2.00000
     59       2.2913      2.00000
     60       2.3133      2.00000
     61       2.3664      2.00000
     62       2.3827      2.00000
     63       2.3827      2.00000
     64       2.3969      2.00000
     65       2.3969      2.00000
     66       2.4016      2.00000
     67       2.4094      2.00000
     68       2.4157      2.00000
     69       2.8979      2.00000
     70       2.8979      2.00000
     71       2.9066      2.00000
     72       2.9958      2.00000
     73       3.0435      2.00000
     74       3.1321      2.00000
     75       3.1321      2.00000
     76       3.1366      2.00000
     77       3.2097      2.00000
     78       3.2097      2.00000
     79       3.3459      2.00000
     80       3.3459      2.00000
     81       3.3844      2.00000
     82       3.4593      2.00000
     83       3.5728      2.00000
     84       3.5873      2.00000
     85       3.5873      2.00000
     86       3.6150      2.00000
     87       3.6292      2.00000
     88       3.7009      2.00000
     89       3.7009      2.00000
     90       3.7058      2.00000
     91       3.8915      2.00000
     92       3.9268      2.00000
     93       3.9961      2.00000
     94       4.0077      2.00000
     95       4.0077      2.00000
     96       4.1440      2.00000
     97       4.1676      2.00000
     98       4.1676      2.00000
     99       4.2384      2.00000
    100       4.2385      2.00000
    101       4.6939      2.00000
    102       4.6939      2.00000
    103       4.7344      2.00000
    104       4.7344      2.00000
    105       5.2979      2.00000
    106       5.3627      2.00000
    107       5.3627      2.00000
    108       5.4020      2.00000
    109       5.5363      2.00000
    110       6.4291      2.00000
    111       6.8853      0.00258
    112       6.9654      0.00000
    113       7.2552      0.00000
    114       7.2552      0.00000
    115       7.6049      0.00000
    116       7.7175      0.00000
    117       7.9379      0.00000
    118       7.9810      0.00000
    119       8.0290      0.00000
    120       8.0290      0.00000
    121       8.1576      0.00000
    122       8.2345      0.00000
    123       8.2345      0.00000
    124       8.3012      0.00000
    125       8.3262      0.00000
    126       8.3262      0.00000
    127       8.5392      0.00000
    128       8.6667      0.00000
    129       8.7073      0.00000
    130       8.7449      0.00000
    131       8.7752      0.00000
    132       8.7752      0.00000
    133       8.7878      0.00000
    134       8.7878      0.00000
    135       8.8161      0.00000
    136       8.8292      0.00000
    137       8.8947      0.00000
    138       8.8947      0.00000
    139       8.9419      0.00000
    140       8.9861      0.00000
    141       9.1537      0.00000
    142       9.1537      0.00000
    143       9.2727      0.00000
    144       9.3408      0.00000

 k-point     8 :      -0.2500    0.5000    0.2500
  band No.  band energies     occupation 
      1      -6.7409      2.00000
      2      -5.4362      2.00000
      3      -5.4143      2.00000
      4      -5.3923      2.00000
      5      -4.7983      2.00000
      6      -4.6991      2.00000
      7      -4.5871      2.00000
      8      -4.4863      2.00000
      9      -4.0600      2.00000
     10      -4.0057      2.00000
     11      -3.9871      2.00000
     12      -3.7808      2.00000
     13      -3.6416      2.00000
     14      -3.6028      2.00000
     15      -3.6019      2.00000
     16      -3.5974      2.00000
     17      -3.5369      2.00000
     18      -3.4748      2.00000
     19      -3.4123      2.00000
     20      -3.4079      2.00000
     21      -2.9334      2.00000
     22      -2.9283      2.00000
     23      -2.7865      2.00000
     24      -2.7558      2.00000
     25      -2.0165      2.00000
     26      -1.9659      2.00000
     27      -1.9579      2.00000
     28      -1.9131      2.00000
     29      -1.7490      2.00000
     30      -1.7112      2.00000
     31      -1.5002      2.00000
     32      -1.0064      2.00000
     33      -0.9469      2.00000
     34      -0.9390      2.00000
     35      -0.8561      2.00000
     36      -0.7707      2.00000
     37      -0.7592      2.00000
     38      -0.6543      2.00000
     39      -0.3495      2.00000
     40      -0.2397      2.00000
     41      -0.2036      2.00000
     42      -0.1702      2.00000
     43      -0.1173      2.00000
     44      -0.0793      2.00000
     45      -0.0638      2.00000
     46      -0.0400      2.00000
     47       0.8442      2.00000
     48       0.9256      2.00000
     49       1.2091      2.00000
     50       1.2243      2.00000
     51       1.3190      2.00000
     52       1.7230      2.00000
     53       1.8868      2.00000
     54       1.9156      2.00000
     55       2.1028      2.00000
     56       2.1212      2.00000
     57       2.2115      2.00000
     58       2.2656      2.00000
     59       2.3934      2.00000
     60       2.4659      2.00000
     61       2.6452      2.00000
     62       2.6631      2.00000
     63       2.6687      2.00000
     64       2.6929      2.00000
     65       2.7353      2.00000
     66       2.7566      2.00000
     67       2.7815      2.00000
     68       2.7896      2.00000
     69       2.8104      2.00000
     70       2.8271      2.00000
     71       2.8301      2.00000
     72       2.8318      2.00000
     73       2.8643      2.00000
     74       2.8674      2.00000
     75       2.8821      2.00000
     76       2.8852      2.00000
     77       3.1463      2.00000
     78       3.1545      2.00000
     79       3.2167      2.00000
     80       3.2272      2.00000
     81       3.2934      2.00000
     82       3.2961      2.00000
     83       3.3319      2.00000
     84       3.3363      2.00000
     85       3.4976      2.00000
     86       3.6153      2.00000
     87       3.7600      2.00000
     88       3.7891      2.00000
     89       3.8003      2.00000
     90       3.8218      2.00000
     91       3.8289      2.00000
     92       3.8311      2.00000
     93       4.1403      2.00000
     94       4.1823      2.00000
     95       4.1846      2.00000
     96       4.2091      2.00000
     97       4.2449      2.00000
     98       4.3164      2.00000
     99       4.3495      2.00000
    100       4.3583      2.00000
    101       4.6146      2.00000
    102       4.6178      2.00000
    103       4.6760      2.00000
    104       4.6812      2.00000
    105       5.1321      2.00000
    106       5.1820      2.00000
    107       5.2510      2.00000
    108       5.2617      2.00000
    109       5.6822      2.00000
    110       6.7917      0.71338
    111       7.0500      0.00000
    112       7.0851      0.00000
    113       7.2976      0.00000
    114       7.3977      0.00000
    115       7.5573      0.00000
    116       7.6230      0.00000
    117       7.9698      0.00000
    118       8.0346      0.00000
    119       8.1131      0.00000
    120       8.1576      0.00000
    121       8.2119      0.00000
    122       8.2475      0.00000
    123       8.2509      0.00000
    124       8.2786      0.00000
    125       8.3007      0.00000
    126       8.3391      0.00000
    127       8.3746      0.00000
    128       8.3798      0.00000
    129       8.4956      0.00000
    130       8.5352      0.00000
    131       8.5392      0.00000
    132       8.5769      0.00000
    133       8.6927      0.00000
    134       8.7893      0.00000
    135       8.8016      0.00000
    136       8.8330      0.00000
    137       8.9180      0.00000
    138       8.9927      0.00000
    139       8.9971      0.00000
    140       9.0465      0.00000
    141       9.0476      0.00000
    142       9.1244      0.00000
    143       9.1246      0.00000
    144       9.1845      0.00000


--------------------------------------------------------------------------------------------------------


 soft charge-density along one line, spin component           1
         0         1         2         3         4         5         6         7         8         9
 total charge-density along one line
 
 pseudopotential strength for first ion, spin component:           1
 18.391  25.658  -0.000  -0.000  -0.000  -0.000  -0.000  -0.000
 25.658  35.802  -0.000  -0.000  -0.000  -0.000  -0.000  -0.000
 -0.000  -0.000   4.175   0.000   0.000   7.779   0.000   0.000
 -0.000  -0.000   0.000   4.175   0.000   0.000   7.779   0.000
 -0.000  -0.000   0.000   0.000   4.175   0.000   0.000   7.779
 -0.000  -0.000   7.779   0.000   0.000  14.507   0.000   0.000
 -0.000  -0.000   0.000   7.779   0.000   0.000  14.507   0.000
 -0.000  -0.000   0.000   0.000   7.779   0.000   0.000  14.507
 total augmentation occupancy for first ion, spin component:           1
  5.700  -2.165   0.000  -0.000   0.000   0.000  -0.000  -0.000
 -2.165   0.946   0.000   0.000  -0.000  -0.000   0.000  -0.000
  0.000  -0.000   2.977   0.000  -0.000  -0.672   0.000   0.000
  0.000   0.000   0.000   2.977  -0.000   0.000  -0.672   0.000
 -0.000   0.000  -0.000   0.000   2.977   0.000   0.000  -0.672
  0.000  -0.000  -0.672   0.000   0.000   0.160   0.000  -0.000
 -0.000   0.000   0.000  -0.672  -0.000   0.000   0.160   0.000
  0.000  -0.000   0.000  -0.000  -0.672  -0.000   0.000   0.160


------------------------ aborting loop because EDIFF is reached ----------------------------------------


 


 total charge     
 
# of ion       s       p       d       tot
------------------------------------------
    1        0.754   0.940   0.000   1.693
    2        0.757   0.936   0.000   1.693
[...]
tot         41.757  51.293   0.000  93.049
 
    CHARGE:  cpu time    0.1682: real time    0.1693
    FORLOC:  cpu time    0.0324: real time    0.0325
    FORNL :  cpu time    1.6459: real time    1.6675
    STRESS:  cpu time    5.5789: real time    5.6393
    FORCOR:  cpu time    0.1014: real time    0.1020
    FORHAR:  cpu time    0.0444: real time    0.0447
    MIXING:  cpu time    0.0184: real time    0.0185
    OFIELD:  cpu time    0.0001: real time    0.0001

  FORCE on cell =-STRESS in cart. coord.  units (eV):
  Direction    XX          YY          ZZ          XY          YZ          ZX
  --------------------------------------------------------------------------------------
  Alpha Z    94.20125    94.20125    94.20125
  Ewald   -2101.45565 -2101.45565 -2101.45565    -0.00000     0.00000     0.00000
  Hartree   139.69327   139.69327   139.69327     0.00000     0.00000     0.00000
  E(xc)    -701.44733  -701.44733  -701.44735    -0.00001    -0.00001    -0.00001
  Local    -802.33876  -802.33887  -802.33835     0.00015     0.00025     0.00036
  n-local  2138.14576  2149.34336  2155.23499    -0.04843    -0.84456     0.59721
  augment  -323.08801  -323.08790  -323.08847    -0.00016    -0.00028    -0.00040
  Kinetic  1540.09714  1572.31970  1608.27347    -0.10850    -1.42043     1.00440
  Fock        0.00000     0.00000     0.00000     0.00000     0.00000     0.00000
  -------------------------------------------------------------------------------------
  Total      26.70288    26.70288    26.70288     0.00000    -0.00000     0.00000
  in kB      39.57724    39.57724    39.57724     0.00000    -0.00000     0.00000
  external pressure =       39.58 kB  Pullay stress =        0.00 kB


 VOLUME and BASIS-vectors are now :
 -----------------------------------------------------------------------------
  energy-cutoff  :      550.00
  volume of cell :     1080.99
      direct lattice vectors                 reciprocal lattice vectors
     9.976465530  0.000000000  5.759915070     0.100235900 -0.035438742  0.000000000
     3.325488510  9.405901920  5.759915070     0.000000000  0.106316227  0.000000000
     0.000000000  0.000000000 11.519830140    -0.050117950 -0.035438742  0.086806836

  length of vectors
    11.519830124 11.519830136 11.519830140     0.106316227  0.106316227  0.106316227


 FORCES acting on ions
    electron-ion (+dipol)            ewald-force                    non-local-force                 convergence-correction
 -----------------------------------------------------------------------------------------------
   -.833E-06 -.589E-06 -.140E-05   0.130E-06 -.692E-07 0.109E-10   -.104E-16 0.520E-17 -.312E-16   0.154E-07 0.109E-07 0.268E-07
   0.379E+01 0.268E+01 0.226E+01   -.393E+01 -.278E+01 -.226E+01   0.161E+00 0.114E+00 0.165E-01   -.112E-02 -.790E-03 0.216E-02
   0.379E+01 0.268E+01 -.226E+01   -.393E+01 -.278E+01 0.226E+01   0.161E+00 0.114E+00 -.165E-01   -.112E-02 -.790E-03 -.216E-02
   0.255E+01 -.833E+00 0.441E+01   -.262E+01 0.932E+00 -.454E+01   0.852E-01 -.100E+00 0.147E+00   0.651E-04 0.256E-02 0.113E-03
   0.267E+02 -.945E+01 -.490E-06   -.273E+02 0.966E+01 -.684E-11   0.553E+00 -.196E+00 0.104E-16   -.954E-03 0.337E-03 0.136E-07
   0.255E+01 -.833E+00 -.441E+01   -.262E+01 0.932E+00 0.454E+01   0.852E-01 -.100E+00 -.147E+00   0.651E-04 0.256E-02 -.113E-03
   0.124E+01 -.453E+01 0.215E+01   -.131E+01 0.463E+01 -.227E+01   0.756E-01 -.127E+00 0.131E+00   -.118E-02 -.975E-03 -.205E-02
   0.124E+01 -.453E+01 -.215E+01   -.131E+01 0.463E+01 0.227E+01   0.756E-01 -.127E+00 -.131E+00   -.118E-02 -.975E-03 0.205E-02
   0.194E+01 -.685E+00 0.654E-06   -.190E+01 0.673E+00 -.957E-12   -.413E-01 0.146E-01 0.139E-16   0.853E-03 -.302E-03 -.537E-08
   0.641E-01 0.268E+01 0.441E+01   0.579E-02 -.278E+01 -.454E+01   -.661E-01 0.114E+00 0.147E+00   0.243E-02 -.790E-03 0.113E-03
   -.237E-06 0.284E+02 -.489E-06   0.755E-07 -.290E+02 -.687E-11   -.260E-16 0.587E+00 0.130E-16   0.790E-08 -.101E-02 0.136E-07
   0.641E-01 0.268E+01 -.441E+01   0.579E-02 -.278E+01 0.454E+01   -.661E-01 0.114E+00 -.147E+00   0.243E-02 -.790E-03 -.113E-03
   -.134E+02 -.945E+01 0.232E+02   0.137E+02 0.966E+01 -.237E+02   -.277E+00 -.196E+00 0.479E+00   0.477E-03 0.337E-03 -.826E-03
   -.134E+02 -.945E+01 -.232E+02   0.137E+02 0.966E+01 0.237E+02   -.277E+00 -.196E+00 -.479E+00   0.477E-03 0.337E-03 0.826E-03
   0.240E+01 0.170E+01 0.617E-06   -.215E+01 -.152E+01 0.214E-11   -.271E+00 -.192E+00 -.191E-16   -.265E-02 -.188E-02 0.806E-07
   -.248E+01 -.453E+01 -.752E-06   0.263E+01 0.463E+01 0.212E-11   -.151E+00 -.127E+00 0.347E-17   0.237E-02 -.975E-03 -.159E-07
   0.120E+01 -.170E+01 0.208E+01   -.108E+01 0.152E+01 -.186E+01   -.136E+00 0.192E+00 -.235E+00   -.133E-02 0.188E-02 -.230E-02
   0.120E+01 -.170E+01 -.208E+01   -.108E+01 0.152E+01 0.186E+01   -.136E+00 0.192E+00 0.235E+00   -.133E-02 0.188E-02 0.230E-02
   -.385E+01 0.268E+01 0.215E+01   0.393E+01 -.278E+01 -.227E+01   -.947E-01 0.114E+00 0.131E+00   -.131E-02 -.790E-03 -.205E-02
   -.385E+01 0.268E+01 -.215E+01   0.393E+01 -.278E+01 0.227E+01   -.947E-01 0.114E+00 -.131E+00   -.131E-02 -.790E-03 0.205E-02
   0.369E-06 0.206E+01 0.649E-06   0.114E-06 -.202E+01 -.993E-12   -.130E-17 -.438E-01 -.104E-16   -.315E-08 0.905E-03 -.536E-08
   -.510E+01 -.833E+00 -.768E-06   0.524E+01 0.932E+00 0.242E-11   -.170E+00 -.100E+00 0.477E-17   -.130E-03 0.256E-02 -.159E-07
   -.120E+01 0.170E+01 0.208E+01   0.108E+01 -.152E+01 -.186E+01   0.136E+00 -.192E+00 -.235E+00   0.133E-02 -.188E-02 -.230E-02
   -.120E+01 0.170E+01 -.208E+01   0.108E+01 -.152E+01 0.186E+01   0.136E+00 -.192E+00 0.235E+00   0.133E-02 -.188E-02 0.230E-02
   -.969E+00 -.685E+00 0.168E+01   0.951E+00 0.673E+00 -.165E+01   0.207E-01 0.146E-01 -.358E-01   -.427E-03 -.302E-03 0.739E-03
   -.240E+01 -.170E+01 0.375E-06   0.215E+01 0.152E+01 -.115E-10   0.271E+00 0.192E+00 -.208E-16   0.265E-02 0.188E-02 -.144E-08
   -.969E+00 -.685E+00 -.168E+01   0.951E+00 0.673E+00 0.165E+01   0.207E-01 0.146E-01 0.358E-01   -.427E-03 -.302E-03 -.739E-03
   0.732E-06 0.333E-06 0.103E-05   -.119E-06 0.630E-07 0.622E-11   0.997E-17 0.867E-17 -.208E-16   -.682E-08 -.478E-08 -.118E-07
   -.324E+00 -.229E+00 0.187E+01   0.379E+00 0.268E+00 -.189E+01   -.424E-01 -.300E-01 0.118E-02   -.112E-02 -.793E-03 -.130E-02
   -.324E+00 -.229E+00 -.187E+01   0.379E+00 0.268E+00 0.189E+01   -.424E-01 -.300E-01 -.118E-02   -.112E-02 -.793E-03 0.130E-02
   0.378E+00 0.176E+01 0.654E+00   -.357E+00 -.181E+01 -.618E+00   -.208E-01 0.309E-01 -.361E-01   -.937E-03 -.270E-03 -.162E-02
   -.370E+01 0.131E+01 -.197E-05   0.380E+01 -.134E+01 0.719E-11   -.100E+00 0.355E-01 0.000E+00   0.270E-02 -.953E-03 -.186E-07
   0.378E+00 0.176E+01 -.654E+00   -.357E+00 -.181E+01 0.618E+00   -.208E-01 0.309E-01 0.361E-01   -.937E-03 -.271E-03 0.162E-02
   -.702E+00 -.130E+01 -.122E+01   0.736E+00 0.128E+01 0.128E+01   -.215E-01 0.290E-01 -.373E-01   -.185E-03 0.186E-02 -.320E-03
   -.702E+00 -.130E+01 0.122E+01   0.736E+00 0.128E+01 -.128E+01   -.215E-01 0.290E-01 0.373E-01   -.185E-03 0.186E-02 0.320E-03
   0.357E+01 -.126E+01 -.235E-06   -.321E+01 0.114E+01 -.659E-11   -.367E+00 0.130E+00 0.243E-16   0.518E-02 -.183E-02 0.656E-07
   0.178E+01 -.229E+00 0.654E+00   -.183E+01 0.268E+00 -.618E+00   0.222E-01 -.300E-01 -.361E-01   -.567E-03 -.793E-03 -.162E-02
   -.102E-05 -.392E+01 -.198E-05   -.118E-06 0.403E+01 0.717E-11   -.651E-18 -.107E+00 0.694E-17   -.107E-07 0.286E-02 -.186E-07
   0.178E+01 -.229E+00 -.654E+00   -.183E+01 0.268E+00 0.618E+00   0.222E-01 -.300E-01 0.361E-01   -.567E-03 -.793E-03 0.162E-02
   0.185E+01 0.131E+01 -.320E+01   -.190E+01 -.134E+01 0.329E+01   0.502E-01 0.355E-01 -.870E-01   -.135E-02 -.953E-03 0.233E-02
   0.185E+01 0.131E+01 0.320E+01   -.190E+01 -.134E+01 -.329E+01   0.502E-01 0.355E-01 0.870E-01   -.135E-02 -.953E-03 -.233E-02
   0.160E+02 0.113E+02 -.264E-07   -.172E+02 -.121E+02 -.407E-11   0.124E+01 0.879E+00 0.000E+00   -.529E-04 -.374E-04 -.230E-07
   0.140E+01 -.130E+01 0.157E-05   -.147E+01 0.128E+01 0.264E-11   0.431E-01 0.290E-01 0.173E-16   0.369E-03 0.186E-02 0.280E-07
   0.798E+01 -.113E+02 0.138E+02   -.858E+01 0.121E+02 -.149E+02   0.621E+00 -.879E+00 0.108E+01   -.264E-04 0.374E-04 -.458E-04
   0.798E+01 -.113E+02 -.138E+02   -.858E+01 0.121E+02 0.149E+02   0.621E+00 -.879E+00 -.108E+01   -.264E-04 0.374E-04 0.458E-04
   -.146E+01 -.229E+00 -.122E+01   0.145E+01 0.268E+00 0.128E+01   0.202E-01 -.300E-01 -.373E-01   0.169E-02 -.793E-03 -.320E-03
   -.146E+01 -.229E+00 0.122E+01   0.145E+01 0.268E+00 -.128E+01   0.202E-01 -.300E-01 0.373E-01   0.169E-02 -.793E-03 0.320E-03
   -.415E-08 0.378E+01 -.240E-06   -.134E-06 -.341E+01 -.656E-11   0.260E-17 -.389E+00 0.208E-16   0.379E-07 0.549E-02 0.656E-07
   -.755E+00 0.176E+01 0.157E-05   0.714E+00 -.181E+01 0.262E-11   0.417E-01 0.309E-01 0.130E-17   0.187E-02 -.271E-03 0.280E-07
   -.798E+01 0.113E+02 0.138E+02   0.858E+01 -.121E+02 -.149E+02   -.621E+00 0.879E+00 0.108E+01   0.264E-04 -.374E-04 -.458E-04
   -.798E+01 0.113E+02 -.138E+02   0.858E+01 -.121E+02 0.149E+02   -.621E+00 0.879E+00 -.108E+01   0.264E-04 -.374E-04 0.458E-04
   -.178E+01 -.126E+01 0.309E+01   0.161E+01 0.114E+01 -.278E+01   0.183E+00 0.130E+00 -.318E+00   -.259E-02 -.183E-02 0.449E-02
   -.160E+02 -.113E+02 -.171E-05   0.172E+02 0.121E+02 0.104E-10   -.124E+01 -.879E+00 -.694E-17   0.529E-04 0.374E-04 -.123E-07
   -.178E+01 -.126E+01 -.309E+01   0.161E+01 0.114E+01 0.278E+01   0.183E+00 0.130E+00 0.318E+00   -.259E-02 -.183E-02 -.449E-02
   0.166E-06 0.362E-06 0.568E-06   0.797E-08 -.423E-08 -.342E-12   -.195E-16 -.104E-16 -.312E-16   -.593E-08 -.427E-08 -.104E-07
 -----------------------------------------------------------------------------------------------
   0.304E-05 -.297E-05 -.443E-06   0.386E-13 -.229E-13 0.434E-15   -.119E-14 0.656E-15 0.191E-15   0.823E-08 0.577E-08 0.142E-07
 
 
 POSITION                                       TOTAL-FORCE (eV/Angst)
 -----------------------------------------------------------------------------------
      3.87974      2.74339      6.71990         0.000000     -0.000000      0.000000
      3.87138      2.73748     10.54460         0.017240      0.012190      0.017179
      3.87138      2.73748     14.41504         0.017240      0.012190     -0.017179
      4.97965      5.87215      8.62501         0.013579      0.001837      0.023520
      4.89584      5.91135     12.47982        -0.039142      0.013839      0.000000
      4.97965      5.87215     16.33462         0.013579      0.001837     -0.023520
      6.09695      9.03235     10.56023         0.003661     -0.026217      0.006340
      6.09695      9.03235     14.39940         0.003661     -0.026217     -0.006340
      6.09575      9.01434     18.23973        -0.005925      0.002095      0.000000
      7.19620      2.73748      8.62501         0.006258      0.012190      0.023520
      7.20523      2.64539     12.47982         0.000000     -0.041516      0.000000
      7.19620      2.73748     16.33462         0.006258      0.012190     -0.023520
      8.35992      5.91135     10.47983         0.019571      0.013839     -0.033898
      8.35992      5.91135     14.47980         0.019571      0.013839      0.033898
      8.30423      5.87198     18.23973        -0.025147     -0.017782      0.000000
      9.42177      9.03235     12.47982        -0.007321     -0.026217      0.000000
      9.41747      9.02070     16.31154        -0.012574      0.017782     -0.021778
      9.41747      9.02070     20.16792        -0.012574      0.017782      0.021778
     10.54810      2.73748     10.56023        -0.023498      0.012190      0.006340
     10.54810      2.73748     14.39940        -0.023498      0.012190     -0.006340
     10.53071      2.74235     18.23973         0.000000     -0.006284      0.000000
     11.65637      5.87215     12.47982        -0.027158      0.001837      0.000000
     11.64396      5.87198     16.31154         0.012574     -0.017782     -0.021778
     11.64396      5.87198     20.16792         0.012574     -0.017782      0.021778
     12.74820      9.01434     14.39894         0.002962      0.002095     -0.005131
     12.75720      9.02070     18.23973         0.025147      0.017782      0.000000
     12.74820      9.01434     22.08053         0.002962      0.002095      0.005131
      0.55425      0.39191      0.95999         0.000000     -0.000000      0.000000
      0.54888      0.38812      4.79838         0.011692      0.008267     -0.023835
      0.54888      0.38812      8.64142         0.011692      0.008267      0.023835
      1.65961      3.52974      2.87453        -0.001035     -0.027729     -0.001792
      1.66531      3.52631      6.71990         0.003013     -0.001065      0.000000
      1.65961      3.52974     10.56527        -0.001035     -0.027729      0.001792
      2.76900      6.66758      4.79605         0.012727      0.011194      0.022043
      2.76900      6.66758      8.64375         0.012727      0.011194     -0.022043
      2.69660      6.68890     12.47982        -0.009186      0.003248      0.000000
      3.88108      0.38812      2.87453        -0.026488      0.008267     -0.001792
      3.87974      0.39464      6.71990         0.000000      0.003195      0.000000
      3.88108      0.38812     10.56527        -0.026488      0.008267      0.001792
      4.98695      3.52631      4.80215        -0.001506     -0.001065      0.002609
      4.98695      3.52631      8.63765        -0.001506     -0.001065     -0.002609
      4.96243      3.50897     12.47982         0.036294      0.025664      0.000000
      6.10120      6.66758      6.71990        -0.025453      0.011194      0.000000
      6.08383      6.68076     10.53750         0.018147     -0.025664      0.031432
      6.08383      6.68076     14.42213         0.018147     -0.025664     -0.031432
      7.20925      0.38812      4.79605         0.014796      0.008267      0.022043
      7.20925      0.38812      8.64375         0.014796      0.008267     -0.022043
      7.20523      0.31275     12.47982         0.000000     -0.009744      0.000000
      8.31999      3.52974      6.71990         0.002069     -0.027729      0.000000
      8.32662      3.50897     10.53750        -0.018147      0.025664      0.031432
      8.32662      3.50897     14.42213        -0.018147      0.025664     -0.031432
      9.45954      6.68890      8.57524         0.004593      0.003248     -0.007956
      9.44802      6.68076     12.47982        -0.036294     -0.025664      0.000000
      9.45954      6.68890     16.38440         0.004593      0.003248      0.007956
      7.20523      5.09486     12.47982         0.000000     -0.000000      0.000000
 -----------------------------------------------------------------------------------
    total drift:                                0.000003     -0.000003     -0.000000


--------------------------------------------------------------------------------------------------------



  FREE ENERGIE OF THE ION-ELECTRON SYSTEM (eV)
  ---------------------------------------------------
  free  energy   TOTEN  =      -287.64406045 eV

  energy  without entropy=     -287.63357008  energy(sigma->0) =     -287.63881527
 
 d Force = 0.5129101E-02[ 0.358E-02, 0.668E-02]  d Energy = 0.5132320E-02-0.322E-05
 d Force = 0.2780751E+00[ 0.277E+00, 0.280E+00]  d Ewald  = 0.2780872E+00-0.122E-04


--------------------------------------------------------------------------------------------------------


    POTLOK:  cpu time    0.0883: real time    0.0891


--------------------------------------------------------------------------------------------------------


 Conjugate gradient step on ions:
 trial-energy change:   -0.005132  1 .order   -0.005129   -0.006679   -0.003579
  (g-gl).g = 0.662E-02      g.g   = 0.564E-02  gl.gl    = 0.825E-01
 g(Force)  = 0.564E-02   g(Stress)= 0.000E+00 ortho     = 0.377E-03
 gamma     =   0.08023
 trial     =   1.17814
 opt step  =   2.53861  (harmonic =   2.53861) maximal distance =0.00824941
 next E    =  -287.646124   (d E  =  -0.00720)


--------------------------------------------------------------------------------------------------------


  
 reached required accuracy - stopping structural energy minimisation
 writing wavefunctions
     LOOP+:  cpu time   31.5301: real time   33.9599
    4ORBIT:  cpu time    0.0000: real time    0.0000
 


 total charge     
 
# of ion       s       p       d       tot
------------------------------------------
    1        0.755   0.942   0.000   1.696
    2        0.757   0.938   0.000   1.695
    3        0.757   0.938   0.000   1.695
    4        0.757   0.938   0.000   1.695
    5        0.761   0.907   0.000   1.667
    6        0.757   0.938   0.000   1.695
    7        0.756   0.938   0.000   1.694
    8        0.756   0.938   0.000   1.694
    9        0.753   0.944   0.000   1.697
   10        0.757   0.939   0.000   1.697
   11        0.767   0.911   0.000   1.678
   12        0.757   0.939   0.000   1.697
   13        0.764   0.916   0.000   1.680
   14        0.764   0.916   0.000   1.680
   15        0.758   0.950   0.000   1.708
   16        0.758   0.938   0.000   1.696
   17        0.756   0.948   0.000   1.704
   18        0.756   0.948   0.000   1.704
   19        0.754   0.937   0.000   1.691
   20        0.754   0.938   0.000   1.692
   21        0.753   0.944   0.000   1.697
   22        0.756   0.937   0.000   1.693
   23        0.753   0.947   0.000   1.700
   24        0.754   0.947   0.000   1.700
   25        0.753   0.944   0.000   1.697
   26        0.755   0.948   0.000   1.703
   27        0.753   0.944   0.000   1.697
   28        0.751   0.943   0.000   1.695
   29        0.752   0.942   0.000   1.695
   30        0.752   0.942   0.000   1.695
   31        0.752   0.941   0.000   1.694
   32        0.754   0.944   0.000   1.698
   33        0.752   0.941   0.000   1.694
   34        0.753   0.942   0.000   1.695
   35        0.753   0.942   0.000   1.695
   36        0.760   0.947   0.000   1.707
   37        0.754   0.943   0.000   1.697
   38        0.753   0.944   0.000   1.697
   39        0.754   0.943   0.000   1.697
   40        0.753   0.945   0.000   1.698
   41        0.753   0.945   0.000   1.698
   42        0.764   0.908   0.000   1.672
   43        0.755   0.944   0.000   1.699
   44        0.763   0.910   0.000   1.673
   45        0.762   0.910   0.000   1.672
   46        0.753   0.943   0.000   1.696
   47        0.753   0.943   0.000   1.696
   48        0.764   0.946   0.000   1.710
   49        0.754   0.944   0.000   1.698
   50        0.760   0.909   0.000   1.669
   51        0.761   0.909   0.000   1.670
   52        0.763   0.942   0.000   1.706
   53        0.759   0.907   0.000   1.666
   54        0.763   0.942   0.000   1.706
   55        0.907   0.718   0.000   1.625
--------------------------------------------------
tot         41.757  51.293   0.000  93.049
 

 total amount of memory used by VASP MPI-rank0   123928. kBytes
=======================================================================

   base      :      30000. kBytes
   nonl-proj :      44165. kBytes
   fftplans  :       5382. kBytes
   grid      :      19496. kBytes
   one-center:        168. kBytes
   wavefun   :      24717. kBytes
 
  
  
 General timing and accounting informations for this job:
 ========================================================
  
                  Total CPU time used (sec):      239.747
                            User time (sec):      233.472
                          System time (sec):        6.275
                         Elapsed time (sec):      252.471
  
                   Maximum memory used (kb):      414048.
                   Average memory used (kb):           0.
  
                          Minor page faults:        70434
                          Major page faults:            0
                 Voluntary context switches:         4508
