<?xml version="1.0" encoding="ISO-8859-1"?>
<modeling>
 <generator>
  <i name="program" type="string">vasp </i>
  <i name="version" type="string">5.4.4.18Apr17-6-g9f103f2a35  </i>
  <i name="subversion" type="string">(build Jun 19 2019 10:34:07) complex            parallel </i>
  <i name="platform" type="string">LB-5.4 </i>
  <i name="date" type="string">2023 05 15 </i>
  <i name="time" type="string">18:42:44 </i>
 </generator>
 <incar>
  <i type="string" name="SYSTEM"> Si</i>
  <i type="string" name="PREC">normal</i>
  <i type="string" name="ALGO"> Normal</i>
  <i type="int" name="ISPIN">     1</i>
  <i name="AMIX">      0.20000000</i>
  <i type="int" name="NELM">   200</i>
  <i type="int" name="IBRION">     2</i>
  <i name="EDIFF">      0.00001000</i>
  <i name="EDIFFG">     -0.05000000</i>
  <i type="int" name="NSW">   100</i>
  <i type="int" name="ISIF">     2</i>
  <i type="int" name="ISYM">     2</i>
  <i name="ENCUT">    550.00000000</i>
  <i name="NELECT">    221.00000000</i>
  <i type="logical" name="LREAL"> F  </i>
  <i type="int" name="ISMEAR">     0</i>
  <i name="SIGMA">      0.05000000</i>
  <i type="logical" name="LWAVE"> T  </i>
  <i type="logical" name="LCHARG"> T  </i>
  <i type="int" name="LORBIT">    10</i>
  <v type="int" name="KPOINT_BSE">    -1     0     0     0</v>
  <i type="int" name="NELM">   200</i>
 </incar>
 <structure name="primitive_cell" >
  <crystal>
   <varray name="basis" >
    <v>       9.97646553       0.00000000       5.75991507 </v>
    <v>       3.32548851       9.40590192       5.75991507 </v>
    <v>       0.00000000       0.00000000      11.51983014 </v>
   </varray>
   <i name="volume">   1080.99386112 </i>
   <varray name="rec_basis" >
    <v>       0.10023590      -0.03543874       0.00000000 </v>
    <v>       0.00000000       0.10631623       0.00000000 </v>
    <v>      -0.05011795      -0.03543874       0.08680684 </v>
   </varray>
  </crystal>
  <varray name="positions" >
   <v>       0.29166667       0.29166667       0.29166667 </v>
   <v>       0.04166667       0.37500000       0.37500000 </v>
   <v>       0.37500000       0.37500000       0.04166667 </v>
   <v>       0.37500000       0.37500000       0.37500000 </v>
   <v>       0.37500000       0.04166667       0.37500000 </v>
   <v>      -0.04166667       0.29166667       0.29166667 </v>
   <v>      -0.37500000       0.29166667      -0.04166667 </v>
   <v>      -0.04166667       0.29166667      -0.37500000 </v>
   <v>      -0.37500000       0.29166667       0.29166667 </v>
   <v>      -0.37500000      -0.04166667       0.29166667 </v>
   <v>      -0.04166667      -0.37500000       0.29166667 </v>
   <v>       0.29166667      -0.04166667       0.29166667 </v>
   <v>       0.29166667      -0.37500000      -0.04166667 </v>
   <v>       0.29166667      -0.04166667      -0.37500000 </v>
   <v>       0.29166667      -0.37500000       0.29166667 </v>
   <v>       0.29166667       0.29166667      -0.04166667 </v>
   <v>       0.29166667       0.29166667      -0.37500000 </v>
   <v>      -0.29166667       0.37500000       0.04166667 </v>
   <v>       0.04166667       0.04166667       0.37500000 </v>
   <v>      -0.29166667       0.04166667       0.04166667 </v>
   <v>       0.04166667       0.04166667      -0.29166667 </v>
   <v>      -0.29166667       0.04166667       0.37500000 </v>
   <v>       0.37500000      -0.29166667       0.04166667 </v>
   <v>       0.04166667       0.37500000       0.04166667 </v>
   <v>       0.04166667       0.37500000      -0.29166667 </v>
   <v>       0.04166667      -0.29166667       0.04166667 </v>
   <v>       0.04166667      -0.29166667       0.37500000 </v>
   <v>       0.37500000       0.04166667       0.04166667 </v>
   <v>       0.37500000       0.04166667      -0.29166667 </v>
   <v>      -0.04166667      -0.04166667      -0.37500000 </v>
   <v>      -0.37500000      -0.37500000      -0.04166667 </v>
   <v>      -0.37500000      -0.04166667      -0.04166667 </v>
   <v>      -0.04166667      -0.37500000      -0.04166667 </v>
   <v>      -0.37500000      -0.04166667      -0.37500000 </v>
   <v>      -0.04166667      -0.37500000      -0.37500000 </v>
   <v>      -0.29166667       0.37500000       0.37500000 </v>
   <v>      -0.29166667       0.37500000      -0.29166667 </v>
   <v>      -0.29166667      -0.29166667       0.37500000 </v>
   <v>       0.37500000      -0.29166667      -0.29166667 </v>
   <v>       0.37500000      -0.29166667       0.37500000 </v>
   <v>       0.37500000       0.37500000      -0.29166667 </v>
   <v>      -0.37500000       0.29166667      -0.37500000 </v>
   <v>      -0.04166667       0.29166667      -0.04166667 </v>
   <v>      -0.37500000      -0.37500000       0.29166667 </v>
   <v>      -0.04166667      -0.04166667      -0.04166667 </v>
   <v>      -0.37500000      -0.37500000      -0.37500000 </v>
   <v>      -0.04166667      -0.04166667       0.29166667 </v>
   <v>       0.29166667      -0.37500000      -0.37500000 </v>
   <v>       0.29166667      -0.04166667      -0.04166667 </v>
   <v>      -0.45833333      -0.45833333      -0.45833333 </v>
   <v>      -0.29166667       0.04166667      -0.29166667 </v>
   <v>       0.04166667       0.04166667       0.04166667 </v>
   <v>      -0.29166667      -0.29166667      -0.29166667 </v>
   <v>      -0.29166667      -0.29166667       0.04166667 </v>
   <v>       0.04166667      -0.29166667      -0.29166667 </v>
  </varray>
 </structure>
 <varray name="primitive_index" >
  <v type="int" >        1 </v>
  <v type="int" >       32 </v>
  <v type="int" >       40 </v>
  <v type="int" >       41 </v>
  <v type="int" >       38 </v>
  <v type="int" >       19 </v>
  <v type="int" >       12 </v>
  <v type="int" >       20 </v>
  <v type="int" >       10 </v>
  <v type="int" >       16 </v>
  <v type="int" >       22 </v>
  <v type="int" >        7 </v>
  <v type="int" >        6 </v>
  <v type="int" >        8 </v>
  <v type="int" >        4 </v>
  <v type="int" >        3 </v>
  <v type="int" >        2 </v>
  <v type="int" >       49 </v>
  <v type="int" >       29 </v>
  <v type="int" >       46 </v>
  <v type="int" >       30 </v>
  <v type="int" >       47 </v>
  <v type="int" >       43 </v>
  <v type="int" >       31 </v>
  <v type="int" >       33 </v>
  <v type="int" >       34 </v>
  <v type="int" >       35 </v>
  <v type="int" >       37 </v>
  <v type="int" >       39 </v>
  <v type="int" >       26 </v>
  <v type="int" >       15 </v>
  <v type="int" >       18 </v>
  <v type="int" >       24 </v>
  <v type="int" >       17 </v>
  <v type="int" >       23 </v>
  <v type="int" >       50 </v>
  <v type="int" >       51 </v>
  <v type="int" >       53 </v>
  <v type="int" >       45 </v>
  <v type="int" >       44 </v>
  <v type="int" >       42 </v>
  <v type="int" >       11 </v>
  <v type="int" >       21 </v>
  <v type="int" >       13 </v>
  <v type="int" >       27 </v>
  <v type="int" >       14 </v>
  <v type="int" >       25 </v>
  <v type="int" >        5 </v>
  <v type="int" >        9 </v>
  <v type="int" >       55 </v>
  <v type="int" >       48 </v>
  <v type="int" >       28 </v>
  <v type="int" >       54 </v>
  <v type="int" >       52 </v>
  <v type="int" >       36 </v>
 </varray>
 <kpoints>
  <generation param="Gamma">
   <v type="int" name="divisions">       4        4        4 </v>
   <v name="usershift">      0.00000000       0.00000000       0.00000000 </v>
   <v name="genvec1">      0.25000000       0.00000000       0.00000000 </v>
   <v name="genvec2">      0.00000000       0.25000000       0.00000000 </v>
   <v name="genvec3">     -0.00000000      -0.00000000       0.25000000 </v>
   <v name="shift">      0.00000000       0.00000000       0.00000000 </v>
  </generation>
  <varray name="kpointlist" >
   <v>       0.00000000       0.00000000       0.00000000 </v>
   <v>       0.25000000       0.00000000       0.00000000 </v>
   <v>       0.50000000       0.00000000       0.00000000 </v>
   <v>       0.25000000       0.25000000       0.00000000 </v>
   <v>       0.50000000       0.25000000       0.00000000 </v>
   <v>      -0.25000000       0.25000000       0.00000000 </v>
   <v>       0.50000000       0.50000000       0.00000000 </v>
   <v>      -0.25000000       0.50000000       0.25000000 </v>
  </varray>
  <varray name="weights" >
   <v>       0.01562500 </v>
   <v>       0.12500000 </v>
   <v>       0.06250000 </v>
   <v>       0.09375000 </v>
   <v>       0.37500000 </v>
   <v>       0.18750000 </v>
   <v>       0.04687500 </v>
   <v>       0.09375000 </v>
  </varray>
 </kpoints>
 <parameters>
  <separator name="general" >
   <i type="string" name="SYSTEM">Si</i>
   <i type="logical" name="LCOMPAT"> F  </i>
  </separator>
  <separator name="electronic" >
   <i type="string" name="PREC">normal</i>
   <i name="ENMAX">    550.00000000</i>
   <i name="ENAUG">    322.06900000</i>
   <i name="EDIFF">      0.00001000</i>
   <i type="int" name="IALGO">    38</i>
   <i type="int" name="IWAVPR">    11</i>
   <i type="int" name="NBANDS">   144</i>
   <i name="NELECT">    221.00000000</i>
   <i type="int" name="TURBO">     0</i>
   <i type="int" name="IRESTART">     0</i>
   <i type="int" name="NREBOOT">     0</i>
   <i type="int" name="NMIN">     0</i>
   <i name="EREF">      0.00000000</i>
   <separator name="electronic smearing" >
    <i type="int" name="ISMEAR">     0</i>
    <i name="SIGMA">      0.05000000</i>
    <i name="KSPACING">      0.50000000</i>
    <i type="logical" name="KGAMMA"> T  </i>
   </separator>
   <separator name="electronic projectors" >
    <i type="logical" name="LREAL"> F  </i>
    <v name="ROPT">      0.00000000</v>
    <i type="int" name="LMAXPAW">  -100</i>
    <i type="int" name="LMAXMIX">     2</i>
    <i type="logical" name="NLSPLINE"> F  </i>
   </separator>
   <separator name="electronic startup" >
    <i type="int" name="ISTART">     1</i>
    <i type="int" name="ICHARG">     0</i>
    <i type="int" name="INIWAV">     1</i>
   </separator>
   <separator name="electronic spin" >
    <i type="int" name="ISPIN">     1</i>
    <i type="logical" name="LNONCOLLINEAR"> F  </i>
    <v name="MAGMOM">      1.00000000      1.00000000      1.00000000      1.00000000      1.00000000      1.00000000      1.00000000      1.00000000      1.00000000      1.00000000      1.00000000      1.00000000      1.00000000      1.00000000      1.00000000      1.00000000      1.00000000      1.00000000      1.00000000      1.00000000
      1.00000000      1.00000000      1.00000000      1.00000000      1.00000000      1.00000000      1.00000000      1.00000000      1.00000000      1.00000000      1.00000000      1.00000000      1.00000000      1.00000000      1.00000000      1.00000000      1.00000000      1.00000000      1.00000000      1.00000000
      1.00000000      1.00000000      1.00000000      1.00000000      1.00000000      1.00000000      1.00000000      1.00000000      1.00000000      1.00000000      1.00000000      1.00000000      1.00000000      1.00000000      1.00000000</v>
    <i name="NUPDOWN">     -1.00000000</i>
    <i type="logical" name="LSORBIT"> F  </i>
    <v name="SAXIS">      0.00000000      0.00000000      1.00000000</v>
    <i type="logical" name="LSPIRAL"> F  </i>
    <v name="QSPIRAL">      0.00000000      0.00000000      0.00000000</v>
    <i type="logical" name="LZEROZ"> F  </i>
   </separator>
   <separator name="electronic exchange-correlation" >
    <i type="logical" name="LASPH"> F  </i>
    <i type="logical" name="LMETAGGA"> F  </i>
   </separator>
   <separator name="electronic convergence" >
    <i type="int" name="NELM">   200</i>
    <i type="int" name="NELMDL">     0</i>
    <i type="int" name="NELMIN">     2</i>
    <i name="ENINI">    550.00000000</i>
    <separator name="electronic convergence detail" >
     <i type="logical" name="LDIAG"> T  </i>
     <i type="logical" name="LSUBROT"> F  </i>
     <i name="WEIMIN">      0.00100000</i>
     <i name="EBREAK">      0.00000002</i>
     <i name="DEPER">      0.30000000</i>
     <i type="int" name="NRMM">     4</i>
     <i name="TIME">      0.40000000</i>
    </separator>
   </separator>
   <separator name="electronic mixer" >
    <i name="AMIX">      0.20000000</i>
    <i name="BMIX">      1.00000000</i>
    <i name="AMIN">      0.10000000</i>
    <i name="AMIX_MAG">      0.80000000</i>
    <i name="BMIX_MAG">      1.00000000</i>
    <separator name="electronic mixer details" >
     <i type="int" name="IMIX">     4</i>
     <i type="logical" name="MIXFIRST"> F  </i>
     <i type="int" name="MAXMIX">   -45</i>
     <i name="WC">    100.00000000</i>
     <i type="int" name="INIMIX">     1</i>
     <i type="int" name="MIXPRE">     1</i>
     <i type="int" name="MREMOVE">     5</i>
    </separator>
   </separator>
   <separator name="electronic dipolcorrection" >
    <i type="logical" name="LDIPOL"> F  </i>
    <i type="logical" name="LMONO"> F  </i>
    <i type="int" name="IDIPOL">     0</i>
    <i name="EPSILON">      1.00000000</i>
    <v name="DIPOL">   -100.00000000   -100.00000000   -100.00000000</v>
    <i name="EFIELD">      0.00000000</i>
   </separator>
  </separator>
  <separator name="grids" >
   <i type="int" name="NGX">    70</i>
   <i type="int" name="NGY">    70</i>
   <i type="int" name="NGZ">    70</i>
   <i type="int" name="NGXF">   140</i>
   <i type="int" name="NGYF">   140</i>
   <i type="int" name="NGZF">   140</i>
   <i type="logical" name="ADDGRID"> F  </i>
  </separator>
  <separator name="ionic" >
   <i type="int" name="NSW">   100</i>
   <i type="int" name="IBRION">     2</i>
   <i type="int" name="MDALGO">     0</i>
   <i type="int" name="ISIF">     2</i>
   <i name="PSTRESS">      0.00000000</i>
   <i name="EDIFFG">     -0.05000000</i>
   <i type="int" name="NFREE">     1</i>
   <i name="POTIM">      0.50000000</i>
   <i name="SMASS">     -3.00000000</i>
   <i name="SCALEE">      1.00000000</i>
  </separator>
  <separator name="ionic md" >
   <i name="TEBEG">      0.00010000</i>
   <i name="TEEND">      0.00010000</i>
   <i type="int" name="NBLOCK">     1</i>
   <i type="int" name="KBLOCK">   100</i>
   <i type="int" name="NPACO">   256</i>
   <i name="APACO">     16.00000000</i>
  </separator>
  <separator name="symmetry" >
   <i type="int" name="ISYM">     2</i>
   <i name="SYMPREC">      0.00001000</i>
  </separator>
  <separator name="dos" >
   <i type="int" name="LORBIT">    10</i>
   <v name="RWIGS">     -1.00000000</v>
   <i type="int" name="NEDOS">   301</i>
   <i name="EMIN">     10.00000000</i>
   <i name="EMAX">    -10.00000000</i>
   <i name="EFERMI">      0.00000000</i>
  </separator>
  <separator name="writing" >
   <i type="int" name="NWRITE">     2</i>
   <i type="logical" name="LWAVE"> T  </i>
   <i type="logical" name="LDOWNSAMPLE"> F  </i>
   <i type="logical" name="LCHARG"> T  </i>
   <i type="logical" name="LPARD"> F  </i>
   <i type="logical" name="LVTOT"> F  </i>
   <i type="logical" name="LVHAR"> F  </i>
   <i type="logical" name="LELF"> F  </i>
   <i type="logical" name="LOPTICS"> F  </i>
   <v name="STM">      0.00000000      0.00000000      0.00000000      0.00000000      0.00000000      0.00000000      0.00000000</v>
  </separator>
  <separator name="performance" >
   <i type="int" name="NPAR">    24</i>
   <i type="int" name="NSIM">     4</i>
   <i type="int" name="NBLK">    -1</i>
   <i type="logical" name="LPLANE"> T  </i>
   <i type="logical" name="LSCALAPACK"> T  </i>
   <i type="logical" name="LSCAAWARE"> F  </i>
   <i type="logical" name="LSCALU"> F  </i>
   <i type="logical" name="LASYNC"> F  </i>
   <i type="logical" name="LORBITALREAL"> F  </i>
  </separator>
  <separator name="miscellaneous" >
   <i type="int" name="IDIOT">     3</i>
   <i type="int" name="ISPECIAL">     0</i>
   <i type="logical" name="LMUSIC"> F  </i>
   <v name="POMASS">     28.08500000</v>
   <v name="DARWINR">      0.00000000</v>
   <v name="DARWINV">      1.00000000</v>
   <i type="logical" name="LCORR"> T  </i>
  </separator>
  <i type="logical" name="GGA_COMPAT"> T  </i>
  <i type="logical" name="LBERRY"> F  </i>
  <i type="int" name="ICORELEVEL">     0</i>
  <i type="logical" name="LDAU"> F  </i>
  <i type="int" name="I_CONSTRAINED_M">     0</i>
  <separator name="electronic exchange-correlation" >
   <i type="string" name="GGA">--</i>
   <i type="int" name="VOSKOWN">     0</i>
   <i type="logical" name="LHFCALC"> F  </i>
   <i type="string" name="PRECFOCK"></i>
   <i type="logical" name="LSYMGRAD"> F  </i>
   <i type="logical" name="LHFONE"> F  </i>
   <i type="logical" name="LRHFCALC"> F  </i>
   <i type="logical" name="LTHOMAS"> F  </i>
   <i type="logical" name="LMODELHF"> F  </i>
   <i name="ENCUT4O">     -1.00000000</i>
   <i type="int" name="EXXOEP">     0</i>
   <i type="int" name="FOURORBIT">     0</i>
   <i name="AEXX">      0.00000000</i>
   <i name="HFALPHA">      0.00000000</i>
   <i name="MCALPHA">      0.00000000</i>
   <i name="ALDAX">      1.00000000</i>
   <i name="AGGAX">      1.00000000</i>
   <i name="ALDAC">      1.00000000</i>
   <i name="AGGAC">      1.00000000</i>
   <i type="int" name="NKREDX">     1</i>
   <i type="int" name="NKREDY">     1</i>
   <i type="int" name="NKREDZ">     1</i>
   <i type="logical" name="SHIFTRED"> F  </i>
   <i type="logical" name="ODDONLY"> F  </i>
   <i type="logical" name="EVENONLY"> F  </i>
   <i type="int" name="LMAXFOCK">     0</i>
   <i type="int" name="NMAXFOCKAE">     0</i>
   <i type="logical" name="LFOCKAEDFT"> F  </i>
   <i name="HFSCREEN">      0.00000000</i>
   <i name="HFSCREENC">      0.00000000</i>
   <i type="int" name="NBANDSGWLOW">     0</i>
  </separator>
  <separator name="vdW DFT" >
   <i type="logical" name="LUSE_VDW"> F  </i>
   <i name="Zab_VDW">     -0.84910000</i>
   <i name="PARAM1">      0.12340000</i>
   <i name="PARAM2">      1.00000000</i>
   <i name="PARAM3">      0.00000000</i>
  </separator>
  <separator name="model GW" >
   <i type="int" name="MODEL_GW">     0</i>
   <i name="MODEL_EPS0">     11.79266030</i>
   <i name="MODEL_ALPHA">      1.00000000</i>
  </separator>
  <separator name="linear response parameters" >
   <i type="logical" name="LEPSILON"> F  </i>
   <i type="logical" name="LRPA"> F  </i>
   <i type="logical" name="LNABLA"> F  </i>
   <i type="logical" name="LVEL"> F  </i>
   <i type="int" name="KINTER">     0</i>
   <i name="CSHIFT">      0.10000000</i>
   <i name="OMEGAMAX">     -1.00000000</i>
   <i name="DEG_THRESHOLD">      0.00200000</i>
   <i name="RTIME">     -0.10000000</i>
   <i name="WPLASMAI">      0.00000000</i>
   <v name="DFIELD">      0.00000000      0.00000000      0.00000000</v>
   <v name="WPLASMA">      0.00000000      0.00000000      0.00000000      0.00000000      0.00000000      0.00000000      0.00000000      0.00000000      0.00000000</v>
  </separator>
  <separator name="orbital magnetization" >
   <i type="logical" name="NUCIND"> F  </i>
   <v name="MAGPOS">      0.00000000      0.00000000      0.00000000</v>
   <i type="logical" name="LNICSALL"> T  </i>
   <i type="logical" name="ORBITALMAG"> F  </i>
   <i type="logical" name="LMAGBLOCH"> F  </i>
   <i type="logical" name="LCHIMAG"> F  </i>
   <i type="logical" name="LGAUGE"> T  </i>
   <i type="int" name="MAGATOM">     0</i>
   <v name="MAGDIPOL">      0.00000000      0.00000000      0.00000000</v>
   <v name="AVECCONST">      0.00000000      0.00000000      0.00000000</v>
  </separator>
  <separator name="response functions" >
   <i type="logical" name="LADDER"> F  </i>
   <i type="logical" name="LRPAFORCE"> F  </i>
   <i type="logical" name="LFXC"> F  </i>
   <i type="logical" name="LHARTREE"> T  </i>
   <i type="int" name="IBSE">     0</i>
   <v type="int" name="KPOINT">    -1     0     0     0</v>
   <i type="logical" name="LTCTE"> F  </i>
   <i type="logical" name="LTETE"> F  </i>
   <i type="logical" name="LTRIPLET"> F  </i>
   <i type="logical" name="LFXCEPS"> F  </i>
   <i type="logical" name="LFXHEG"> F  </i>
   <i type="int" name="NATURALO">     2</i>
   <i type="logical" name="L2ORDER"> F  </i>
   <i type="logical" name="LMP2LT"> F  </i>
   <i type="logical" name="LUSEW"> F  </i>
   <i name="ENCUTGW">     -2.00000000</i>
   <i name="ENCUTGWSOFT">     -2.00000000</i>
   <i name="ENCUTLF">     -1.00000000</i>
   <i type="int" name="LMAXMP2">    -1</i>
   <i name="SCISSOR">      0.00000000</i>
   <i type="int" name="NOMEGA">     0</i>
   <i type="int" name="NOMEGAR">     0</i>
   <i type="int" name="NBANDSGW">    -1</i>
   <i type="int" name="NBANDSO">    -1</i>
   <i type="int" name="NBANDSV">    -1</i>
   <i type="int" name="NELM">   200</i>
   <i type="int" name="NELMHF">     1</i>
   <i type="int" name="DIM">     3</i>
   <i type="int" name="ANTIRES">     0</i>
   <i name="OMEGAMAX">    -30.00000000</i>
   <i name="OMEGAMIN">    -30.00000000</i>
   <i name="OMEGATL">   -200.00000000</i>
   <i type="int" name="OMEGAGRID">   140</i>
   <i name="CSHIFT">     -0.10000000</i>
   <i type="logical" name="SELFENERGY"> F  </i>
   <i type="logical" name="LSPECTRAL"> F  </i>
   <i type="logical" name="LSPECTRALGW"> F  </i>
   <i type="logical" name="LSINGLES"> F  </i>
   <i type="logical" name="LFERMIGW"> F  </i>
   <i type="logical" name="ODDONLYGW"> F  </i>
   <i type="logical" name="EVENONLYGW"> F  </i>
   <i type="int" name="NKREDLFX">     1</i>
   <i type="int" name="NKREDLFY">     1</i>
   <i type="int" name="NKREDLFZ">     1</i>
   <i type="int" name="MAXMEM">  2800</i>
   <i type="int" name="TELESCOPE">     0</i>
   <i type="int" name="TAUPAR">     1</i>
   <i type="int" name="OMEGAPAR">    -1</i>
   <i name="LAMBDA">      1.00000000</i>
  </separator>
  <separator name="External order field" >
   <i name="OFIELD_KAPPA">      0.00000000</i>
   <v name="OFIELD_K">      0.00000000      0.00000000      0.00000000</v>
   <i name="OFIELD_Q6_NEAR">      0.00000000</i>
   <i name="OFIELD_Q6_FAR">      0.00000000</i>
   <i name="OFIELD_A">      0.00000000</i>
  </separator>
 </parameters>
 <atominfo>
  <atoms>      55 </atoms>
  <types>       1 </types>
  <array name="atoms" >
   <dimension dim="1">ion</dimension>
   <field type="string">element</field>
   <field type="int">atomtype</field>
   <set>
    <rc><c>Si</c><c>   1</c></rc>
    <rc><c>Si</c><c>   1</c></rc>
    <rc><c>Si</c><c>   1</c></rc>
    <rc><c>Si</c><c>   1</c></rc>
    <rc><c>Si</c><c>   1</c></rc>
    <rc><c>Si</c><c>   1</c></rc>
    <rc><c>Si</c><c>   1</c></rc>
    <rc><c>Si</c><c>   1</c></rc>
    <rc><c>Si</c><c>   1</c></rc>
    <rc><c>Si</c><c>   1</c></rc>
    <rc><c>Si</c><c>   1</c></rc>
    <rc><c>Si</c><c>   1</c></rc>
    <rc><c>Si</c><c>   1</c></rc>
    <rc><c>Si</c><c>   1</c></rc>
    <rc><c>Si</c><c>   1</c></rc>
    <rc><c>Si</c><c>   1</c></rc>
    <rc><c>Si</c><c>   1</c></rc>
    <rc><c>Si</c><c>   1</c></rc>
    <rc><c>Si</c><c>   1</c></rc>
    <rc><c>Si</c><c>   1</c></rc>
    <rc><c>Si</c><c>   1</c></rc>
    <rc><c>Si</c><c>   1</c></rc>
    <rc><c>Si</c><c>   1</c></rc>
    <rc><c>Si</c><c>   1</c></rc>
    <rc><c>Si</c><c>   1</c></rc>
    <rc><c>Si</c><c>   1</c></rc>
    <rc><c>Si</c><c>   1</c></rc>
    <rc><c>Si</c><c>   1</c></rc>
    <rc><c>Si</c><c>   1</c></rc>
    <rc><c>Si</c><c>   1</c></rc>
    <rc><c>Si</c><c>   1</c></rc>
    <rc><c>Si</c><c>   1</c></rc>
    <rc><c>Si</c><c>   1</c></rc>
    <rc><c>Si</c><c>   1</c></rc>
    <rc><c>Si</c><c>   1</c></rc>
    <rc><c>Si</c><c>   1</c></rc>
    <rc><c>Si</c><c>   1</c></rc>
    <rc><c>Si</c><c>   1</c></rc>
    <rc><c>Si</c><c>   1</c></rc>
    <rc><c>Si</c><c>   1</c></rc>
    <rc><c>Si</c><c>   1</c></rc>
    <rc><c>Si</c><c>   1</c></rc>
    <rc><c>Si</c><c>   1</c></rc>
    <rc><c>Si</c><c>   1</c></rc>
    <rc><c>Si</c><c>   1</c></rc>
    <rc><c>Si</c><c>   1</c></rc>
    <rc><c>Si</c><c>   1</c></rc>
    <rc><c>Si</c><c>   1</c></rc>
    <rc><c>Si</c><c>   1</c></rc>
    <rc><c>Si</c><c>   1</c></rc>
    <rc><c>Si</c><c>   1</c></rc>
    <rc><c>Si</c><c>   1</c></rc>
    <rc><c>Si</c><c>   1</c></rc>
    <rc><c>Si</c><c>   1</c></rc>
    <rc><c>Si</c><c>   1</c></rc>
   </set>
  </array>
  <array name="atomtypes" >
   <dimension dim="1">type</dimension>
   <field type="int">atomspertype</field>
   <field type="string">element</field>
   <field>mass</field>
   <field>valence</field>
   <field type="string">pseudopotential</field>
   <set>
    <rc><c>  55</c><c>Si</c><c>     28.08500000</c><c>      4.00000000</c><c>  PAW_PBE Si 05Jan2001                  </c></rc>
   </set>
  </array>
 </atominfo>
 <structure name="initialpos" >
  <crystal>
   <varray name="basis" >
    <v>       9.97646553       0.00000000       5.75991507 </v>
    <v>       3.32548851       9.40590192       5.75991507 </v>
    <v>       0.00000000       0.00000000      11.51983014 </v>
   </varray>
   <i name="volume">   1080.99386112 </i>
   <varray name="rec_basis" >
    <v>       0.10023590      -0.03543874       0.00000000 </v>
    <v>       0.00000000       0.10631623       0.00000000 </v>
    <v>      -0.05011795      -0.03543874       0.08680684 </v>
   </varray>
  </crystal>
  <varray name="positions" >
   <v>       0.29166667       0.29166667       0.29166667 </v>
   <v>       0.29166667       0.29166667       0.62500000 </v>
   <v>       0.29166667       0.29166667       0.95833333 </v>
   <v>       0.29166667       0.62500000       0.29166667 </v>
   <v>       0.29166667       0.62500000       0.62500000 </v>
   <v>       0.29166667       0.62500000       0.95833333 </v>
   <v>       0.29166667       0.95833333       0.29166667 </v>
   <v>       0.29166667       0.95833333       0.62500000 </v>
   <v>       0.29166667       0.95833333       0.95833333 </v>
   <v>       0.62500000       0.29166667       0.29166667 </v>
   <v>       0.62500000       0.29166667       0.62500000 </v>
   <v>       0.62500000       0.29166667       0.95833333 </v>
   <v>       0.62500000       0.62500000       0.29166667 </v>
   <v>       0.62500000       0.62500000       0.62500000 </v>
   <v>       0.62500000       0.62500000       0.95833333 </v>
   <v>       0.62500000       0.95833333       0.29166667 </v>
   <v>       0.62500000       0.95833333       0.62500000 </v>
   <v>       0.62500000       0.95833333       0.95833333 </v>
   <v>       0.95833333       0.29166667       0.29166667 </v>
   <v>       0.95833333       0.29166667       0.62500000 </v>
   <v>       0.95833333       0.29166667       0.95833333 </v>
   <v>       0.95833333       0.62500000       0.29166667 </v>
   <v>       0.95833333       0.62500000       0.62500000 </v>
   <v>       0.95833333       0.62500000       0.95833333 </v>
   <v>       0.95833333       0.95833333       0.29166667 </v>
   <v>       0.95833333       0.95833333       0.62500000 </v>
   <v>       0.95833333       0.95833333       0.95833333 </v>
   <v>       0.04166667       0.04166667       0.04166667 </v>
   <v>       0.04166667       0.04166667       0.37500000 </v>
   <v>       0.04166667       0.04166667       0.70833333 </v>
   <v>       0.04166667       0.37500000       0.04166667 </v>
   <v>       0.04166667       0.37500000       0.37500000 </v>
   <v>       0.04166667       0.37500000       0.70833333 </v>
   <v>       0.04166667       0.70833333       0.04166667 </v>
   <v>       0.04166667       0.70833333       0.37500000 </v>
   <v>       0.04166667       0.70833333       0.70833333 </v>
   <v>       0.37500000       0.04166667       0.04166667 </v>
   <v>       0.37500000       0.04166667       0.37500000 </v>
   <v>       0.37500000       0.04166667       0.70833333 </v>
   <v>       0.37500000       0.37500000       0.04166667 </v>
   <v>       0.37500000       0.37500000       0.37500000 </v>
   <v>       0.37500000       0.37500000       0.70833333 </v>
   <v>       0.37500000       0.70833333       0.04166667 </v>
   <v>       0.37500000       0.70833333       0.37500000 </v>
   <v>       0.37500000       0.70833333       0.70833333 </v>
   <v>       0.70833333       0.04166667       0.04166667 </v>
   <v>       0.70833333       0.04166667       0.37500000 </v>
   <v>       0.70833333       0.04166667       0.70833333 </v>
   <v>       0.70833333       0.37500000       0.04166667 </v>
   <v>       0.70833333       0.37500000       0.37500000 </v>
   <v>       0.70833333       0.37500000       0.70833333 </v>
   <v>       0.70833333       0.70833333       0.04166667 </v>
   <v>       0.70833333       0.70833333       0.37500000 </v>
   <v>       0.70833333       0.70833333       0.70833333 </v>
   <v>       0.54166667       0.54166667       0.54166667 </v>
  </varray>
 </structure>
 <calculation>
  <scstep>
   <time name="dav">    3.41    3.44</time>
   <time name="total">    3.90    3.95</time>
   <energy>
    <i name="alphaZ">     94.20124788 </i>
    <i name="ewald">  -6283.32455330 </i>
    <i name="hartreedc">   -437.60604373 </i>
    <i name="XCdc">   -489.56431416 </i>
    <i name="pawpsdc">  24157.09036203 </i>
    <i name="pawaedc"> -23195.59147448 </i>
    <i name="eentropy">     -0.01996693 </i>
    <i name="bandstr">    198.84932732 </i>
    <i name="atom">   5668.65580356 </i>
    <i name="e_fr_energy">   -287.30961180 </i>
    <i name="e_wo_entrp">   -287.28964487 </i>
    <i name="e_0_energy">   -287.29962834 </i>
   </energy>
  </scstep>
  <scstep>
   <time name="dav">    4.45    4.50</time>
   <time name="total">    4.91    4.96</time>
   <energy>
    <i name="alphaZ">     94.20124788 </i>
    <i name="ewald">  -6283.32455330 </i>
    <i name="hartreedc">   -437.60480689 </i>
    <i name="XCdc">   -489.56434681 </i>
    <i name="pawpsdc">  24157.11496438 </i>
    <i name="pawaedc"> -23195.61605696 </i>
    <i name="eentropy">     -0.01997296 </i>
    <i name="bandstr">    198.84810943 </i>
    <i name="atom">   5668.65580356 </i>
    <i name="e_fr_energy">   -287.30961168 </i>
    <i name="e_wo_entrp">   -287.28963872 </i>
    <i name="e_0_energy">   -287.29962520 </i>
   </energy>
  </scstep>
  <structure>
   <crystal>
    <varray name="basis" >
     <v>       9.97646553       0.00000000       5.75991507 </v>
     <v>       3.32548851       9.40590192       5.75991507 </v>
     <v>       0.00000000       0.00000000      11.51983014 </v>
    </varray>
    <i name="volume">   1080.99386112 </i>
    <varray name="rec_basis" >
     <v>       0.10023590      -0.03543874       0.00000000 </v>
     <v>       0.00000000       0.10631623       0.00000000 </v>
     <v>      -0.05011795      -0.03543874       0.08680684 </v>
    </varray>
   </crystal>
   <varray name="positions" >
    <v>       0.29166667       0.29166667       0.29166667 </v>
    <v>       0.29166667       0.29166667       0.62500000 </v>
    <v>       0.29166667       0.29166667       0.95833333 </v>
    <v>       0.29166667       0.62500000       0.29166667 </v>
    <v>       0.29166667       0.62500000       0.62500000 </v>
    <v>       0.29166667       0.62500000       0.95833333 </v>
    <v>       0.29166667       0.95833333       0.29166667 </v>
    <v>       0.29166667       0.95833333       0.62500000 </v>
    <v>       0.29166667       0.95833333       0.95833333 </v>
    <v>       0.62500000       0.29166667       0.29166667 </v>
    <v>       0.62500000       0.29166667       0.62500000 </v>
    <v>       0.62500000       0.29166667       0.95833333 </v>
    <v>       0.62500000       0.62500000       0.29166667 </v>
    <v>       0.62500000       0.62500000       0.62500000 </v>
    <v>       0.62500000       0.62500000       0.95833333 </v>
    <v>       0.62500000       0.95833333       0.29166667 </v>
    <v>       0.62500000       0.95833333       0.62500000 </v>
    <v>       0.62500000       0.95833333       0.95833333 </v>
    <v>       0.95833333       0.29166667       0.29166667 </v>
    <v>       0.95833333       0.29166667       0.62500000 </v>
    <v>       0.95833333       0.29166667       0.95833333 </v>
    <v>       0.95833333       0.62500000       0.29166667 </v>
    <v>       0.95833333       0.62500000       0.62500000 </v>
    <v>       0.95833333       0.62500000       0.95833333 </v>
    <v>       0.95833333       0.95833333       0.29166667 </v>
    <v>       0.95833333       0.95833333       0.62500000 </v>
    <v>       0.95833333       0.95833333       0.95833333 </v>
    <v>       0.04166667       0.04166667       0.04166667 </v>
    <v>       0.04166667       0.04166667       0.37500000 </v>
    <v>       0.04166667       0.04166667       0.70833333 </v>
    <v>       0.04166667       0.37500000       0.04166667 </v>
    <v>       0.04166667       0.37500000       0.37500000 </v>
    <v>       0.04166667       0.37500000       0.70833333 </v>
    <v>       0.04166667       0.70833333       0.04166667 </v>
    <v>       0.04166667       0.70833333       0.37500000 </v>
    <v>       0.04166667       0.70833333       0.70833333 </v>
    <v>       0.37500000       0.04166667       0.04166667 </v>
    <v>       0.37500000       0.04166667       0.37500000 </v>
    <v>       0.37500000       0.04166667       0.70833333 </v>
    <v>       0.37500000       0.37500000       0.04166667 </v>
    <v>       0.37500000       0.37500000       0.37500000 </v>
    <v>       0.37500000       0.37500000       0.70833333 </v>
    <v>       0.37500000       0.70833333       0.04166667 </v>
    <v>       0.37500000       0.70833333       0.37500000 </v>
    <v>       0.37500000       0.70833333       0.70833333 </v>
    <v>       0.70833333       0.04166667       0.04166667 </v>
    <v>       0.70833333       0.04166667       0.37500000 </v>
    <v>       0.70833333       0.04166667       0.70833333 </v>
    <v>       0.70833333       0.37500000       0.04166667 </v>
    <v>       0.70833333       0.37500000       0.37500000 </v>
    <v>       0.70833333       0.37500000       0.70833333 </v>
    <v>       0.70833333       0.70833333       0.04166667 </v>
    <v>       0.70833333       0.70833333       0.37500000 </v>
    <v>       0.70833333       0.70833333       0.70833333 </v>
    <v>       0.54166667       0.54166667       0.54166667 </v>
   </varray>
  </structure>
  <varray name="forces" >
   <v>       0.00000000      -0.00000000      -0.00000000 </v>
   <v>      -0.02786935      -0.01970660      -0.13367382 </v>
   <v>      -0.02786935      -0.01970660       0.13367382 </v>
   <v>      -0.05252298      -0.08943761      -0.09097247 </v>
   <v>      -1.03103997       0.36452768      -0.00000000 </v>
   <v>      -0.05252298      -0.08943761       0.09097247 </v>
   <v>       0.02465363       0.12885082       0.04270135 </v>
   <v>       0.02465363       0.12885082      -0.04270135 </v>
   <v>       0.00164096      -0.00058017      -0.00000000 </v>
   <v>      -0.10183025      -0.01970660      -0.09097247 </v>
   <v>       0.00000000      -1.09358303      -0.00000000 </v>
   <v>      -0.10183025      -0.01970660       0.09097247 </v>
   <v>       0.51551998       0.36452768      -0.89290681 </v>
   <v>       0.51551998       0.36452768       0.89290681 </v>
   <v>      -0.04749128      -0.03358140      -0.00000000 </v>
   <v>      -0.04930727       0.12885082       0.00000000 </v>
   <v>      -0.02374564       0.03358140      -0.04112865 </v>
   <v>      -0.02374564       0.03358140       0.04112865 </v>
   <v>       0.12969960      -0.01970660       0.04270135 </v>
   <v>       0.12969960      -0.01970660      -0.04270135 </v>
   <v>       0.00000000       0.00174050      -0.00000000 </v>
   <v>       0.10504596      -0.08943761      -0.00000000 </v>
   <v>       0.02374564      -0.03358140      -0.04112865 </v>
   <v>       0.02374564      -0.03358140       0.04112865 </v>
   <v>      -0.00082048      -0.00058017       0.00142111 </v>
   <v>       0.04749128       0.03358140      -0.00000000 </v>
   <v>      -0.00082048      -0.00058017      -0.00142111 </v>
   <v>       0.00000000      -0.00000000      -0.00000000 </v>
   <v>      -0.06931452      -0.04901276       0.01373993 </v>
   <v>      -0.06931452      -0.04901276      -0.01373993 </v>
   <v>      -0.03069088       0.06023137      -0.05315817 </v>
   <v>      -0.02511651       0.00888003      -0.00000000 </v>
   <v>      -0.03069088       0.06023137       0.05315817 </v>
   <v>      -0.03862363       0.03779416      -0.06689809 </v>
   <v>      -0.03862363       0.03779416       0.06689809 </v>
   <v>      -0.37440009       0.13237042      -0.00000000 </v>
   <v>       0.04655638      -0.04901276      -0.05315817 </v>
   <v>       0.00000000      -0.02664008      -0.00000000 </v>
   <v>       0.04655638      -0.04901276       0.05315817 </v>
   <v>       0.01255826       0.00888003      -0.02175154 </v>
   <v>       0.01255826       0.00888003       0.02175154 </v>
   <v>      -0.37208268      -0.26310219      -0.00000000 </v>
   <v>       0.07724726       0.03779416      -0.00000000 </v>
   <v>      -0.18604134       0.26310219      -0.32223306 </v>
   <v>      -0.18604134       0.26310219       0.32223306 </v>
   <v>       0.02275813      -0.04901276      -0.06689809 </v>
   <v>       0.02275813      -0.04901276       0.06689809 </v>
   <v>       0.00000000      -0.39711127      -0.00000000 </v>
   <v>       0.06138177       0.06023137      -0.00000000 </v>
   <v>       0.18604134      -0.26310219      -0.32223306 </v>
   <v>       0.18604134      -0.26310219       0.32223306 </v>
   <v>       0.18720005       0.13237042      -0.32423999 </v>
   <v>       0.37208268       0.26310219      -0.00000000 </v>
   <v>       0.18720005       0.13237042       0.32423999 </v>
   <v>       0.00000000      -0.00000000      -0.00000000 </v>
  </varray>
  <varray name="stress" >
   <v>      42.71152366      -0.00000000       0.00000000 </v>
   <v>      -0.00000000      42.71152380      -0.00000000 </v>
   <v>      -0.00000000      -0.00000000      42.71152382 </v>
  </varray>
  <energy>
   <i name="e_fr_energy">   -287.30961168 </i>
   <i name="e_wo_entrp">   -287.29962520 </i>
   <i name="e_0_energy">     -0.01997296 </i>
  </energy>
  <time name="totalsc">   21.97   22.30</time>
 </calculation>
 <calculation>
  <scstep>
   <time name="dav">    4.67    4.72</time>
   <time name="total">    5.73    5.81</time>
   <energy>
    <i name="alphaZ">     94.20124788 </i>
    <i name="ewald">  -6295.23711936 </i>
    <i name="hartreedc">   -427.76908976 </i>
    <i name="XCdc">   -489.74819486 </i>
    <i name="pawpsdc">  24157.16119861 </i>
    <i name="pawaedc"> -23195.66227484 </i>
    <i name="eentropy">     -0.00853253 </i>
    <i name="bandstr">    200.87185051 </i>
    <i name="atom">   5668.65580356 </i>
    <i name="e_fr_energy">   -287.53511079 </i>
    <i name="e_wo_entrp">   -287.52657826 </i>
    <i name="e_0_energy">   -287.53084453 </i>
   </energy>
  </scstep>
  <scstep>
   <time name="dav">    4.31    4.37</time>
   <time name="total">    5.69    5.82</time>
   <energy>
    <i name="e_fr_energy">   -287.54902482 </i>
    <i name="e_wo_entrp">   -287.53936087 </i>
    <i name="e_0_energy">   -287.54419285 </i>
   </energy>
  </scstep>
  <scstep>
   <time name="dav">    4.33    4.38</time>
   <time name="total">    5.29    5.39</time>
   <energy>
    <i name="e_fr_energy">   -287.54299413 </i>
    <i name="e_wo_entrp">   -287.53206164 </i>
    <i name="e_0_energy">   -287.53752788 </i>
   </energy>
  </scstep>
  <scstep>
   <time name="dav">    4.81    4.86</time>
   <time name="total">    6.28    6.35</time>
   <energy>
    <i name="e_fr_energy">   -287.54233021 </i>
    <i name="e_wo_entrp">   -287.53104505 </i>
    <i name="e_0_energy">   -287.53668763 </i>
   </energy>
  </scstep>
  <scstep>
   <time name="dav">    3.99    4.49</time>
   <time name="total">    4.75    5.76</time>
   <energy>
    <i name="e_fr_energy">   -287.54210873 </i>
    <i name="e_wo_entrp">   -287.53068606 </i>
    <i name="e_0_energy">   -287.53639740 </i>
   </energy>
  </scstep>
  <scstep>
   <time name="dav">    3.50    5.03</time>
   <time name="total">    4.36    6.04</time>
   <energy>
    <i name="e_fr_energy">   -287.54206497 </i>
    <i name="e_wo_entrp">   -287.53079540 </i>
    <i name="e_0_energy">   -287.53643018 </i>
   </energy>
  </scstep>
  <scstep>
   <time name="dav">    4.87    4.92</time>
   <time name="total">    6.15    6.22</time>
   <energy>
    <i name="e_fr_energy">   -287.54207207 </i>
    <i name="e_wo_entrp">   -287.53083480 </i>
    <i name="e_0_energy">   -287.53645344 </i>
   </energy>
  </scstep>
  <scstep>
   <time name="dav">    3.14    3.16</time>
   <time name="total">    3.23    3.26</time>
   <energy>
    <i name="alphaZ">     94.20124788 </i>
    <i name="ewald">  -6295.23711936 </i>
    <i name="hartreedc">   -426.97893893 </i>
    <i name="XCdc">   -489.78630985 </i>
    <i name="pawpsdc">  24040.71642333 </i>
    <i name="pawaedc"> -23079.17651506 </i>
    <i name="eentropy">     -0.01121787 </i>
    <i name="bandstr">    200.07456049 </i>
    <i name="atom">   5668.65580356 </i>
    <i name="e_fr_energy">   -287.54206581 </i>
    <i name="e_wo_entrp">   -287.53084794 </i>
    <i name="e_0_energy">   -287.53645688 </i>
   </energy>
  </scstep>
  <structure>
   <crystal>
    <varray name="basis" >
     <v>       9.97646553       0.00000000       5.75991507 </v>
     <v>       3.32548851       9.40590192       5.75991507 </v>
     <v>       0.00000000       0.00000000      11.51983014 </v>
    </varray>
    <i name="volume">   1080.99386112 </i>
    <varray name="rec_basis" >
     <v>       0.10023590      -0.03543874       0.00000000 </v>
     <v>       0.00000000       0.10631623       0.00000000 </v>
     <v>      -0.05011795      -0.03543874       0.08680684 </v>
    </varray>
   </crystal>
   <varray name="positions" >
    <v>       0.29166667       0.29166667       0.29166667 </v>
    <v>       0.29156559       0.29156559       0.62454128 </v>
    <v>       0.29156559       0.29156559       0.95899421 </v>
    <v>       0.29156559       0.62454128       0.29156559 </v>
    <v>       0.28605770       0.62686965       0.62686965 </v>
    <v>       0.29156559       0.62454128       0.95899421 </v>
    <v>       0.29156559       0.95899421       0.29156559 </v>
    <v>       0.29156559       0.95899421       0.62454128 </v>
    <v>       0.29167559       0.95833036       0.95833036 </v>
    <v>       0.62454128       0.29156559       0.29156559 </v>
    <v>       0.62686965       0.28605770       0.62686965 </v>
    <v>       0.62454128       0.29156559       0.95899421 </v>
    <v>       0.62686965       0.62686965       0.28605770 </v>
    <v>       0.62686965       0.62686965       0.62686965 </v>
    <v>       0.62482776       0.62482776       0.95850557 </v>
    <v>       0.62454128       0.95899421       0.29156559 </v>
    <v>       0.62482776       0.95850557       0.62482776 </v>
    <v>       0.62482776       0.95850557       0.95850557 </v>
    <v>       0.95899421       0.29156559       0.29156559 </v>
    <v>       0.95899421       0.29156559       0.62454128 </v>
    <v>       0.95833036       0.29167559       0.95833036 </v>
    <v>       0.95899421       0.62454128       0.29156559 </v>
    <v>       0.95850557       0.62482776       0.62482776 </v>
    <v>       0.95850557       0.62482776       0.95850557 </v>
    <v>       0.95833036       0.95833036       0.29167559 </v>
    <v>       0.95850557       0.95850557       0.62482776 </v>
    <v>       0.95833036       0.95833036       0.95833036 </v>
    <v>       0.04166667       0.04166667       0.04166667 </v>
    <v>       0.04141528       0.04141528       0.37530893 </v>
    <v>       0.04141528       0.04141528       0.70852718 </v>
    <v>       0.04141528       0.37530893       0.04141528 </v>
    <v>       0.04153003       0.37504555       0.37504555 </v>
    <v>       0.04141528       0.37530893       0.70852718 </v>
    <v>       0.04141528       0.70852718       0.04141528 </v>
    <v>       0.04141528       0.70852718       0.37530893 </v>
    <v>       0.03962989       0.70901226       0.70901226 </v>
    <v>       0.37530893       0.04141528       0.04141528 </v>
    <v>       0.37504555       0.04153003       0.37504555 </v>
    <v>       0.37530893       0.04141528       0.70852718 </v>
    <v>       0.37504555       0.37504555       0.04153003 </v>
    <v>       0.37504555       0.37504555       0.37504555 </v>
    <v>       0.37365055       0.37365055       0.70968278 </v>
    <v>       0.37530893       0.70852718       0.04141528 </v>
    <v>       0.37365055       0.70968278       0.37365055 </v>
    <v>       0.37365055       0.70968278       0.70968278 </v>
    <v>       0.70852718       0.04141528       0.04141528 </v>
    <v>       0.70852718       0.04141528       0.37530893 </v>
    <v>       0.70901226       0.03962989       0.70901226 </v>
    <v>       0.70852718       0.37530893       0.04141528 </v>
    <v>       0.70968278       0.37365055       0.37365055 </v>
    <v>       0.70968278       0.37365055       0.70968278 </v>
    <v>       0.70901226       0.70901226       0.03962989 </v>
    <v>       0.70968278       0.70968278       0.37365055 </v>
    <v>       0.70901226       0.70901226       0.70901226 </v>
    <v>       0.54166667       0.54166667       0.54166667 </v>
   </varray>
  </structure>
  <varray name="forces" >
   <v>      -0.00000000      -0.00000000       0.00000000 </v>
   <v>      -0.06428405      -0.04545569      -0.09259890 </v>
   <v>      -0.06428405      -0.04545569       0.09259890 </v>
   <v>      -0.05887303      -0.03015100      -0.10197107 </v>
   <v>      -0.30785643       0.10884368       0.00000000 </v>
   <v>      -0.05887303      -0.03015100       0.10197107 </v>
   <v>      -0.00541102       0.12106237      -0.00937217 </v>
   <v>      -0.00541102       0.12106237       0.00937217 </v>
   <v>      -0.00537782       0.00190135       0.00000000 </v>
   <v>      -0.04805098      -0.04545569      -0.10197107 </v>
   <v>       0.00000000      -0.32653105       0.00000000 </v>
   <v>      -0.04805098      -0.04545569       0.10197107 </v>
   <v>       0.15392821       0.10884368      -0.26661149 </v>
   <v>       0.15392821       0.10884368       0.26661149 </v>
   <v>      -0.03190260      -0.02255855       0.00000000 </v>
   <v>       0.01082205       0.12106237       0.00000000 </v>
   <v>      -0.01595130       0.02255855      -0.02762846 </v>
   <v>      -0.01595130       0.02255855       0.02762846 </v>
   <v>       0.11233503      -0.04545569      -0.00937217 </v>
   <v>       0.11233503      -0.04545569       0.00937217 </v>
   <v>      -0.00000000      -0.00570404       0.00000000 </v>
   <v>       0.11774605      -0.03015100       0.00000000 </v>
   <v>       0.01595130      -0.02255855      -0.02762846 </v>
   <v>       0.01595130      -0.02255855       0.02762846 </v>
   <v>       0.00268891       0.00190135      -0.00465733 </v>
   <v>       0.03190260       0.02255855       0.00000000 </v>
   <v>       0.00268891       0.00190135       0.00465733 </v>
   <v>      -0.00000000      -0.00000000       0.00000000 </v>
   <v>      -0.01883766      -0.01332024      -0.00410026 </v>
   <v>      -0.01883766      -0.01332024       0.00410026 </v>
   <v>      -0.01060247       0.00997239      -0.01836402 </v>
   <v>       0.00842165      -0.00297750       0.00000000 </v>
   <v>      -0.01060247       0.00997239       0.01836402 </v>
   <v>      -0.00823519       0.01666808      -0.01426376 </v>
   <v>      -0.00823519       0.01666808       0.01426376 </v>
   <v>      -0.45734911       0.16169733       0.00000000 </v>
   <v>       0.00586790      -0.01332024      -0.01836402 </v>
   <v>      -0.00000000       0.00893251       0.00000000 </v>
   <v>       0.00586790      -0.01332024       0.01836402 </v>
   <v>      -0.00421083      -0.00297750       0.00729337 </v>
   <v>      -0.00421083      -0.00297750      -0.00729337 </v>
   <v>      -0.07357850      -0.05202786       0.00000000 </v>
   <v>       0.01647037       0.01666808       0.00000000 </v>
   <v>      -0.03678925       0.05202786      -0.06372085 </v>
   <v>      -0.03678925       0.05202786       0.06372085 </v>
   <v>       0.01296976      -0.01332024      -0.01426376 </v>
   <v>       0.01296976      -0.01332024       0.01426376 </v>
   <v>       0.00000000      -0.48509199       0.00000000 </v>
   <v>       0.02120494       0.00997239       0.00000000 </v>
   <v>       0.03678925      -0.05202786      -0.06372085 </v>
   <v>       0.03678925      -0.05202786       0.06372085 </v>
   <v>       0.22867456       0.16169733      -0.39607595 </v>
   <v>       0.07357850       0.05202786       0.00000000 </v>
   <v>       0.22867456       0.16169733       0.39607595 </v>
   <v>      -0.00000000      -0.00000000       0.00000000 </v>
  </varray>
  <varray name="stress" >
   <v>      40.77205033      -0.00000000       0.00000000 </v>
   <v>      -0.00000000      40.77205047      -0.00000000 </v>
   <v>       0.00000000       0.00000000      40.77205049 </v>
  </varray>
  <energy>
   <i name="e_fr_energy">   -287.54206581 </i>
   <i name="e_wo_entrp">   -287.53645688 </i>
   <i name="e_0_energy">     -0.01121787 </i>
  </energy>
  <time name="totalsc">   49.88   53.12</time>
 </calculation>
 <calculation>
  <scstep>
   <time name="dav">    3.70    3.73</time>
   <time name="total">    3.96    4.00</time>
   <energy>
    <i name="alphaZ">     94.20124788 </i>
    <i name="ewald">  -6301.71707800 </i>
    <i name="hartreedc">   -421.54807087 </i>
    <i name="XCdc">   -489.89514450 </i>
    <i name="pawpsdc">  24039.35808734 </i>
    <i name="pawaedc"> -23077.81814134 </i>
    <i name="eentropy">     -0.00666665 </i>
    <i name="bandstr">    201.19208240 </i>
    <i name="atom">   5668.65580356 </i>
    <i name="e_fr_energy">   -287.57788019 </i>
    <i name="e_wo_entrp">   -287.57121353 </i>
    <i name="e_0_energy">   -287.57454686 </i>
   </energy>
  </scstep>
  <scstep>
   <time name="dav">    4.30    4.34</time>
   <time name="total">    5.15    5.20</time>
   <energy>
    <i name="e_fr_energy">   -287.58509463 </i>
    <i name="e_wo_entrp">   -287.57823146 </i>
    <i name="e_0_energy">   -287.58166304 </i>
   </energy>
  </scstep>
  <scstep>
   <time name="dav">    4.28    4.32</time>
   <time name="total">    4.78    4.83</time>
   <energy>
    <i name="e_fr_energy">   -287.58301109 </i>
    <i name="e_wo_entrp">   -287.57586731 </i>
    <i name="e_0_energy">   -287.57943920 </i>
   </energy>
  </scstep>
  <scstep>
   <time name="dav">    5.40    5.46</time>
   <time name="total">    5.78    5.84</time>
   <energy>
    <i name="e_fr_energy">   -287.58266030 </i>
    <i name="e_wo_entrp">   -287.57535679 </i>
    <i name="e_0_energy">   -287.57900855 </i>
   </energy>
  </scstep>
  <scstep>
   <time name="dav">    4.13    4.17</time>
   <time name="total">    4.39    4.43</time>
   <energy>
    <i name="e_fr_energy">   -287.58258897 </i>
    <i name="e_wo_entrp">   -287.57524746 </i>
    <i name="e_0_energy">   -287.57891822 </i>
   </energy>
  </scstep>
  <scstep>
   <time name="dav">    4.38    4.42</time>
   <time name="total">    5.96    6.01</time>
   <energy>
    <i name="e_fr_energy">   -287.58258976 </i>
    <i name="e_wo_entrp">   -287.57526701 </i>
    <i name="e_0_energy">   -287.57892838 </i>
   </energy>
  </scstep>
  <scstep>
   <time name="dav">    4.65    4.70</time>
   <time name="total">    5.18    5.51</time>
   <energy>
    <i name="alphaZ">     94.20124788 </i>
    <i name="ewald">  -6301.71707800 </i>
    <i name="hartreedc">   -421.22484517 </i>
    <i name="XCdc">   -489.90524342 </i>
    <i name="pawpsdc">  23989.44214125 </i>
    <i name="pawaedc"> -23027.88868384 </i>
    <i name="eentropy">     -0.00730342 </i>
    <i name="bandstr">    200.86137720 </i>
    <i name="atom">   5668.65580356 </i>
    <i name="e_fr_energy">   -287.58258396 </i>
    <i name="e_wo_entrp">   -287.57528054 </i>
    <i name="e_0_energy">   -287.57893225 </i>
   </energy>
  </scstep>
  <structure>
   <crystal>
    <varray name="basis" >
     <v>       9.97646553       0.00000000       5.75991507 </v>
     <v>       3.32548851       9.40590192       5.75991507 </v>
     <v>       0.00000000       0.00000000      11.51983014 </v>
    </varray>
    <i name="volume">   1080.99386112 </i>
    <varray name="rec_basis" >
     <v>       0.10023590      -0.03543874       0.00000000 </v>
     <v>       0.00000000       0.10631623       0.00000000 </v>
     <v>      -0.05011795      -0.03543874       0.08680684 </v>
    </varray>
   </crystal>
   <varray name="positions" >
    <v>       0.29166667       0.29166667       0.29166667 </v>
    <v>       0.29150176       0.29150176       0.62425159 </v>
    <v>       0.29150176       0.29150176       0.95941155 </v>
    <v>       0.29150176       0.62425159       0.29150176 </v>
    <v>       0.28251558       0.62805036       0.62805036 </v>
    <v>       0.29150176       0.62425159       0.95941155 </v>
    <v>       0.29150176       0.95941155       0.29150176 </v>
    <v>       0.29150176       0.95941155       0.62425159 </v>
    <v>       0.29168123       0.95832848       0.95832848 </v>
    <v>       0.62425159       0.29150176       0.29150176 </v>
    <v>       0.62805036       0.28251558       0.62805036 </v>
    <v>       0.62425159       0.29150176       0.95941155 </v>
    <v>       0.62805036       0.62805036       0.28251558 </v>
    <v>       0.62805036       0.62805036       0.62805036 </v>
    <v>       0.62471899       0.62471899       0.95861434 </v>
    <v>       0.62425159       0.95941155       0.29150176 </v>
    <v>       0.62471899       0.95861434       0.62471899 </v>
    <v>       0.62471899       0.95861434       0.95861434 </v>
    <v>       0.95941155       0.29150176       0.29150176 </v>
    <v>       0.95941155       0.29150176       0.62425159 </v>
    <v>       0.95832848       0.29168123       0.95832848 </v>
    <v>       0.95941155       0.62425159       0.29150176 </v>
    <v>       0.95861434       0.62471899       0.62471899 </v>
    <v>       0.95861434       0.62471899       0.95861434 </v>
    <v>       0.95832848       0.95832848       0.29168123 </v>
    <v>       0.95861434       0.95861434       0.62471899 </v>
    <v>       0.95832848       0.95832848       0.95832848 </v>
    <v>       0.04166667       0.04166667       0.04166667 </v>
    <v>       0.04125653       0.04125653       0.37550402 </v>
    <v>       0.04125653       0.04125653       0.70864959 </v>
    <v>       0.04125653       0.37550402       0.04125653 </v>
    <v>       0.04144374       0.37507431       0.37507431 </v>
    <v>       0.04125653       0.37550402       0.70864959 </v>
    <v>       0.04125653       0.70864959       0.04125653 </v>
    <v>       0.04125653       0.70864959       0.37550402 </v>
    <v>       0.03834365       0.70944101       0.70944101 </v>
    <v>       0.37550402       0.04125653       0.04125653 </v>
    <v>       0.37507431       0.04144374       0.37507431 </v>
    <v>       0.37550402       0.04125653       0.70864959 </v>
    <v>       0.37507431       0.37507431       0.04144374 </v>
    <v>       0.37507431       0.37507431       0.37507431 </v>
    <v>       0.37279837       0.37279837       0.71053497 </v>
    <v>       0.37550402       0.70864959       0.04125653 </v>
    <v>       0.37279837       0.71053497       0.37279837 </v>
    <v>       0.37279837       0.71053497       0.71053497 </v>
    <v>       0.70864959       0.04125653       0.04125653 </v>
    <v>       0.70864959       0.04125653       0.37550402 </v>
    <v>       0.70944101       0.03834365       0.70944101 </v>
    <v>       0.70864959       0.37550402       0.04125653 </v>
    <v>       0.71053497       0.37279837       0.37279837 </v>
    <v>       0.71053497       0.37279837       0.71053497 </v>
    <v>       0.70944101       0.70944101       0.03834365 </v>
    <v>       0.71053497       0.71053497       0.37279837 </v>
    <v>       0.70944101       0.70944101       0.70944101 </v>
    <v>       0.54166667       0.54166667       0.54166667 </v>
   </varray>
  </structure>
  <varray name="forces" >
   <v>       0.00000000       0.00000000      -0.00000000 </v>
   <v>      -0.09090063      -0.06427645      -0.06427200 </v>
   <v>      -0.09090063      -0.06427645       0.06427200 </v>
   <v>      -0.06400404       0.01179858      -0.11085826 </v>
   <v>       0.14613973      -0.05166820      -0.00000000 </v>
   <v>      -0.06400404       0.01179858       0.11085826 </v>
   <v>      -0.02689659       0.11675432      -0.04658625 </v>
   <v>      -0.02689659       0.11675432       0.04658625 </v>
   <v>      -0.00879138       0.00310822      -0.00000000 </v>
   <v>      -0.01021087      -0.06427645      -0.11085826 </v>
   <v>      -0.00000000       0.15500459      -0.00000000 </v>
   <v>      -0.01021087      -0.06427645       0.11085826 </v>
   <v>      -0.07306987      -0.05166820       0.12656072 </v>
   <v>      -0.07306987      -0.05166820      -0.12656072 </v>
   <v>      -0.01722453      -0.01217958      -0.00000000 </v>
   <v>       0.05379317       0.11675432      -0.00000000 </v>
   <v>      -0.00861227       0.01217958      -0.01491688 </v>
   <v>      -0.00861227       0.01217958       0.01491688 </v>
   <v>       0.10111150      -0.06427645      -0.04658625 </v>
   <v>       0.10111150      -0.06427645       0.04658625 </v>
   <v>       0.00000000      -0.00932467      -0.00000000 </v>
   <v>       0.12800809       0.01179858      -0.00000000 </v>
   <v>       0.00861227      -0.01217958      -0.01491688 </v>
   <v>       0.00861227      -0.01217958       0.01491688 </v>
   <v>       0.00439569       0.00310822      -0.00761356 </v>
   <v>       0.01722453       0.01217958      -0.00000000 </v>
   <v>       0.00439569       0.00310822       0.00761356 </v>
   <v>       0.00000000       0.00000000      -0.00000000 </v>
   <v>       0.01729363       0.01222844      -0.01599151 </v>
   <v>       0.01729363       0.01222844       0.01599151 </v>
   <v>       0.00403046      -0.02528545       0.00698097 </v>
   <v>       0.02998800      -0.01060236      -0.00000000 </v>
   <v>       0.00403046      -0.02528545      -0.00698097 </v>
   <v>       0.01326316       0.00082857       0.02297248 </v>
   <v>       0.01326316       0.00082857      -0.02297248 </v>
   <v>      -0.53704741       0.18987493      -0.00000000 </v>
   <v>      -0.02249587       0.01222844       0.00698097 </v>
   <v>       0.00000000       0.03180708      -0.00000000 </v>
   <v>      -0.02249587       0.01222844      -0.00698097 </v>
   <v>      -0.01499400      -0.01060236       0.02597037 </v>
   <v>      -0.01499400      -0.01060236      -0.02597037 </v>
   <v>       0.10671986       0.07546234      -0.00000000 </v>
   <v>      -0.02652633       0.00082857      -0.00000000 </v>
   <v>       0.05335993      -0.07546234       0.09242211 </v>
   <v>       0.05335993      -0.07546234      -0.09242211 </v>
   <v>       0.00520224       0.01222844       0.02297248 </v>
   <v>       0.00520224       0.01222844      -0.02297248 </v>
   <v>      -0.00000000      -0.56962480      -0.00000000 </v>
   <v>      -0.00806093      -0.02528545      -0.00000000 </v>
   <v>      -0.05335993       0.07546234       0.09242211 </v>
   <v>      -0.05335993       0.07546234      -0.09242211 </v>
   <v>       0.26852370       0.18987493      -0.46509670 </v>
   <v>      -0.10671986      -0.07546234      -0.00000000 </v>
   <v>       0.26852370       0.18987493       0.46509670 </v>
   <v>       0.00000000       0.00000000      -0.00000000 </v>
  </varray>
  <varray name="stress" >
   <v>      40.04974353      -0.00000000       0.00000000 </v>
   <v>       0.00000000      40.04974366       0.00000000 </v>
   <v>       0.00000000       0.00000000      40.04974368 </v>
  </varray>
  <energy>
   <i name="e_fr_energy">   -287.58258396 </i>
   <i name="e_wo_entrp">   -287.57893225 </i>
   <i name="e_0_energy">     -0.00730342 </i>
  </energy>
  <time name="totalsc">   43.65   44.39</time>
 </calculation>
 <calculation>
  <scstep>
   <time name="dav">    3.66    3.69</time>
   <time name="total">    4.02    4.05</time>
   <energy>
    <i name="alphaZ">     94.20124788 </i>
    <i name="ewald">  -6303.66143771 </i>
    <i name="hartreedc">   -419.59330565 </i>
    <i name="XCdc">   -489.92627831 </i>
    <i name="pawpsdc">  23988.59389372 </i>
    <i name="pawaedc"> -23027.04029879 </i>
    <i name="eentropy">     -0.01046528 </i>
    <i name="bandstr">    201.14971894 </i>
    <i name="atom">   5668.65580356 </i>
    <i name="e_fr_energy">   -287.63112164 </i>
    <i name="e_wo_entrp">   -287.62065636 </i>
    <i name="e_0_energy">   -287.62588900 </i>
   </energy>
  </scstep>
  <scstep>
   <time name="dav">    4.26    4.30</time>
   <time name="total">    4.53    4.57</time>
   <energy>
    <i name="e_fr_energy">   -287.63833295 </i>
    <i name="e_wo_entrp">   -287.62801191 </i>
    <i name="e_0_energy">   -287.63317243 </i>
   </energy>
  </scstep>
  <scstep>
   <time name="dav">    4.33    4.36</time>
   <time name="total">    4.61    4.65</time>
   <energy>
    <i name="e_fr_energy">   -287.63746657 </i>
    <i name="e_wo_entrp">   -287.62723126 </i>
    <i name="e_0_energy">   -287.63234892 </i>
   </energy>
  </scstep>
  <scstep>
   <time name="dav">    4.52    4.56</time>
   <time name="total">    4.79    4.83</time>
   <energy>
    <i name="e_fr_energy">   -287.63691725 </i>
    <i name="e_wo_entrp">   -287.62685377 </i>
    <i name="e_0_energy">   -287.63188551 </i>
   </energy>
  </scstep>
  <scstep>
   <time name="dav">    4.20    4.24</time>
   <time name="total">    4.47    4.50</time>
   <energy>
    <i name="e_fr_energy">   -287.63694251 </i>
    <i name="e_wo_entrp">   -287.62689377 </i>
    <i name="e_0_energy">   -287.63191814 </i>
   </energy>
  </scstep>
  <scstep>
   <time name="dav">    4.34    4.37</time>
   <time name="total">    4.43    4.47</time>
   <energy>
    <i name="alphaZ">     94.20124788 </i>
    <i name="ewald">  -6303.66143771 </i>
    <i name="hartreedc">   -419.61732987 </i>
    <i name="XCdc">   -489.93061582 </i>
    <i name="pawpsdc">  23972.27925474 </i>
    <i name="pawaedc"> -23010.71858433 </i>
    <i name="eentropy">     -0.01005049 </i>
    <i name="bandstr">    201.16476746 </i>
    <i name="atom">   5668.65580356 </i>
    <i name="e_fr_energy">   -287.63694458 </i>
    <i name="e_wo_entrp">   -287.62689409 </i>
    <i name="e_0_energy">   -287.63191934 </i>
   </energy>
  </scstep>
  <structure>
   <crystal>
    <varray name="basis" >
     <v>       9.97646553       0.00000000       5.75991507 </v>
     <v>       3.32548851       9.40590192       5.75991507 </v>
     <v>       0.00000000       0.00000000      11.51983014 </v>
    </varray>
    <i name="volume">   1080.99386112 </i>
    <varray name="rec_basis" >
     <v>       0.10023590      -0.03543874       0.00000000 </v>
     <v>       0.00000000       0.10631623       0.00000000 </v>
     <v>      -0.05011795      -0.03543874       0.08680684 </v>
    </varray>
   </crystal>
   <varray name="positions" >
    <v>       0.29166667       0.29166667       0.29166667 </v>
    <v>       0.29110260       0.29110260       0.62419336 </v>
    <v>       0.29110260       0.29110260       0.96026810 </v>
    <v>       0.29110260       0.62419336       0.29110260 </v>
    <v>       0.28186566       0.62826700       0.62826700 </v>
    <v>       0.29110260       0.62419336       0.96026810 </v>
    <v>       0.29110260       0.96026810       0.29110260 </v>
    <v>       0.29110260       0.96026810       0.62419336 </v>
    <v>       0.29162982       0.95834561       0.95834561 </v>
    <v>       0.62419336       0.29110260       0.29110260 </v>
    <v>       0.62826700       0.28186566       0.62826700 </v>
    <v>       0.62419336       0.29110260       0.96026810 </v>
    <v>       0.62826700       0.62826700       0.28186566 </v>
    <v>       0.62826700       0.62826700       0.62826700 </v>
    <v>       0.62460118       0.62460118       0.95873215 </v>
    <v>       0.62419336       0.96026810       0.29110260 </v>
    <v>       0.62460118       0.95873215       0.62460118 </v>
    <v>       0.62460118       0.95873215       0.95873215 </v>
    <v>       0.96026810       0.29110260       0.29110260 </v>
    <v>       0.96026810       0.29110260       0.62419336 </v>
    <v>       0.95834561       0.29162982       0.95834561 </v>
    <v>       0.96026810       0.62419336       0.29110260 </v>
    <v>       0.95873215       0.62460118       0.62460118 </v>
    <v>       0.95873215       0.62460118       0.95873215 </v>
    <v>       0.95834561       0.95834561       0.29162982 </v>
    <v>       0.95873215       0.95873215       0.62460118 </v>
    <v>       0.95834561       0.95834561       0.95834561 </v>
    <v>       0.04166667       0.04166667       0.04166667 </v>
    <v>       0.04125791       0.04125791       0.37544306 </v>
    <v>       0.04125791       0.04125791       0.70870779 </v>
    <v>       0.04125791       0.37544306       0.04125791 </v>
    <v>       0.04158984       0.37502561       0.37502561 </v>
    <v>       0.04125791       0.37544306       0.70870779 </v>
    <v>       0.04125791       0.70870779       0.04125791 </v>
    <v>       0.04125791       0.70870779       0.37544306 </v>
    <v>       0.03449189       0.71072493       0.71072493 </v>
    <v>       0.37544306       0.04125791       0.04125791 </v>
    <v>       0.37502561       0.04158984       0.37502561 </v>
    <v>       0.37544306       0.04125791       0.70870779 </v>
    <v>       0.37502561       0.37502561       0.04158984 </v>
    <v>       0.37502561       0.37502561       0.37502561 </v>
    <v>       0.37286250       0.37286250       0.71047083 </v>
    <v>       0.37544306       0.70870779       0.04125791 </v>
    <v>       0.37286250       0.71047083       0.37286250 </v>
    <v>       0.37286250       0.71047083       0.71047083 </v>
    <v>       0.70870779       0.04125791       0.04125791 </v>
    <v>       0.70870779       0.04125791       0.37544306 </v>
    <v>       0.71072493       0.03449189       0.71072493 </v>
    <v>       0.70870779       0.37544306       0.04125791 </v>
    <v>       0.71047083       0.37286250       0.37286250 </v>
    <v>       0.71047083       0.37286250       0.71047083 </v>
    <v>       0.71072493       0.71072493       0.03449189 </v>
    <v>       0.71047083       0.71047083       0.37286250 </v>
    <v>       0.71072493       0.71072493       0.71072493 </v>
    <v>       0.54166667       0.54166667       0.54166667 </v>
   </varray>
  </structure>
  <varray name="forces" >
   <v>      -0.00000000       0.00000000       0.00000000 </v>
   <v>      -0.00502781      -0.00355520       0.01965394 </v>
   <v>      -0.00502781      -0.00355520      -0.01965394 </v>
   <v>       0.00315970       0.01960257       0.00547276 </v>
   <v>      -0.03134241       0.01108121       0.00000000 </v>
   <v>       0.00315970       0.01960257      -0.00547276 </v>
   <v>      -0.00818751      -0.01249218      -0.01418118 </v>
   <v>      -0.00818751      -0.01249218       0.01418118 </v>
   <v>      -0.00852806       0.00301513       0.00000000 </v>
   <v>       0.01953471      -0.00355520       0.00547276 </v>
   <v>      -0.00000000      -0.03324364       0.00000000 </v>
   <v>       0.01953471      -0.00355520      -0.00547276 </v>
   <v>       0.01567120       0.01108121      -0.02714332 </v>
   <v>       0.01567120       0.01108121       0.02714332 </v>
   <v>      -0.05702348      -0.04032169       0.00000000 </v>
   <v>       0.01637501      -0.01249218      -0.00000000 </v>
   <v>      -0.02851174       0.04032169      -0.04938378 </v>
   <v>      -0.02851174       0.04032169       0.04938378 </v>
   <v>      -0.01450691      -0.00355520      -0.01418118 </v>
   <v>      -0.01450691      -0.00355520       0.01418118 </v>
   <v>      -0.00000000      -0.00904538       0.00000000 </v>
   <v>      -0.00631940       0.01960257      -0.00000000 </v>
   <v>       0.02851174      -0.04032169      -0.04938378 </v>
   <v>       0.02851174      -0.04032169       0.04938378 </v>
   <v>       0.00426403       0.00301513      -0.00738552 </v>
   <v>       0.05702348       0.04032169       0.00000000 </v>
   <v>       0.00426403       0.00301513       0.00738552 </v>
   <v>      -0.00000000       0.00000000       0.00000000 </v>
   <v>       0.00378702       0.00267783      -0.02747114 </v>
   <v>       0.00378702       0.00267783       0.02747114 </v>
   <v>      -0.00603673      -0.02510792      -0.01045591 </v>
   <v>       0.04584591      -0.01620898      -0.00000000 </v>
   <v>      -0.00603673      -0.02510792       0.01045591 </v>
   <v>       0.00982375       0.01975227       0.01701523 </v>
   <v>       0.00982375       0.01975227      -0.01701523 </v>
   <v>      -0.09736754       0.03442462       0.00000000 </v>
   <v>      -0.02568422       0.00267783      -0.01045591 </v>
   <v>      -0.00000000       0.04862693      -0.00000000 </v>
   <v>      -0.02568422       0.00267783       0.01045591 </v>
   <v>      -0.02292295      -0.01620898       0.03970372 </v>
   <v>      -0.02292295      -0.01620898      -0.03970372 </v>
   <v>       0.05316754       0.03759513       0.00000000 </v>
   <v>      -0.01964749       0.01975227       0.00000000 </v>
   <v>       0.02658377      -0.03759513       0.04604444 </v>
   <v>       0.02658377      -0.03759513      -0.04604444 </v>
   <v>       0.02189720       0.00267783       0.01701523 </v>
   <v>       0.02189720       0.00267783      -0.01701523 </v>
   <v>      -0.00000000      -0.10327387      -0.00000000 </v>
   <v>       0.01207345      -0.02510792      -0.00000000 </v>
   <v>      -0.02658377       0.03759513       0.04604444 </v>
   <v>      -0.02658377       0.03759513      -0.04604444 </v>
   <v>       0.04868377       0.03442462      -0.08432276 </v>
   <v>      -0.05316754      -0.03759513       0.00000000 </v>
   <v>       0.04868377       0.03442462       0.08432276 </v>
   <v>      -0.00000000       0.00000000       0.00000000 </v>
  </varray>
  <varray name="stress" >
   <v>      39.74807416       0.00000000      -0.00000000 </v>
   <v>       0.00000000      39.74807429       0.00000000 </v>
   <v>      -0.00000000       0.00000000      39.74807431 </v>
  </varray>
  <energy>
   <i name="e_fr_energy">   -287.63694458 </i>
   <i name="e_wo_entrp">   -287.63191934 </i>
   <i name="e_0_energy">     -0.01005049 </i>
  </energy>
  <time name="totalsc">   34.96   37.36</time>
 </calculation>
 <calculation>
  <scstep>
   <time name="dav">    5.03    5.10</time>
   <time name="total">    6.03    6.11</time>
   <energy>
    <i name="alphaZ">     94.20124788 </i>
    <i name="ewald">  -6304.04834374 </i>
    <i name="hartreedc">   -419.28463930 </i>
    <i name="XCdc">   -489.93558579 </i>
    <i name="pawpsdc">  23971.56701241 </i>
    <i name="pawaedc"> -23010.00602145 </i>
    <i name="eentropy">     -0.01094488 </i>
    <i name="bandstr">    201.22290336 </i>
    <i name="atom">   5668.65580356 </i>
    <i name="e_fr_energy">   -287.63856795 </i>
    <i name="e_wo_entrp">   -287.62762307 </i>
    <i name="e_0_energy">   -287.63309551 </i>
   </energy>
  </scstep>
  <scstep>
   <time name="dav">    4.89    4.98</time>
   <time name="total">    5.89    5.99</time>
   <energy>
    <i name="e_fr_energy">   -287.63898996 </i>
    <i name="e_wo_entrp">   -287.62807920 </i>
    <i name="e_0_energy">   -287.63353458 </i>
   </energy>
  </scstep>
  <scstep>
   <time name="dav">    5.80    5.86</time>
   <time name="total">    6.88    6.96</time>
   <energy>
    <i name="e_fr_energy">   -287.63894864 </i>
    <i name="e_wo_entrp">   -287.62805876 </i>
    <i name="e_0_energy">   -287.63350370 </i>
   </energy>
  </scstep>
  <scstep>
   <time name="dav">    5.51    5.57</time>
   <time name="total">    6.49    6.58</time>
   <energy>
    <i name="e_fr_energy">   -287.63892654 </i>
    <i name="e_wo_entrp">   -287.62807800 </i>
    <i name="e_0_energy">   -287.63350227 </i>
   </energy>
  </scstep>
  <scstep>
   <time name="dav">    4.55    4.60</time>
   <time name="total">    5.28    5.34</time>
   <energy>
    <i name="alphaZ">     94.20124788 </i>
    <i name="ewald">  -6304.04834374 </i>
    <i name="hartreedc">   -419.29250245 </i>
    <i name="XCdc">   -489.93634684 </i>
    <i name="pawpsdc">  23968.11854254 </i>
    <i name="pawaedc"> -23006.55638387 </i>
    <i name="eentropy">     -0.01084490 </i>
    <i name="bandstr">    201.22989969 </i>
    <i name="atom">   5668.65580356 </i>
    <i name="e_fr_energy">   -287.63892813 </i>
    <i name="e_wo_entrp">   -287.62808323 </i>
    <i name="e_0_energy">   -287.63350568 </i>
   </energy>
  </scstep>
  <structure>
   <crystal>
    <varray name="basis" >
     <v>       9.97646553       0.00000000       5.75991507 </v>
     <v>       3.32548851       9.40590192       5.75991507 </v>
     <v>       0.00000000       0.00000000      11.51983014 </v>
    </varray>
    <i name="volume">   1080.99386112 </i>
    <varray name="rec_basis" >
     <v>       0.10023590      -0.03543874       0.00000000 </v>
     <v>       0.00000000       0.10631623       0.00000000 </v>
     <v>      -0.05011795      -0.03543874       0.08680684 </v>
    </varray>
   </crystal>
   <varray name="positions" >
    <v>       0.29166667       0.29166667       0.29166667 </v>
    <v>       0.29101075       0.29101075       0.62417996 </v>
    <v>       0.29101075       0.29101075       0.96046520 </v>
    <v>       0.29101075       0.62417996       0.29101075 </v>
    <v>       0.28171611       0.62831685       0.62831685 </v>
    <v>       0.29101075       0.62417996       0.96046520 </v>
    <v>       0.29101075       0.96046520       0.29101075 </v>
    <v>       0.29101075       0.96046520       0.62417996 </v>
    <v>       0.29161799       0.95834956       0.95834956 </v>
    <v>       0.62417996       0.29101075       0.29101075 </v>
    <v>       0.62831685       0.28171611       0.62831685 </v>
    <v>       0.62417996       0.29101075       0.96046520 </v>
    <v>       0.62831685       0.62831685       0.28171611 </v>
    <v>       0.62831685       0.62831685       0.62831685 </v>
    <v>       0.62457407       0.62457407       0.95875926 </v>
    <v>       0.62417996       0.96046520       0.29101075 </v>
    <v>       0.62457407       0.95875926       0.62457407 </v>
    <v>       0.62457407       0.95875926       0.95875926 </v>
    <v>       0.96046520       0.29101075       0.29101075 </v>
    <v>       0.96046520       0.29101075       0.62417996 </v>
    <v>       0.95834956       0.29161799       0.95834956 </v>
    <v>       0.96046520       0.62417996       0.29101075 </v>
    <v>       0.95875926       0.62457407       0.62457407 </v>
    <v>       0.95875926       0.62457407       0.95875926 </v>
    <v>       0.95834956       0.95834956       0.29161799 </v>
    <v>       0.95875926       0.95875926       0.62457407 </v>
    <v>       0.95834956       0.95834956       0.95834956 </v>
    <v>       0.04166667       0.04166667       0.04166667 </v>
    <v>       0.04125823       0.04125823       0.37542903 </v>
    <v>       0.04125823       0.04125823       0.70872118 </v>
    <v>       0.04125823       0.37542903       0.04125823 </v>
    <v>       0.04162346       0.37501440       0.37501440 </v>
    <v>       0.04125823       0.37542903       0.70872118 </v>
    <v>       0.04125823       0.70872118       0.04125823 </v>
    <v>       0.04125823       0.70872118       0.37542903 </v>
    <v>       0.03360557       0.71102036       0.71102036 </v>
    <v>       0.37542903       0.04125823       0.04125823 </v>
    <v>       0.37501440       0.04162346       0.37501440 </v>
    <v>       0.37542903       0.04125823       0.70872118 </v>
    <v>       0.37501440       0.37501440       0.04162346 </v>
    <v>       0.37501440       0.37501440       0.37501440 </v>
    <v>       0.37287726       0.37287726       0.71045607 </v>
    <v>       0.37542903       0.70872118       0.04125823 </v>
    <v>       0.37287726       0.71045607       0.37287726 </v>
    <v>       0.37287726       0.71045607       0.71045607 </v>
    <v>       0.70872118       0.04125823       0.04125823 </v>
    <v>       0.70872118       0.04125823       0.37542903 </v>
    <v>       0.71102036       0.03360557       0.71102036 </v>
    <v>       0.70872118       0.37542903       0.04125823 </v>
    <v>       0.71045607       0.37287726       0.37287726 </v>
    <v>       0.71045607       0.37287726       0.71045607 </v>
    <v>       0.71102036       0.71102036       0.03360557 </v>
    <v>       0.71045607       0.71045607       0.37287726 </v>
    <v>       0.71102036       0.71102036       0.71102036 </v>
    <v>       0.54166667       0.54166667       0.54166667 </v>
   </varray>
  </structure>
  <varray name="forces" >
   <v>      -0.00000000       0.00000000       0.00000000 </v>
   <v>       0.01435408       0.01014987       0.03864070 </v>
   <v>       0.01435408       0.01014987      -0.03864070 </v>
   <v>       0.01833165       0.02140013       0.03175135 </v>
   <v>      -0.06452407       0.02281271       0.00000000 </v>
   <v>       0.01833165       0.02140013      -0.03175135 </v>
   <v>      -0.00397757      -0.04169987      -0.00688935 </v>
   <v>      -0.00397757      -0.04169987       0.00688935 </v>
   <v>      -0.00903256       0.00319349       0.00000000 </v>
   <v>       0.02628679       0.01014987       0.03175135 </v>
   <v>       0.00000000      -0.06843812       0.00000000 </v>
   <v>       0.02628679       0.01014987      -0.03175135 </v>
   <v>       0.03226204       0.02281271      -0.05587949 </v>
   <v>       0.03226204       0.02281271       0.05587949 </v>
   <v>      -0.06504488      -0.04599368       0.00000000 </v>
   <v>       0.00795514      -0.04169987       0.00000000 </v>
   <v>      -0.03252244       0.04599368      -0.05633052 </v>
   <v>      -0.03252244       0.04599368       0.05633052 </v>
   <v>      -0.04064087       0.01014987      -0.00688935 </v>
   <v>      -0.04064087       0.01014987       0.00688935 </v>
   <v>      -0.00000000      -0.00958047       0.00000000 </v>
   <v>      -0.03666330       0.02140013      -0.00000000 </v>
   <v>       0.03252244      -0.04599368      -0.05633052 </v>
   <v>       0.03252244      -0.04599368       0.05633052 </v>
   <v>       0.00451628       0.00319349      -0.00782242 </v>
   <v>       0.06504488       0.04599368       0.00000000 </v>
   <v>       0.00451628       0.00319349       0.00782242 </v>
   <v>      -0.00000000       0.00000000       0.00000000 </v>
   <v>       0.00108454       0.00076688      -0.03047079 </v>
   <v>       0.00108454       0.00076688       0.03047079 </v>
   <v>      -0.00825389      -0.02564618      -0.01429616 </v>
   <v>       0.05000075      -0.01767793       0.00000000 </v>
   <v>      -0.00825389      -0.02564618       0.01429616 </v>
   <v>       0.00933843       0.02411241       0.01617463 </v>
   <v>       0.00933843       0.02411241      -0.01617463 </v>
   <v>      -0.00499997       0.00176776       0.00000000 </v>
   <v>      -0.02693075       0.00076688      -0.01429616 </v>
   <v>      -0.00000000       0.05303380       0.00000000 </v>
   <v>      -0.02693075       0.00076688       0.01429616 </v>
   <v>      -0.02500037      -0.01767793       0.04330192 </v>
   <v>      -0.02500037      -0.01767793      -0.04330192 </v>
   <v>       0.04156919       0.02939385      -0.00000000 </v>
   <v>      -0.01867686       0.02411241       0.00000000 </v>
   <v>       0.02078459      -0.02939385       0.03599997 </v>
   <v>       0.02078459      -0.02939385      -0.03599997 </v>
   <v>       0.02584621       0.00076688       0.01617463 </v>
   <v>       0.02584621       0.00076688      -0.01617463 </v>
   <v>      -0.00000000      -0.00530327       0.00000000 </v>
[...]
        <r>  0.0003  0.0030  0.0000 </r>
        <r>  0.0008  0.0014  0.0000 </r>
        <r>  0.0003  0.0030  0.0000 </r>
        <r>  0.0004  0.0014  0.0000 </r>
        <r>  0.0002  0.0070  0.0000 </r>
        <r>  0.0004  0.0014  0.0000 </r>
        <r>  0.0004  0.0014  0.0000 </r>
        <r>  0.0018  0.0016  0.0000 </r>
        <r>  0.0003  0.0030  0.0000 </r>
        <r>  0.0025  0.0025  0.0000 </r>
        <r>  0.0018  0.0016  0.0000 </r>
        <r>  0.0003  0.0030  0.0000 </r>
        <r>  0.0002  0.0070  0.0000 </r>
        <r>  0.0008  0.0014  0.0000 </r>
        <r>  0.0003  0.0030  0.0000 </r>
        <r>  0.0018  0.0016  0.0000 </r>
        <r>  0.0025  0.0025  0.0000 </r>
        <r>  0.0008  0.0014  0.0000 </r>
        <r>  0.0018  0.0016  0.0000 </r>
        <r>  0.0008  0.0014  0.0000 </r>
        <r>  0.0000  0.0099  0.0000 </r>
        <r>  0.0007  0.0031  0.0000 </r>
        <r>  0.0007  0.0031  0.0000 </r>
        <r>  0.0008  0.0011  0.0000 </r>
        <r>  0.0045  0.0008  0.0000 </r>
        <r>  0.0007  0.0031  0.0000 </r>
        <r>  0.0008  0.0011  0.0000 </r>
        <r>  0.0007  0.0031  0.0000 </r>
        <r>  0.0000  0.0053  0.0000 </r>
        <r>  0.0007  0.0031  0.0000 </r>
        <r>  0.0045  0.0008  0.0000 </r>
        <r>  0.0008  0.0011  0.0000 </r>
        <r>  0.0045  0.0008  0.0000 </r>
        <r>  0.0045  0.0008  0.0000 </r>
        <r>  0.0007  0.0014  0.0000 </r>
        <r>  0.0007  0.0031  0.0000 </r>
        <r>  0.0000  0.0005  0.0000 </r>
        <r>  0.0007  0.0014  0.0000 </r>
        <r>  0.0007  0.0031  0.0000 </r>
        <r>  0.0008  0.0011  0.0000 </r>
        <r>  0.0000  0.0053  0.0000 </r>
        <r>  0.0007  0.0031  0.0000 </r>
        <r>  0.0007  0.0014  0.0000 </r>
        <r>  0.0000  0.0005  0.0000 </r>
        <r>  0.0000  0.0053  0.0000 </r>
        <r>  0.0007  0.0014  0.0000 </r>
        <r>  0.0000  0.0053  0.0000 </r>
        <r>  0.0000  0.0000  0.0000 </r>
       </set>
       <set comment="band 139">
        <r>  0.0000  0.0020  0.0000 </r>
        <r>  0.0000  0.0027  0.0000 </r>
        <r>  0.0000  0.0027  0.0000 </r>
        <r>  0.0013  0.0042  0.0000 </r>
        <r>  0.0001  0.0047  0.0000 </r>
        <r>  0.0000  0.0027  0.0000 </r>
        <r>  0.0013  0.0042  0.0000 </r>
        <r>  0.0000  0.0027  0.0000 </r>
        <r>  0.0005  0.0041  0.0000 </r>
        <r>  0.0000  0.0027  0.0000 </r>
        <r>  0.0001  0.0047  0.0000 </r>
        <r>  0.0013  0.0042  0.0000 </r>
        <r>  0.0001  0.0047  0.0000 </r>
        <r>  0.0001  0.0047  0.0000 </r>
        <r>  0.0002  0.0027  0.0000 </r>
        <r>  0.0000  0.0027  0.0000 </r>
        <r>  0.0000  0.0033  0.0000 </r>
        <r>  0.0002  0.0027  0.0000 </r>
        <r>  0.0000  0.0027  0.0000 </r>
        <r>  0.0013  0.0042  0.0000 </r>
        <r>  0.0005  0.0041  0.0000 </r>
        <r>  0.0000  0.0027  0.0000 </r>
        <r>  0.0002  0.0027  0.0000 </r>
        <r>  0.0000  0.0033  0.0000 </r>
        <r>  0.0005  0.0041  0.0000 </r>
        <r>  0.0002  0.0027  0.0000 </r>
        <r>  0.0005  0.0041  0.0000 </r>
        <r>  0.0001  0.0000  0.0000 </r>
        <r>  0.0006  0.0050  0.0000 </r>
        <r>  0.0006  0.0050  0.0000 </r>
        <r>  0.0001  0.0029  0.0000 </r>
        <r>  0.0002  0.0020  0.0000 </r>
        <r>  0.0006  0.0050  0.0000 </r>
        <r>  0.0001  0.0029  0.0000 </r>
        <r>  0.0006  0.0050  0.0000 </r>
        <r>  0.0000  0.0017  0.0000 </r>
        <r>  0.0006  0.0050  0.0000 </r>
        <r>  0.0002  0.0020  0.0000 </r>
        <r>  0.0001  0.0029  0.0000 </r>
        <r>  0.0002  0.0020  0.0000 </r>
        <r>  0.0002  0.0020  0.0000 </r>
        <r>  0.0001  0.0031  0.0000 </r>
        <r>  0.0006  0.0050  0.0000 </r>
        <r>  0.0015  0.0003  0.0000 </r>
        <r>  0.0001  0.0031  0.0000 </r>
        <r>  0.0006  0.0050  0.0000 </r>
        <r>  0.0001  0.0029  0.0000 </r>
        <r>  0.0000  0.0017  0.0000 </r>
        <r>  0.0006  0.0050  0.0000 </r>
        <r>  0.0001  0.0031  0.0000 </r>
        <r>  0.0015  0.0003  0.0000 </r>
        <r>  0.0000  0.0017  0.0000 </r>
        <r>  0.0001  0.0031  0.0000 </r>
        <r>  0.0000  0.0017  0.0000 </r>
        <r>  0.0000  0.0003  0.0000 </r>
       </set>
       <set comment="band 140">
        <r>  0.0029  0.0000  0.0000 </r>
        <r>  0.0021  0.0036  0.0000 </r>
        <r>  0.0021  0.0036  0.0000 </r>
        <r>  0.0019  0.0027  0.0000 </r>
        <r>  0.0004  0.0053  0.0000 </r>
        <r>  0.0021  0.0036  0.0000 </r>
        <r>  0.0019  0.0027  0.0000 </r>
        <r>  0.0021  0.0036  0.0000 </r>
        <r>  0.0000  0.0013  0.0000 </r>
        <r>  0.0021  0.0036  0.0000 </r>
        <r>  0.0004  0.0053  0.0000 </r>
        <r>  0.0019  0.0027  0.0000 </r>
        <r>  0.0004  0.0053  0.0000 </r>
        <r>  0.0004  0.0053  0.0000 </r>
        <r>  0.0005  0.0010  0.0000 </r>
        <r>  0.0021  0.0036  0.0000 </r>
        <r>  0.0009  0.0006  0.0000 </r>
        <r>  0.0005  0.0010  0.0000 </r>
        <r>  0.0021  0.0036  0.0000 </r>
        <r>  0.0019  0.0027  0.0000 </r>
        <r>  0.0000  0.0013  0.0000 </r>
        <r>  0.0021  0.0036  0.0000 </r>
        <r>  0.0005  0.0010  0.0000 </r>
        <r>  0.0009  0.0006  0.0000 </r>
        <r>  0.0000  0.0013  0.0000 </r>
        <r>  0.0005  0.0010  0.0000 </r>
        <r>  0.0000  0.0013  0.0000 </r>
        <r>  0.0000  0.0001  0.0000 </r>
        <r>  0.0007  0.0021  0.0000 </r>
        <r>  0.0007  0.0021  0.0000 </r>
        <r>  0.0027  0.0009  0.0000 </r>
        <r>  0.0001  0.0029  0.0000 </r>
        <r>  0.0007  0.0021  0.0000 </r>
        <r>  0.0027  0.0009  0.0000 </r>
        <r>  0.0007  0.0021  0.0000 </r>
        <r>  0.0013  0.0017  0.0000 </r>
        <r>  0.0007  0.0021  0.0000 </r>
        <r>  0.0001  0.0029  0.0000 </r>
        <r>  0.0027  0.0009  0.0000 </r>
        <r>  0.0001  0.0029  0.0000 </r>
        <r>  0.0001  0.0029  0.0000 </r>
        <r>  0.0007  0.0031  0.0000 </r>
        <r>  0.0007  0.0021  0.0000 </r>
        <r>  0.0000  0.0066  0.0000 </r>
        <r>  0.0007  0.0031  0.0000 </r>
        <r>  0.0007  0.0021  0.0000 </r>
        <r>  0.0027  0.0009  0.0000 </r>
        <r>  0.0013  0.0017  0.0000 </r>
        <r>  0.0007  0.0021  0.0000 </r>
        <r>  0.0007  0.0031  0.0000 </r>
        <r>  0.0000  0.0066  0.0000 </r>
        <r>  0.0013  0.0017  0.0000 </r>
        <r>  0.0007  0.0031  0.0000 </r>
        <r>  0.0012  0.0017  0.0000 </r>
        <r>  0.0000  0.0002  0.0000 </r>
       </set>
       <set comment="band 141">
        <r>  0.0000  0.0078  0.0000 </r>
        <r>  0.0009  0.0034  0.0000 </r>
        <r>  0.0009  0.0034  0.0000 </r>
        <r>  0.0003  0.0016  0.0000 </r>
        <r>  0.0000  0.0015  0.0000 </r>
        <r>  0.0009  0.0034  0.0000 </r>
        <r>  0.0003  0.0016  0.0000 </r>
        <r>  0.0009  0.0034  0.0000 </r>
        <r>  0.0012  0.0021  0.0000 </r>
        <r>  0.0009  0.0034  0.0000 </r>
        <r>  0.0000  0.0015  0.0000 </r>
        <r>  0.0003  0.0016  0.0000 </r>
        <r>  0.0000  0.0015  0.0000 </r>
        <r>  0.0000  0.0015  0.0000 </r>
        <r>  0.0000  0.0031  0.0000 </r>
        <r>  0.0009  0.0034  0.0000 </r>
        <r>  0.0000  0.0136  0.0000 </r>
        <r>  0.0000  0.0031  0.0000 </r>
        <r>  0.0009  0.0034  0.0000 </r>
        <r>  0.0003  0.0016  0.0000 </r>
        <r>  0.0012  0.0021  0.0000 </r>
        <r>  0.0009  0.0034  0.0000 </r>
        <r>  0.0000  0.0031  0.0000 </r>
        <r>  0.0000  0.0136  0.0000 </r>
        <r>  0.0012  0.0021  0.0000 </r>
        <r>  0.0000  0.0031  0.0000 </r>
        <r>  0.0012  0.0021  0.0000 </r>
        <r>  0.0000  0.0121  0.0000 </r>
        <r>  0.0000  0.0030  0.0000 </r>
        <r>  0.0000  0.0030  0.0000 </r>
        <r>  0.0004  0.0004  0.0000 </r>
        <r>  0.0006  0.0014  0.0000 </r>
        <r>  0.0000  0.0030  0.0000 </r>
        <r>  0.0004  0.0004  0.0000 </r>
        <r>  0.0000  0.0030  0.0000 </r>
        <r>  0.0011  0.0005  0.0000 </r>
        <r>  0.0000  0.0030  0.0000 </r>
        <r>  0.0006  0.0014  0.0000 </r>
        <r>  0.0004  0.0004  0.0000 </r>
        <r>  0.0006  0.0014  0.0000 </r>
        <r>  0.0006  0.0014  0.0000 </r>
        <r>  0.0008  0.0045  0.0000 </r>
        <r>  0.0000  0.0030  0.0000 </r>
        <r>  0.0000  0.0052  0.0000 </r>
        <r>  0.0008  0.0044  0.0000 </r>
        <r>  0.0000  0.0030  0.0000 </r>
        <r>  0.0004  0.0004  0.0000 </r>
        <r>  0.0011  0.0005  0.0000 </r>
        <r>  0.0000  0.0030  0.0000 </r>
        <r>  0.0008  0.0045  0.0000 </r>
        <r>  0.0000  0.0052  0.0000 </r>
        <r>  0.0011  0.0005  0.0000 </r>
        <r>  0.0008  0.0044  0.0000 </r>
        <r>  0.0011  0.0005  0.0000 </r>
        <r>  0.0000  0.0000  0.0000 </r>
       </set>
       <set comment="band 142">
        <r>  0.0000  0.0079  0.0000 </r>
        <r>  0.0004  0.0017  0.0000 </r>
        <r>  0.0004  0.0017  0.0000 </r>
        <r>  0.0024  0.0087  0.0000 </r>
        <r>  0.0025  0.0020  0.0000 </r>
        <r>  0.0004  0.0017  0.0000 </r>
        <r>  0.0024  0.0087  0.0000 </r>
        <r>  0.0004  0.0017  0.0000 </r>
        <r>  0.0001  0.0025  0.0000 </r>
        <r>  0.0004  0.0017  0.0000 </r>
        <r>  0.0025  0.0020  0.0000 </r>
        <r>  0.0024  0.0087  0.0000 </r>
        <r>  0.0025  0.0020  0.0000 </r>
        <r>  0.0025  0.0020  0.0000 </r>
        <r>  0.0015  0.0033  0.0000 </r>
        <r>  0.0004  0.0017  0.0000 </r>
        <r>  0.0000  0.0012  0.0000 </r>
        <r>  0.0015  0.0033  0.0000 </r>
        <r>  0.0004  0.0017  0.0000 </r>
        <r>  0.0024  0.0087  0.0000 </r>
        <r>  0.0001  0.0025  0.0000 </r>
        <r>  0.0004  0.0017  0.0000 </r>
        <r>  0.0015  0.0033  0.0000 </r>
        <r>  0.0000  0.0012  0.0000 </r>
        <r>  0.0001  0.0025  0.0000 </r>
        <r>  0.0015  0.0033  0.0000 </r>
        <r>  0.0001  0.0025  0.0000 </r>
        <r>  0.0000  0.0021  0.0000 </r>
        <r>  0.0021  0.0030  0.0000 </r>
        <r>  0.0021  0.0030  0.0000 </r>
        <r>  0.0000  0.0018  0.0000 </r>
        <r>  0.0003  0.0111  0.0000 </r>
        <r>  0.0021  0.0030  0.0000 </r>
        <r>  0.0000  0.0018  0.0000 </r>
        <r>  0.0021  0.0030  0.0000 </r>
        <r>  0.0009  0.0047  0.0000 </r>
        <r>  0.0021  0.0030  0.0000 </r>
        <r>  0.0003  0.0111  0.0000 </r>
        <r>  0.0000  0.0018  0.0000 </r>
        <r>  0.0003  0.0111  0.0000 </r>
        <r>  0.0003  0.0111  0.0000 </r>
        <r>  0.0003  0.0004  0.0000 </r>
        <r>  0.0021  0.0030  0.0000 </r>
        <r>  0.0011  0.0071  0.0000 </r>
        <r>  0.0003  0.0004  0.0000 </r>
        <r>  0.0021  0.0030  0.0000 </r>
        <r>  0.0000  0.0018  0.0000 </r>
        <r>  0.0009  0.0047  0.0000 </r>
        <r>  0.0021  0.0030  0.0000 </r>
        <r>  0.0003  0.0004  0.0000 </r>
        <r>  0.0011  0.0071  0.0000 </r>
        <r>  0.0009  0.0047  0.0000 </r>
        <r>  0.0003  0.0004  0.0000 </r>
        <r>  0.0009  0.0047  0.0000 </r>
        <r>  0.0001  0.0000  0.0000 </r>
       </set>
       <set comment="band 143">
        <r>  0.0000  0.0145  0.0000 </r>
        <r>  0.0000  0.0055  0.0000 </r>
        <r>  0.0000  0.0055  0.0000 </r>
        <r>  0.0004  0.0037  0.0000 </r>
        <r>  0.0005  0.0020  0.0000 </r>
        <r>  0.0000  0.0055  0.0000 </r>
        <r>  0.0004  0.0037  0.0000 </r>
        <r>  0.0000  0.0055  0.0000 </r>
        <r>  0.0001  0.0008  0.0000 </r>
        <r>  0.0000  0.0055  0.0000 </r>
        <r>  0.0005  0.0020  0.0000 </r>
        <r>  0.0004  0.0037  0.0000 </r>
        <r>  0.0005  0.0020  0.0000 </r>
        <r>  0.0005  0.0020  0.0000 </r>
        <r>  0.0001  0.0065  0.0000 </r>
        <r>  0.0000  0.0055  0.0000 </r>
        <r>  0.0007  0.0087  0.0000 </r>
        <r>  0.0001  0.0065  0.0000 </r>
        <r>  0.0000  0.0055  0.0000 </r>
        <r>  0.0004  0.0037  0.0000 </r>
        <r>  0.0001  0.0008  0.0000 </r>
        <r>  0.0000  0.0055  0.0000 </r>
        <r>  0.0001  0.0065  0.0000 </r>
        <r>  0.0007  0.0087  0.0000 </r>
        <r>  0.0001  0.0008  0.0000 </r>
        <r>  0.0001  0.0065  0.0000 </r>
        <r>  0.0001  0.0008  0.0000 </r>
        <r>  0.0000  0.0015  0.0000 </r>
        <r>  0.0018  0.0024  0.0000 </r>
        <r>  0.0018  0.0024  0.0000 </r>
        <r>  0.0003  0.0004  0.0000 </r>
        <r>  0.0027  0.0011  0.0000 </r>
        <r>  0.0018  0.0024  0.0000 </r>
        <r>  0.0003  0.0004  0.0000 </r>
        <r>  0.0018  0.0024  0.0000 </r>
        <r>  0.0008  0.0011  0.0000 </r>
        <r>  0.0018  0.0024  0.0000 </r>
        <r>  0.0027  0.0011  0.0000 </r>
        <r>  0.0003  0.0004  0.0000 </r>
        <r>  0.0027  0.0011  0.0000 </r>
        <r>  0.0027  0.0011  0.0000 </r>
        <r>  0.0015  0.0032  0.0000 </r>
        <r>  0.0018  0.0024  0.0000 </r>
        <r>  0.0000  0.0104  0.0000 </r>
        <r>  0.0015  0.0032  0.0000 </r>
        <r>  0.0018  0.0024  0.0000 </r>
        <r>  0.0003  0.0004  0.0000 </r>
        <r>  0.0008  0.0011  0.0000 </r>
        <r>  0.0018  0.0024  0.0000 </r>
        <r>  0.0015  0.0032  0.0000 </r>
        <r>  0.0000  0.0104  0.0000 </r>
        <r>  0.0008  0.0011  0.0000 </r>
        <r>  0.0015  0.0032  0.0000 </r>
        <r>  0.0008  0.0011  0.0000 </r>
        <r>  0.0000  0.0007  0.0000 </r>
       </set>
       <set comment="band 144">
        <r>  0.0050  0.0000  0.0000 </r>
        <r>  0.0000  0.0067  0.0000 </r>
        <r>  0.0000  0.0067  0.0000 </r>
        <r>  0.0007  0.0053  0.0000 </r>
        <r>  0.0006  0.0016  0.0000 </r>
        <r>  0.0000  0.0067  0.0000 </r>
        <r>  0.0008  0.0054  0.0000 </r>
        <r>  0.0000  0.0067  0.0000 </r>
        <r>  0.0001  0.0021  0.0000 </r>
        <r>  0.0000  0.0067  0.0000 </r>
        <r>  0.0006  0.0016  0.0000 </r>
        <r>  0.0008  0.0054  0.0000 </r>
        <r>  0.0006  0.0016  0.0000 </r>
        <r>  0.0006  0.0016  0.0000 </r>
        <r>  0.0002  0.0096  0.0000 </r>
        <r>  0.0000  0.0067  0.0000 </r>
        <r>  0.0016  0.0002  0.0000 </r>
        <r>  0.0002  0.0096  0.0000 </r>
        <r>  0.0000  0.0067  0.0000 </r>
        <r>  0.0007  0.0053  0.0000 </r>
        <r>  0.0001  0.0022  0.0000 </r>
        <r>  0.0000  0.0067  0.0000 </r>
        <r>  0.0002  0.0097  0.0000 </r>
        <r>  0.0016  0.0002  0.0000 </r>
        <r>  0.0001  0.0021  0.0000 </r>
        <r>  0.0002  0.0096  0.0000 </r>
        <r>  0.0001  0.0021  0.0000 </r>
        <r>  0.0000  0.0007  0.0000 </r>
        <r>  0.0004  0.0062  0.0000 </r>
        <r>  0.0004  0.0062  0.0000 </r>
        <r>  0.0021  0.0013  0.0000 </r>
        <r>  0.0006  0.0028  0.0000 </r>
        <r>  0.0004  0.0062  0.0000 </r>
        <r>  0.0021  0.0013  0.0000 </r>
        <r>  0.0004  0.0062  0.0000 </r>
        <r>  0.0032  0.0030  0.0000 </r>
        <r>  0.0004  0.0062  0.0000 </r>
        <r>  0.0006  0.0029  0.0000 </r>
        <r>  0.0021  0.0012  0.0000 </r>
        <r>  0.0006  0.0028  0.0000 </r>
        <r>  0.0006  0.0029  0.0000 </r>
        <r>  0.0007  0.0037  0.0000 </r>
        <r>  0.0004  0.0062  0.0000 </r>
        <r>  0.0000  0.0002  0.0000 </r>
        <r>  0.0007  0.0037  0.0000 </r>
        <r>  0.0004  0.0062  0.0000 </r>
        <r>  0.0021  0.0012  0.0000 </r>
        <r>  0.0032  0.0030  0.0000 </r>
        <r>  0.0004  0.0062  0.0000 </r>
        <r>  0.0007  0.0037  0.0000 </r>
        <r>  0.0000  0.0002  0.0000 </r>
        <r>  0.0032  0.0030  0.0000 </r>
        <r>  0.0007  0.0037  0.0000 </r>
        <r>  0.0032  0.0030  0.0000 </r>
        <r>  0.0000  0.0008  0.0000 </r>
       </set>
      </set>
     </set>
    </set>
   </array>
  </projected>
 </calculation>
 <structure name="finalpos" >
  <crystal>
   <varray name="basis" >
    <v>       9.97646553       0.00000000       5.75991507 </v>
    <v>       3.32548851       9.40590192       5.75991507 </v>
    <v>       0.00000000       0.00000000      11.51983014 </v>
   </varray>
   <i name="volume">   1080.99386112 </i>
   <varray name="rec_basis" >
    <v>       0.10023590      -0.03543874       0.00000000 </v>
    <v>       0.00000000       0.10631623       0.00000000 </v>
    <v>      -0.05011795      -0.03543874       0.08680684 </v>
   </varray>
  </crystal>
  <varray name="positions" >
   <v>       0.29166667       0.29166667       0.29166667 </v>
   <v>       0.29103859       0.29103859       0.62430439 </v>
   <v>       0.29103859       0.29103859       0.96028510 </v>
   <v>       0.29103859       0.62430439       0.29103859 </v>
   <v>       0.28124801       0.62847288       0.62847288 </v>
   <v>       0.29103859       0.62430439       0.96028510 </v>
   <v>       0.29103859       0.96028510       0.29103859 </v>
   <v>       0.29103859       0.96028510       0.62430439 </v>
   <v>       0.29155579       0.95837029       0.95837029 </v>
   <v>       0.62430439       0.29103859       0.29103859 </v>
   <v>       0.62847288       0.28124801       0.62847288 </v>
   <v>       0.62430439       0.29103859       0.96028510 </v>
   <v>       0.62847288       0.62847288       0.28124801 </v>
   <v>       0.62847288       0.62847288       0.62847288 </v>
   <v>       0.62428626       0.62428626       0.95904707 </v>
   <v>       0.62430439       0.96028510       0.29103859 </v>
   <v>       0.62428626       0.95904707       0.62428626 </v>
   <v>       0.62428626       0.95904707       0.95904707 </v>
   <v>       0.96028510       0.29103859       0.29103859 </v>
   <v>       0.96028510       0.29103859       0.62430439 </v>
   <v>       0.95837029       0.29155579       0.95837029 </v>
   <v>       0.96028510       0.62430439       0.29103859 </v>
   <v>       0.95904707       0.62428626       0.62428626 </v>
   <v>       0.95904707       0.62428626       0.95904707 </v>
   <v>       0.95837029       0.95837029       0.29155579 </v>
   <v>       0.95904707       0.95904707       0.62428626 </v>
   <v>       0.95837029       0.95837029       0.95837029 </v>
   <v>       0.04166667       0.04166667       0.04166667 </v>
   <v>       0.04126298       0.04126298       0.37526895 </v>
   <v>       0.04126298       0.04126298       0.70887177 </v>
   <v>       0.04126298       0.37526895       0.04126298 </v>
   <v>       0.04195618       0.37490349       0.37490349 </v>
   <v>       0.04126298       0.37526895       0.70887177 </v>
   <v>       0.04126298       0.70887177       0.04126298 </v>
   <v>       0.04126298       0.70887177       0.37526895 </v>
   <v>       0.03325027       0.71113880       0.71113880 </v>
   <v>       0.37526895       0.04126298       0.04126298 </v>
   <v>       0.37490349       0.04195618       0.37490349 </v>
   <v>       0.37526895       0.04126298       0.70887177 </v>
   <v>       0.37490349       0.37490349       0.04195618 </v>
   <v>       0.37490349       0.37490349       0.37490349 </v>
   <v>       0.37306026       0.37306026       0.71027307 </v>
   <v>       0.37526895       0.70887177       0.04126298 </v>
   <v>       0.37306026       0.71027307       0.37306026 </v>
   <v>       0.37306026       0.71027307       0.71027307 </v>
   <v>       0.70887177       0.04126298       0.04126298 </v>
   <v>       0.70887177       0.04126298       0.37526895 </v>
   <v>       0.71113880       0.03325027       0.71113880 </v>
   <v>       0.70887177       0.37526895       0.04126298 </v>
   <v>       0.71027307       0.37306026       0.37306026 </v>
   <v>       0.71027307       0.37306026       0.71027307 </v>
   <v>       0.71113880       0.71113880       0.03325027 </v>
   <v>       0.71027307       0.71027307       0.37306026 </v>
   <v>       0.71113880       0.71113880       0.71113880 </v>
   <v>       0.54166667       0.54166667       0.54166667 </v>
  </varray>
 </structure>
</modeling>
