<?xml version="1.0" encoding="ISO-8859-1"?>
<modeling>
 <generator>
  <i name="program" type="string">vasp </i>
  <i name="version" type="string">5.4.4.18Apr17-6-g9f103f2a35  </i>
  <i name="subversion" type="string">(build Jun 19 2019 10:34:07) complex            parallel </i>
  <i name="platform" type="string">LB-5.4 </i>
  <i name="date" type="string">2023 05 15 </i>
  <i name="time" type="string">18:43:09 </i>
 </generator>
 <incar>
  <i type="string" name="SYSTEM"> Si</i>
  <i type="string" name="PREC">normal</i>
  <i type="string" name="ALGO"> Normal</i>
  <i type="int" name="ISPIN">     1</i>
  <i name="AMIX">      0.20000000</i>
  <i type="int" name="NELM">   200</i>
  <i type="int" name="IBRION">     2</i>
  <i name="EDIFF">      0.00001000</i>
  <i name="EDIFFG">     -0.05000000</i>
  <i type="int" name="NSW">   100</i>
  <i type="int" name="ISIF">     2</i>
  <i type="int" name="ISYM">     2</i>
  <i name="ENCUT">    550.00000000</i>
  <i name="NELECT">    215.00000000</i>
  <i type="logical" name="LREAL"> F  </i>
  <i type="int" name="ISMEAR">     0</i>
  <i name="SIGMA">      0.05000000</i>
  <i type="logical" name="LWAVE"> T  </i>
  <i type="logical" name="LCHARG"> T  </i>
  <i type="int" name="LORBIT">    10</i>
  <v type="int" name="KPOINT_BSE">    -1     0     0     0</v>
  <i type="int" name="NELM">   200</i>
 </incar>
 <structure name="primitive_cell" >
  <crystal>
   <varray name="basis" >
    <v>       9.97646553       0.00000000       5.75991507 </v>
    <v>       3.32548851       9.40590192       5.75991507 </v>
    <v>       0.00000000       0.00000000      11.51983014 </v>
   </varray>
   <i name="volume">   1080.99386112 </i>
   <varray name="rec_basis" >
    <v>       0.10023590      -0.03543874       0.00000000 </v>
    <v>       0.00000000       0.10631623       0.00000000 </v>
    <v>      -0.05011795      -0.03543874       0.08680684 </v>
   </varray>
  </crystal>
  <varray name="positions" >
   <v>       0.29166667       0.29166667       0.29166667 </v>
   <v>       0.04166667       0.37500000       0.37500000 </v>
   <v>       0.37500000       0.37500000       0.04166667 </v>
   <v>       0.37500000       0.37500000       0.37500000 </v>
   <v>       0.37500000       0.04166667       0.37500000 </v>
   <v>      -0.04166667       0.29166667       0.29166667 </v>
   <v>      -0.37500000       0.29166667      -0.04166667 </v>
   <v>      -0.04166667       0.29166667      -0.37500000 </v>
   <v>      -0.37500000       0.29166667       0.29166667 </v>
   <v>      -0.37500000      -0.04166667       0.29166667 </v>
   <v>      -0.04166667      -0.37500000       0.29166667 </v>
   <v>       0.29166667      -0.04166667       0.29166667 </v>
   <v>       0.29166667      -0.37500000      -0.04166667 </v>
   <v>       0.29166667      -0.04166667      -0.37500000 </v>
   <v>       0.29166667      -0.37500000       0.29166667 </v>
   <v>       0.29166667       0.29166667      -0.04166667 </v>
   <v>       0.29166667       0.29166667      -0.37500000 </v>
   <v>      -0.29166667       0.37500000       0.04166667 </v>
   <v>       0.04166667       0.04166667       0.37500000 </v>
   <v>      -0.29166667       0.04166667       0.04166667 </v>
   <v>       0.04166667       0.04166667      -0.29166667 </v>
   <v>      -0.29166667       0.04166667       0.37500000 </v>
   <v>       0.37500000      -0.29166667       0.04166667 </v>
   <v>       0.04166667       0.37500000       0.04166667 </v>
   <v>       0.04166667       0.37500000      -0.29166667 </v>
   <v>       0.04166667      -0.29166667       0.04166667 </v>
   <v>       0.04166667      -0.29166667       0.37500000 </v>
   <v>       0.37500000       0.04166667       0.04166667 </v>
   <v>       0.37500000       0.04166667      -0.29166667 </v>
   <v>      -0.04166667      -0.04166667      -0.37500000 </v>
   <v>      -0.37500000      -0.37500000      -0.04166667 </v>
   <v>      -0.37500000      -0.04166667      -0.04166667 </v>
   <v>      -0.04166667      -0.37500000      -0.04166667 </v>
   <v>      -0.37500000      -0.04166667      -0.37500000 </v>
   <v>      -0.04166667      -0.37500000      -0.37500000 </v>
   <v>      -0.29166667       0.37500000       0.37500000 </v>
   <v>      -0.29166667       0.37500000      -0.29166667 </v>
   <v>      -0.29166667      -0.29166667       0.37500000 </v>
   <v>       0.37500000      -0.29166667      -0.29166667 </v>
   <v>       0.37500000      -0.29166667       0.37500000 </v>
   <v>       0.37500000       0.37500000      -0.29166667 </v>
   <v>      -0.37500000       0.29166667      -0.37500000 </v>
   <v>      -0.04166667       0.29166667      -0.04166667 </v>
   <v>      -0.37500000      -0.37500000       0.29166667 </v>
   <v>      -0.04166667      -0.04166667      -0.04166667 </v>
   <v>      -0.37500000      -0.37500000      -0.37500000 </v>
   <v>      -0.04166667      -0.04166667       0.29166667 </v>
   <v>       0.29166667      -0.37500000      -0.37500000 </v>
   <v>       0.29166667      -0.04166667      -0.04166667 </v>
   <v>      -0.29166667       0.04166667      -0.29166667 </v>
   <v>       0.04166667       0.04166667       0.04166667 </v>
   <v>      -0.29166667      -0.29166667      -0.29166667 </v>
   <v>      -0.29166667      -0.29166667       0.04166667 </v>
   <v>       0.04166667      -0.29166667      -0.29166667 </v>
  </varray>
 </structure>
 <varray name="primitive_index" >
  <v type="int" >        1 </v>
  <v type="int" >       32 </v>
  <v type="int" >       40 </v>
  <v type="int" >       41 </v>
  <v type="int" >       38 </v>
  <v type="int" >       19 </v>
  <v type="int" >       12 </v>
  <v type="int" >       20 </v>
  <v type="int" >       10 </v>
  <v type="int" >       16 </v>
  <v type="int" >       22 </v>
  <v type="int" >        7 </v>
  <v type="int" >        6 </v>
  <v type="int" >        8 </v>
  <v type="int" >        4 </v>
  <v type="int" >        3 </v>
  <v type="int" >        2 </v>
  <v type="int" >       49 </v>
  <v type="int" >       29 </v>
  <v type="int" >       46 </v>
  <v type="int" >       30 </v>
  <v type="int" >       47 </v>
  <v type="int" >       43 </v>
  <v type="int" >       31 </v>
  <v type="int" >       33 </v>
  <v type="int" >       34 </v>
  <v type="int" >       35 </v>
  <v type="int" >       37 </v>
  <v type="int" >       39 </v>
  <v type="int" >       26 </v>
  <v type="int" >       15 </v>
  <v type="int" >       18 </v>
  <v type="int" >       24 </v>
  <v type="int" >       17 </v>
  <v type="int" >       23 </v>
  <v type="int" >       50 </v>
  <v type="int" >       51 </v>
  <v type="int" >       53 </v>
  <v type="int" >       45 </v>
  <v type="int" >       44 </v>
  <v type="int" >       42 </v>
  <v type="int" >       11 </v>
  <v type="int" >       21 </v>
  <v type="int" >       13 </v>
  <v type="int" >       27 </v>
  <v type="int" >       14 </v>
  <v type="int" >       25 </v>
  <v type="int" >        5 </v>
  <v type="int" >        9 </v>
  <v type="int" >       48 </v>
  <v type="int" >       28 </v>
  <v type="int" >       54 </v>
  <v type="int" >       52 </v>
  <v type="int" >       36 </v>
 </varray>
 <kpoints>
  <generation param="Gamma">
   <v type="int" name="divisions">       4        4        4 </v>
   <v name="usershift">      0.00000000       0.00000000       0.00000000 </v>
   <v name="genvec1">      0.25000000       0.00000000       0.00000000 </v>
   <v name="genvec2">      0.00000000       0.25000000       0.00000000 </v>
   <v name="genvec3">     -0.00000000      -0.00000000       0.25000000 </v>
   <v name="shift">      0.00000000       0.00000000       0.00000000 </v>
  </generation>
  <varray name="kpointlist" >
   <v>       0.00000000       0.00000000       0.00000000 </v>
   <v>       0.25000000       0.00000000       0.00000000 </v>
   <v>       0.50000000       0.00000000       0.00000000 </v>
   <v>       0.25000000       0.25000000       0.00000000 </v>
   <v>       0.50000000       0.25000000       0.00000000 </v>
   <v>      -0.25000000       0.25000000       0.00000000 </v>
   <v>       0.50000000       0.50000000       0.00000000 </v>
   <v>      -0.25000000       0.50000000       0.25000000 </v>
  </varray>
  <varray name="weights" >
   <v>       0.01562500 </v>
   <v>       0.12500000 </v>
   <v>       0.06250000 </v>
   <v>       0.09375000 </v>
   <v>       0.37500000 </v>
   <v>       0.18750000 </v>
   <v>       0.04687500 </v>
   <v>       0.09375000 </v>
  </varray>
 </kpoints>
 <parameters>
  <separator name="general" >
   <i type="string" name="SYSTEM">Si</i>
   <i type="logical" name="LCOMPAT"> F  </i>
  </separator>
  <separator name="electronic" >
   <i type="string" name="PREC">normal</i>
   <i name="ENMAX">    550.00000000</i>
   <i name="ENAUG">    535.51400000</i>
   <i name="EDIFF">      0.00001000</i>
   <i type="int" name="IALGO">    38</i>
   <i type="int" name="IWAVPR">    11</i>
   <i type="int" name="NBANDS">   144</i>
   <i name="NELECT">    215.00000000</i>
   <i type="int" name="TURBO">     0</i>
   <i type="int" name="IRESTART">     0</i>
   <i type="int" name="NREBOOT">     0</i>
   <i type="int" name="NMIN">     0</i>
   <i name="EREF">      0.00000000</i>
   <separator name="electronic smearing" >
    <i type="int" name="ISMEAR">     0</i>
    <i name="SIGMA">      0.05000000</i>
    <i name="KSPACING">      0.50000000</i>
    <i type="logical" name="KGAMMA"> T  </i>
   </separator>
   <separator name="electronic projectors" >
    <i type="logical" name="LREAL"> F  </i>
    <v name="ROPT">      0.00000000      0.00000000</v>
    <i type="int" name="LMAXPAW">  -100</i>
    <i type="int" name="LMAXMIX">     2</i>
    <i type="logical" name="NLSPLINE"> F  </i>
   </separator>
   <separator name="electronic startup" >
    <i type="int" name="ISTART">     1</i>
    <i type="int" name="ICHARG">     0</i>
    <i type="int" name="INIWAV">     1</i>
   </separator>
   <separator name="electronic spin" >
    <i type="int" name="ISPIN">     1</i>
    <i type="logical" name="LNONCOLLINEAR"> F  </i>
    <v name="MAGMOM">      1.00000000      1.00000000      1.00000000      1.00000000      1.00000000      1.00000000      1.00000000      1.00000000      1.00000000      1.00000000      1.00000000      1.00000000      1.00000000      1.00000000      1.00000000      1.00000000      1.00000000      1.00000000      1.00000000      1.00000000
      1.00000000      1.00000000      1.00000000      1.00000000      1.00000000      1.00000000      1.00000000      1.00000000      1.00000000      1.00000000      1.00000000      1.00000000      1.00000000      1.00000000      1.00000000      1.00000000      1.00000000      1.00000000      1.00000000      1.00000000
      1.00000000      1.00000000      1.00000000      1.00000000      1.00000000      1.00000000      1.00000000      1.00000000      1.00000000      1.00000000      1.00000000      1.00000000      1.00000000      1.00000000</v>
    <i name="NUPDOWN">     -1.00000000</i>
    <i type="logical" name="LSORBIT"> F  </i>
    <v name="SAXIS">      0.00000000      0.00000000      1.00000000</v>
    <i type="logical" name="LSPIRAL"> F  </i>
    <v name="QSPIRAL">      0.00000000      0.00000000      0.00000000</v>
    <i type="logical" name="LZEROZ"> F  </i>
   </separator>
   <separator name="electronic exchange-correlation" >
    <i type="logical" name="LASPH"> F  </i>
    <i type="logical" name="LMETAGGA"> F  </i>
   </separator>
   <separator name="electronic convergence" >
    <i type="int" name="NELM">   200</i>
    <i type="int" name="NELMDL">     0</i>
    <i type="int" name="NELMIN">     2</i>
    <i name="ENINI">    550.00000000</i>
    <separator name="electronic convergence detail" >
     <i type="logical" name="LDIAG"> T  </i>
     <i type="logical" name="LSUBROT"> F  </i>
     <i name="WEIMIN">      0.00100000</i>
     <i name="EBREAK">      0.00000002</i>
     <i name="DEPER">      0.30000000</i>
     <i type="int" name="NRMM">     4</i>
     <i name="TIME">      0.40000000</i>
    </separator>
   </separator>
   <separator name="electronic mixer" >
    <i name="AMIX">      0.20000000</i>
    <i name="BMIX">      1.00000000</i>
    <i name="AMIN">      0.10000000</i>
    <i name="AMIX_MAG">      0.80000000</i>
    <i name="BMIX_MAG">      1.00000000</i>
    <separator name="electronic mixer details" >
     <i type="int" name="IMIX">     4</i>
     <i type="logical" name="MIXFIRST"> F  </i>
     <i type="int" name="MAXMIX">   -45</i>
     <i name="WC">    100.00000000</i>
     <i type="int" name="INIMIX">     1</i>
     <i type="int" name="MIXPRE">     1</i>
     <i type="int" name="MREMOVE">     5</i>
    </separator>
   </separator>
   <separator name="electronic dipolcorrection" >
    <i type="logical" name="LDIPOL"> F  </i>
    <i type="logical" name="LMONO"> F  </i>
    <i type="int" name="IDIPOL">     0</i>
    <i name="EPSILON">      1.00000000</i>
    <v name="DIPOL">   -100.00000000   -100.00000000   -100.00000000</v>
    <i name="EFIELD">      0.00000000</i>
   </separator>
  </separator>
  <separator name="grids" >
   <i type="int" name="NGX">    70</i>
   <i type="int" name="NGY">    70</i>
   <i type="int" name="NGZ">    70</i>
   <i type="int" name="NGXF">   140</i>
   <i type="int" name="NGYF">   140</i>
   <i type="int" name="NGZF">   140</i>
   <i type="logical" name="ADDGRID"> F  </i>
  </separator>
  <separator name="ionic" >
   <i type="int" name="NSW">   100</i>
   <i type="int" name="IBRION">     2</i>
   <i type="int" name="MDALGO">     0</i>
   <i type="int" name="ISIF">     2</i>
   <i name="PSTRESS">      0.00000000</i>
   <i name="EDIFFG">     -0.05000000</i>
   <i type="int" name="NFREE">     1</i>
   <i name="POTIM">      0.50000000</i>
   <i name="SMASS">     -3.00000000</i>
   <i name="SCALEE">      1.00000000</i>
  </separator>
  <separator name="ionic md" >
   <i name="TEBEG">      0.00010000</i>
   <i name="TEEND">      0.00010000</i>
   <i type="int" name="NBLOCK">     1</i>
   <i type="int" name="KBLOCK">   100</i>
   <i type="int" name="NPACO">   256</i>
   <i name="APACO">     16.00000000</i>
  </separator>
  <separator name="symmetry" >
   <i type="int" name="ISYM">     2</i>
   <i name="SYMPREC">      0.00001000</i>
  </separator>
  <separator name="dos" >
   <i type="int" name="LORBIT">    10</i>
   <v name="RWIGS">     -1.00000000     -1.00000000</v>
   <i type="int" name="NEDOS">   301</i>
   <i name="EMIN">     10.00000000</i>
   <i name="EMAX">    -10.00000000</i>
   <i name="EFERMI">      0.00000000</i>
  </separator>
  <separator name="writing" >
   <i type="int" name="NWRITE">     2</i>
   <i type="logical" name="LWAVE"> T  </i>
   <i type="logical" name="LDOWNSAMPLE"> F  </i>
   <i type="logical" name="LCHARG"> T  </i>
   <i type="logical" name="LPARD"> F  </i>
   <i type="logical" name="LVTOT"> F  </i>
   <i type="logical" name="LVHAR"> F  </i>
   <i type="logical" name="LELF"> F  </i>
   <i type="logical" name="LOPTICS"> F  </i>
   <v name="STM">      0.00000000      0.00000000      0.00000000      0.00000000      0.00000000      0.00000000      0.00000000</v>
  </separator>
  <separator name="performance" >
   <i type="int" name="NPAR">    24</i>
   <i type="int" name="NSIM">     4</i>
   <i type="int" name="NBLK">    -1</i>
   <i type="logical" name="LPLANE"> T  </i>
   <i type="logical" name="LSCALAPACK"> T  </i>
   <i type="logical" name="LSCAAWARE"> F  </i>
   <i type="logical" name="LSCALU"> F  </i>
   <i type="logical" name="LASYNC"> F  </i>
   <i type="logical" name="LORBITALREAL"> F  </i>
  </separator>
  <separator name="miscellaneous" >
   <i type="int" name="IDIOT">     3</i>
   <i type="int" name="ISPECIAL">     0</i>
   <i type="logical" name="LMUSIC"> F  </i>
   <v name="POMASS">     10.81100000     28.08500000</v>
   <v name="DARWINR">      0.00000000      0.00000000</v>
   <v name="DARWINV">      1.00000000      1.00000000</v>
   <i type="logical" name="LCORR"> T  </i>
  </separator>
  <i type="logical" name="GGA_COMPAT"> T  </i>
  <i type="logical" name="LBERRY"> F  </i>
  <i type="int" name="ICORELEVEL">     0</i>
  <i type="logical" name="LDAU"> F  </i>
  <i type="int" name="I_CONSTRAINED_M">     0</i>
  <separator name="electronic exchange-correlation" >
   <i type="string" name="GGA">--</i>
   <i type="int" name="VOSKOWN">     0</i>
   <i type="logical" name="LHFCALC"> F  </i>
   <i type="string" name="PRECFOCK"></i>
   <i type="logical" name="LSYMGRAD"> F  </i>
   <i type="logical" name="LHFONE"> F  </i>
   <i type="logical" name="LRHFCALC"> F  </i>
   <i type="logical" name="LTHOMAS"> F  </i>
   <i type="logical" name="LMODELHF"> F  </i>
   <i name="ENCUT4O">     -1.00000000</i>
   <i type="int" name="EXXOEP">     0</i>
   <i type="int" name="FOURORBIT">     0</i>
   <i name="AEXX">      0.00000000</i>
   <i name="HFALPHA">      0.00000000</i>
   <i name="MCALPHA">      0.00000000</i>
   <i name="ALDAX">      1.00000000</i>
   <i name="AGGAX">      1.00000000</i>
   <i name="ALDAC">      1.00000000</i>
   <i name="AGGAC">      1.00000000</i>
   <i type="int" name="NKREDX">     1</i>
   <i type="int" name="NKREDY">     1</i>
   <i type="int" name="NKREDZ">     1</i>
   <i type="logical" name="SHIFTRED"> F  </i>
   <i type="logical" name="ODDONLY"> F  </i>
   <i type="logical" name="EVENONLY"> F  </i>
   <i type="int" name="LMAXFOCK">     0</i>
   <i type="int" name="NMAXFOCKAE">     0</i>
   <i type="logical" name="LFOCKAEDFT"> F  </i>
   <i name="HFSCREEN">      0.00000000</i>
   <i name="HFSCREENC">      0.00000000</i>
   <i type="int" name="NBANDSGWLOW">     0</i>
  </separator>
  <separator name="vdW DFT" >
   <i type="logical" name="LUSE_VDW"> F  </i>
   <i name="Zab_VDW">     -0.84910000</i>
   <i name="PARAM1">      0.12340000</i>
   <i name="PARAM2">      1.00000000</i>
   <i name="PARAM3">      0.00000000</i>
  </separator>
  <separator name="model GW" >
   <i type="int" name="MODEL_GW">     0</i>
   <i name="MODEL_EPS0">     12.01104290</i>
   <i name="MODEL_ALPHA">      1.00000000</i>
  </separator>
  <separator name="linear response parameters" >
   <i type="logical" name="LEPSILON"> F  </i>
   <i type="logical" name="LRPA"> F  </i>
   <i type="logical" name="LNABLA"> F  </i>
   <i type="logical" name="LVEL"> F  </i>
   <i type="int" name="KINTER">     0</i>
   <i name="CSHIFT">      0.10000000</i>
   <i name="OMEGAMAX">     -1.00000000</i>
   <i name="DEG_THRESHOLD">      0.00200000</i>
   <i name="RTIME">     -0.10000000</i>
   <i name="WPLASMAI">      0.00000000</i>
   <v name="DFIELD">      0.00000000      0.00000000      0.00000000</v>
   <v name="WPLASMA">      0.00000000      0.00000000      0.00000000      0.00000000      0.00000000      0.00000000      0.00000000      0.00000000      0.00000000</v>
  </separator>
  <separator name="orbital magnetization" >
   <i type="logical" name="NUCIND"> F  </i>
   <v name="MAGPOS">      0.00000000      0.00000000      0.00000000</v>
   <i type="logical" name="LNICSALL"> T  </i>
   <i type="logical" name="ORBITALMAG"> F  </i>
   <i type="logical" name="LMAGBLOCH"> F  </i>
   <i type="logical" name="LCHIMAG"> F  </i>
   <i type="logical" name="LGAUGE"> T  </i>
   <i type="int" name="MAGATOM">     0</i>
   <v name="MAGDIPOL">      0.00000000      0.00000000      0.00000000</v>
   <v name="AVECCONST">      0.00000000      0.00000000      0.00000000</v>
  </separator>
  <separator name="response functions" >
   <i type="logical" name="LADDER"> F  </i>
   <i type="logical" name="LRPAFORCE"> F  </i>
   <i type="logical" name="LFXC"> F  </i>
   <i type="logical" name="LHARTREE"> T  </i>
   <i type="int" name="IBSE">     0</i>
   <v type="int" name="KPOINT">    -1     0     0     0</v>
   <i type="logical" name="LTCTE"> F  </i>
   <i type="logical" name="LTETE"> F  </i>
   <i type="logical" name="LTRIPLET"> F  </i>
   <i type="logical" name="LFXCEPS"> F  </i>
   <i type="logical" name="LFXHEG"> F  </i>
   <i type="int" name="NATURALO">     2</i>
   <i type="logical" name="L2ORDER"> F  </i>
   <i type="logical" name="LMP2LT"> F  </i>
   <i type="logical" name="LUSEW"> F  </i>
   <i name="ENCUTGW">     -2.00000000</i>
   <i name="ENCUTGWSOFT">     -2.00000000</i>
   <i name="ENCUTLF">     -1.00000000</i>
   <i type="int" name="LMAXMP2">    -1</i>
   <i name="SCISSOR">      0.00000000</i>
   <i type="int" name="NOMEGA">     0</i>
   <i type="int" name="NOMEGAR">     0</i>
   <i type="int" name="NBANDSGW">    -1</i>
   <i type="int" name="NBANDSO">    -1</i>
   <i type="int" name="NBANDSV">    -1</i>
   <i type="int" name="NELM">   200</i>
   <i type="int" name="NELMHF">     1</i>
   <i type="int" name="DIM">     3</i>
   <i type="int" name="ANTIRES">     0</i>
   <i name="OMEGAMAX">    -30.00000000</i>
   <i name="OMEGAMIN">    -30.00000000</i>
   <i name="OMEGATL">   -200.00000000</i>
   <i type="int" name="OMEGAGRID">   140</i>
   <i name="CSHIFT">     -0.10000000</i>
   <i type="logical" name="SELFENERGY"> F  </i>
   <i type="logical" name="LSPECTRAL"> F  </i>
   <i type="logical" name="LSPECTRALGW"> F  </i>
   <i type="logical" name="LSINGLES"> F  </i>
   <i type="logical" name="LFERMIGW"> F  </i>
   <i type="logical" name="ODDONLYGW"> F  </i>
   <i type="logical" name="EVENONLYGW"> F  </i>
   <i type="int" name="NKREDLFX">     1</i>
   <i type="int" name="NKREDLFY">     1</i>
   <i type="int" name="NKREDLFZ">     1</i>
   <i type="int" name="MAXMEM">  2800</i>
   <i type="int" name="TELESCOPE">     0</i>
   <i type="int" name="TAUPAR">     1</i>
   <i type="int" name="OMEGAPAR">    -1</i>
   <i name="LAMBDA">      1.00000000</i>
  </separator>
  <separator name="External order field" >
   <i name="OFIELD_KAPPA">      0.00000000</i>
   <v name="OFIELD_K">      0.00000000      0.00000000      0.00000000</v>
   <i name="OFIELD_Q6_NEAR">      0.00000000</i>
   <i name="OFIELD_Q6_FAR">      0.00000000</i>
   <i name="OFIELD_A">      0.00000000</i>
  </separator>
 </parameters>
 <atominfo>
  <atoms>      54 </atoms>
  <types>       2 </types>
  <array name="atoms" >
   <dimension dim="1">ion</dimension>
   <field type="string">element</field>
   <field type="int">atomtype</field>
   <set>
    <rc><c>B </c><c>   1</c></rc>
    <rc><c>Si</c><c>   2</c></rc>
    <rc><c>Si</c><c>   2</c></rc>
    <rc><c>Si</c><c>   2</c></rc>
    <rc><c>Si</c><c>   2</c></rc>
    <rc><c>Si</c><c>   2</c></rc>
    <rc><c>Si</c><c>   2</c></rc>
    <rc><c>Si</c><c>   2</c></rc>
    <rc><c>Si</c><c>   2</c></rc>
    <rc><c>Si</c><c>   2</c></rc>
    <rc><c>Si</c><c>   2</c></rc>
    <rc><c>Si</c><c>   2</c></rc>
    <rc><c>Si</c><c>   2</c></rc>
    <rc><c>Si</c><c>   2</c></rc>
    <rc><c>Si</c><c>   2</c></rc>
    <rc><c>Si</c><c>   2</c></rc>
    <rc><c>Si</c><c>   2</c></rc>
    <rc><c>Si</c><c>   2</c></rc>
    <rc><c>Si</c><c>   2</c></rc>
    <rc><c>Si</c><c>   2</c></rc>
    <rc><c>Si</c><c>   2</c></rc>
    <rc><c>Si</c><c>   2</c></rc>
    <rc><c>Si</c><c>   2</c></rc>
    <rc><c>Si</c><c>   2</c></rc>
    <rc><c>Si</c><c>   2</c></rc>
    <rc><c>Si</c><c>   2</c></rc>
    <rc><c>Si</c><c>   2</c></rc>
    <rc><c>Si</c><c>   2</c></rc>
    <rc><c>Si</c><c>   2</c></rc>
    <rc><c>Si</c><c>   2</c></rc>
    <rc><c>Si</c><c>   2</c></rc>
    <rc><c>Si</c><c>   2</c></rc>
    <rc><c>Si</c><c>   2</c></rc>
    <rc><c>Si</c><c>   2</c></rc>
    <rc><c>Si</c><c>   2</c></rc>
    <rc><c>Si</c><c>   2</c></rc>
    <rc><c>Si</c><c>   2</c></rc>
    <rc><c>Si</c><c>   2</c></rc>
    <rc><c>Si</c><c>   2</c></rc>
    <rc><c>Si</c><c>   2</c></rc>
    <rc><c>Si</c><c>   2</c></rc>
    <rc><c>Si</c><c>   2</c></rc>
    <rc><c>Si</c><c>   2</c></rc>
    <rc><c>Si</c><c>   2</c></rc>
    <rc><c>Si</c><c>   2</c></rc>
    <rc><c>Si</c><c>   2</c></rc>
    <rc><c>Si</c><c>   2</c></rc>
    <rc><c>Si</c><c>   2</c></rc>
    <rc><c>Si</c><c>   2</c></rc>
    <rc><c>Si</c><c>   2</c></rc>
    <rc><c>Si</c><c>   2</c></rc>
    <rc><c>Si</c><c>   2</c></rc>
    <rc><c>Si</c><c>   2</c></rc>
    <rc><c>Si</c><c>   2</c></rc>
   </set>
  </array>
  <array name="atomtypes" >
   <dimension dim="1">type</dimension>
   <field type="int">atomspertype</field>
   <field type="string">element</field>
   <field>mass</field>
   <field>valence</field>
   <field type="string">pseudopotential</field>
   <set>
    <rc><c>   1</c><c>B </c><c>     10.81100000</c><c>      3.00000000</c><c>  PAW_PBE B 06Sep2000                   </c></rc>
    <rc><c>  53</c><c>Si</c><c>     28.08500000</c><c>      4.00000000</c><c>  PAW_PBE Si 05Jan2001                  </c></rc>
   </set>
  </array>
 </atominfo>
 <structure name="initialpos" >
  <crystal>
   <varray name="basis" >
    <v>       9.97646553       0.00000000       5.75991507 </v>
    <v>       3.32548851       9.40590192       5.75991507 </v>
    <v>       0.00000000       0.00000000      11.51983014 </v>
   </varray>
   <i name="volume">   1080.99386112 </i>
   <varray name="rec_basis" >
    <v>       0.10023590      -0.03543874       0.00000000 </v>
    <v>       0.00000000       0.10631623       0.00000000 </v>
    <v>      -0.05011795      -0.03543874       0.08680684 </v>
   </varray>
  </crystal>
  <varray name="positions" >
   <v>       0.29166667       0.29166667       0.29166667 </v>
   <v>       0.29166667       0.29166667       0.62500000 </v>
   <v>       0.29166667       0.29166667       0.95833333 </v>
   <v>       0.29166667       0.62500000       0.29166667 </v>
   <v>       0.29166667       0.62500000       0.62500000 </v>
   <v>       0.29166667       0.62500000       0.95833333 </v>
   <v>       0.29166667       0.95833333       0.29166667 </v>
   <v>       0.29166667       0.95833333       0.62500000 </v>
   <v>       0.29166667       0.95833333       0.95833333 </v>
   <v>       0.62500000       0.29166667       0.29166667 </v>
   <v>       0.62500000       0.29166667       0.62500000 </v>
   <v>       0.62500000       0.29166667       0.95833333 </v>
   <v>       0.62500000       0.62500000       0.29166667 </v>
   <v>       0.62500000       0.62500000       0.62500000 </v>
   <v>       0.62500000       0.62500000       0.95833333 </v>
   <v>       0.62500000       0.95833333       0.29166667 </v>
   <v>       0.62500000       0.95833333       0.62500000 </v>
   <v>       0.62500000       0.95833333       0.95833333 </v>
   <v>       0.95833333       0.29166667       0.29166667 </v>
   <v>       0.95833333       0.29166667       0.62500000 </v>
   <v>       0.95833333       0.29166667       0.95833333 </v>
   <v>       0.95833333       0.62500000       0.29166667 </v>
   <v>       0.95833333       0.62500000       0.62500000 </v>
   <v>       0.95833333       0.62500000       0.95833333 </v>
   <v>       0.95833333       0.95833333       0.29166667 </v>
   <v>       0.95833333       0.95833333       0.62500000 </v>
   <v>       0.95833333       0.95833333       0.95833333 </v>
   <v>       0.04166667       0.04166667       0.04166667 </v>
   <v>       0.04166667       0.04166667       0.37500000 </v>
   <v>       0.04166667       0.04166667       0.70833333 </v>
   <v>       0.04166667       0.37500000       0.04166667 </v>
   <v>       0.04166667       0.37500000       0.37500000 </v>
   <v>       0.04166667       0.37500000       0.70833333 </v>
   <v>       0.04166667       0.70833333       0.04166667 </v>
   <v>       0.04166667       0.70833333       0.37500000 </v>
   <v>       0.04166667       0.70833333       0.70833333 </v>
   <v>       0.37500000       0.04166667       0.04166667 </v>
   <v>       0.37500000       0.04166667       0.37500000 </v>
   <v>       0.37500000       0.04166667       0.70833333 </v>
   <v>       0.37500000       0.37500000       0.04166667 </v>
   <v>       0.37500000       0.37500000       0.37500000 </v>
   <v>       0.37500000       0.37500000       0.70833333 </v>
   <v>       0.37500000       0.70833333       0.04166667 </v>
   <v>       0.37500000       0.70833333       0.37500000 </v>
   <v>       0.37500000       0.70833333       0.70833333 </v>
   <v>       0.70833333       0.04166667       0.04166667 </v>
   <v>       0.70833333       0.04166667       0.37500000 </v>
   <v>       0.70833333       0.04166667       0.70833333 </v>
   <v>       0.70833333       0.37500000       0.04166667 </v>
   <v>       0.70833333       0.37500000       0.37500000 </v>
   <v>       0.70833333       0.37500000       0.70833333 </v>
   <v>       0.70833333       0.70833333       0.04166667 </v>
   <v>       0.70833333       0.70833333       0.37500000 </v>
   <v>       0.70833333       0.70833333       0.70833333 </v>
  </varray>
 </structure>
 <calculation>
  <scstep>
   <time name="dav">    2.99    3.06</time>
   <time name="total">    3.30    3.38</time>
   <energy>
    <i name="alphaZ">     93.27357238 </i>
    <i name="ewald">  -6115.53854741 </i>
    <i name="hartreedc">   -403.39632696 </i>
    <i name="XCdc">   -470.81840880 </i>
    <i name="pawpsdc">  22796.59618459 </i>
    <i name="pawaedc"> -21869.08023814 </i>
    <i name="eentropy">     -0.00253400 </i>
    <i name="bandstr">    143.24469736 </i>
    <i name="atom">   5533.69225236 </i>
    <i name="e_fr_energy">   -292.02934862 </i>
    <i name="e_wo_entrp">   -292.02681462 </i>
    <i name="e_0_energy">   -292.02808162 </i>
   </energy>
  </scstep>
  <scstep>
   <time name="dav">    2.95    2.97</time>
   <time name="total">    3.05    3.07</time>
   <energy>
    <i name="alphaZ">     93.27357238 </i>
    <i name="ewald">  -6115.53854741 </i>
    <i name="hartreedc">   -403.39571232 </i>
    <i name="XCdc">   -470.81843592 </i>
    <i name="pawpsdc">  22796.68448219 </i>
    <i name="pawaedc"> -21869.16847726 </i>
    <i name="eentropy">     -0.00253415 </i>
    <i name="bandstr">    143.24405177 </i>
    <i name="atom">   5533.69225236 </i>
    <i name="e_fr_energy">   -292.02934835 </i>
    <i name="e_wo_entrp">   -292.02681421 </i>
    <i name="e_0_energy">   -292.02808128 </i>
   </energy>
  </scstep>
  <structure>
   <crystal>
    <varray name="basis" >
     <v>       9.97646553       0.00000000       5.75991507 </v>
     <v>       3.32548851       9.40590192       5.75991507 </v>
     <v>       0.00000000       0.00000000      11.51983014 </v>
    </varray>
    <i name="volume">   1080.99386112 </i>
    <varray name="rec_basis" >
     <v>       0.10023590      -0.03543874       0.00000000 </v>
     <v>       0.00000000       0.10631623       0.00000000 </v>
     <v>      -0.05011795      -0.03543874       0.08680684 </v>
    </varray>
   </crystal>
   <varray name="positions" >
    <v>       0.29166667       0.29166667       0.29166667 </v>
    <v>       0.29166667       0.29166667       0.62500000 </v>
    <v>       0.29166667       0.29166667       0.95833333 </v>
    <v>       0.29166667       0.62500000       0.29166667 </v>
    <v>       0.29166667       0.62500000       0.62500000 </v>
    <v>       0.29166667       0.62500000       0.95833333 </v>
    <v>       0.29166667       0.95833333       0.29166667 </v>
    <v>       0.29166667       0.95833333       0.62500000 </v>
    <v>       0.29166667       0.95833333       0.95833333 </v>
    <v>       0.62500000       0.29166667       0.29166667 </v>
    <v>       0.62500000       0.29166667       0.62500000 </v>
    <v>       0.62500000       0.29166667       0.95833333 </v>
    <v>       0.62500000       0.62500000       0.29166667 </v>
    <v>       0.62500000       0.62500000       0.62500000 </v>
    <v>       0.62500000       0.62500000       0.95833333 </v>
    <v>       0.62500000       0.95833333       0.29166667 </v>
    <v>       0.62500000       0.95833333       0.62500000 </v>
    <v>       0.62500000       0.95833333       0.95833333 </v>
    <v>       0.95833333       0.29166667       0.29166667 </v>
    <v>       0.95833333       0.29166667       0.62500000 </v>
    <v>       0.95833333       0.29166667       0.95833333 </v>
    <v>       0.95833333       0.62500000       0.29166667 </v>
    <v>       0.95833333       0.62500000       0.62500000 </v>
    <v>       0.95833333       0.62500000       0.95833333 </v>
    <v>       0.95833333       0.95833333       0.29166667 </v>
    <v>       0.95833333       0.95833333       0.62500000 </v>
    <v>       0.95833333       0.95833333       0.95833333 </v>
    <v>       0.04166667       0.04166667       0.04166667 </v>
    <v>       0.04166667       0.04166667       0.37500000 </v>
    <v>       0.04166667       0.04166667       0.70833333 </v>
    <v>       0.04166667       0.37500000       0.04166667 </v>
    <v>       0.04166667       0.37500000       0.37500000 </v>
    <v>       0.04166667       0.37500000       0.70833333 </v>
    <v>       0.04166667       0.70833333       0.04166667 </v>
    <v>       0.04166667       0.70833333       0.37500000 </v>
    <v>       0.04166667       0.70833333       0.70833333 </v>
    <v>       0.37500000       0.04166667       0.04166667 </v>
    <v>       0.37500000       0.04166667       0.37500000 </v>
    <v>       0.37500000       0.04166667       0.70833333 </v>
    <v>       0.37500000       0.37500000       0.04166667 </v>
    <v>       0.37500000       0.37500000       0.37500000 </v>
    <v>       0.37500000       0.37500000       0.70833333 </v>
    <v>       0.37500000       0.70833333       0.04166667 </v>
    <v>       0.37500000       0.70833333       0.37500000 </v>
    <v>       0.37500000       0.70833333       0.70833333 </v>
    <v>       0.70833333       0.04166667       0.04166667 </v>
    <v>       0.70833333       0.04166667       0.37500000 </v>
    <v>       0.70833333       0.04166667       0.70833333 </v>
    <v>       0.70833333       0.37500000       0.04166667 </v>
    <v>       0.70833333       0.37500000       0.37500000 </v>
    <v>       0.70833333       0.37500000       0.70833333 </v>
    <v>       0.70833333       0.70833333       0.04166667 </v>
    <v>       0.70833333       0.70833333       0.37500000 </v>
    <v>       0.70833333       0.70833333       0.70833333 </v>
   </varray>
  </structure>
  <varray name="forces" >
   <v>       0.00000000       0.00000000       0.00000000 </v>
   <v>       0.10965022       0.07753441      -0.07653888 </v>
   <v>       0.10965022       0.07753441       0.07653888 </v>
   <v>       0.03273024      -0.14002815       0.05669044 </v>
   <v>       0.02588680      -0.00915236       0.00000000 </v>
   <v>       0.03273024      -0.14002815      -0.05669044 </v>
   <v>       0.07691998      -0.01504068       0.13322931 </v>
   <v>       0.07691998      -0.01504068      -0.13322931 </v>
   <v>       0.03782845      -0.01337438       0.00000000 </v>
   <v>      -0.12110972       0.07753441       0.05669044 </v>
   <v>       0.00000000       0.02745709       0.00000000 </v>
   <v>      -0.12110972       0.07753441      -0.05669044 </v>
   <v>      -0.01294340      -0.00915236       0.02241862 </v>
   <v>      -0.01294340      -0.00915236      -0.02241862 </v>
   <v>      -0.00721959      -0.00510502       0.00000000 </v>
   <v>      -0.15383996      -0.01504068       0.00000000 </v>
   <v>      -0.00360980       0.00510502      -0.00625235 </v>
   <v>      -0.00360980       0.00510502       0.00625235 </v>
   <v>       0.01145950       0.07753441       0.13322931 </v>
   <v>       0.01145950       0.07753441      -0.13322931 </v>
   <v>       0.00000000       0.04012313       0.00000000 </v>
   <v>      -0.06546048      -0.14002815       0.00000000 </v>
   <v>       0.00360980      -0.00510502      -0.00625235 </v>
   <v>       0.00360980      -0.00510502       0.00625235 </v>
   <v>      -0.01891423      -0.01337438       0.03276040 </v>
   <v>       0.00721959       0.00510502       0.00000000 </v>
   <v>      -0.01891423      -0.01337438      -0.03276040 </v>
   <v>       0.00000000       0.00000000       0.00000000 </v>
   <v>       0.02125574       0.01503008      -0.02406533 </v>
   <v>       0.02125574       0.01503008       0.02406533 </v>
   <v>       0.00368081      -0.03467934       0.00637534 </v>
   <v>       2.03483051      -0.71942123      -0.00000000 </v>
   <v>       0.00368081      -0.03467934      -0.00637534 </v>
   <v>       0.01757493       0.00461919       0.03044068 </v>
   <v>       0.01757493       0.00461919      -0.03044068 </v>
   <v>      -0.00785433       0.00277692       0.00000000 </v>
   <v>      -0.03146906       0.01503008       0.00637534 </v>
   <v>      -0.00000000       2.15826368      -0.00000000 </v>
   <v>      -0.03146906       0.01503008      -0.00637534 </v>
   <v>      -1.01741525      -0.71942123       1.76221491 </v>
   <v>      -1.01741525      -0.71942123      -1.76221491 </v>
   <v>      -0.08478970      -0.05995537       0.00000000 </v>
   <v>      -0.03514986       0.00461919       0.00000000 </v>
   <v>      -0.04239485       0.05995537      -0.07343003 </v>
   <v>      -0.04239485       0.05995537       0.07343003 </v>
   <v>       0.01021332       0.01503008       0.03044068 </v>
   <v>       0.01021332       0.01503008      -0.03044068 </v>
   <v>       0.00000000      -0.00833077       0.00000000 </v>
   <v>      -0.00736161      -0.03467934       0.00000000 </v>
   <v>       0.04239485      -0.05995537      -0.07343003 </v>
   <v>       0.04239485      -0.05995537       0.07343003 </v>
   <v>       0.00392716       0.00277692      -0.00680205 </v>
   <v>       0.08478970       0.05995537       0.00000000 </v>
   <v>       0.00392716       0.00277692       0.00680205 </v>
  </varray>
  <varray name="stress" >
   <v>       9.09472505       0.00000000      -0.00000000 </v>
   <v>       0.00000000       9.09472508      -0.00000000 </v>
   <v>      -0.00000000       0.00000000       9.09472509 </v>
  </varray>
  <energy>
   <i name="e_fr_energy">   -292.02934835 </i>
   <i name="e_wo_entrp">   -292.02808128 </i>
   <i name="e_0_energy">     -0.00253415 </i>
  </energy>
  <time name="totalsc">   19.23   19.73</time>
 </calculation>
 <calculation>
  <scstep>
   <time name="dav">    3.53    3.56</time>
   <time name="total">    3.79    3.84</time>
   <energy>
    <i name="alphaZ">     93.27357238 </i>
    <i name="ewald">  -6118.50398312 </i>
    <i name="hartreedc">   -402.13294750 </i>
    <i name="XCdc">   -470.87107783 </i>
    <i name="pawpsdc">  22796.95448316 </i>
    <i name="pawaedc"> -21869.43838964 </i>
    <i name="eentropy">     -0.00239469 </i>
    <i name="bandstr">    144.25650432 </i>
    <i name="atom">   5533.69225236 </i>
    <i name="e_fr_energy">   -292.77198056 </i>
    <i name="e_wo_entrp">   -292.76958587 </i>
    <i name="e_0_energy">   -292.77078322 </i>
   </energy>
  </scstep>
  <scstep>
   <time name="dav">    4.22    4.25</time>
   <time name="total">    4.48    4.52</time>
   <energy>
    <i name="e_fr_energy">   -292.81645989 </i>
    <i name="e_wo_entrp">   -292.81406382 </i>
    <i name="e_0_energy">   -292.81526186 </i>
   </energy>
  </scstep>
  <scstep>
   <time name="dav">    4.01    4.04</time>
   <time name="total">    4.27    4.31</time>
   <energy>
    <i name="e_fr_energy">   -292.80347255 </i>
    <i name="e_wo_entrp">   -292.80107156 </i>
    <i name="e_0_energy">   -292.80227206 </i>
   </energy>
  </scstep>
  <scstep>
   <time name="dav">    3.95    3.98</time>
   <time name="total">    4.21    4.24</time>
   <energy>
    <i name="e_fr_energy">   -292.79872057 </i>
    <i name="e_wo_entrp">   -292.79631658 </i>
    <i name="e_0_energy">   -292.79751857 </i>
   </energy>
  </scstep>
  <scstep>
   <time name="dav">    4.16    4.19</time>
   <time name="total">    4.42    4.46</time>
   <energy>
    <i name="e_fr_energy">   -292.79887435 </i>
    <i name="e_wo_entrp">   -292.79647452 </i>
    <i name="e_0_energy">   -292.79767444 </i>
   </energy>
  </scstep>
  <scstep>
   <time name="dav">    4.54    4.58</time>
   <time name="total">    4.81    4.85</time>
   <energy>
    <i name="e_fr_energy">   -292.79904395 </i>
    <i name="e_wo_entrp">   -292.79664592 </i>
    <i name="e_0_energy">   -292.79784493 </i>
   </energy>
  </scstep>
  <scstep>
   <time name="dav">    4.19    4.22</time>
   <time name="total">    4.45    4.49</time>
   <energy>
    <i name="e_fr_energy">   -292.79900463 </i>
    <i name="e_wo_entrp">   -292.79660618 </i>
    <i name="e_0_energy">   -292.79780540 </i>
   </energy>
  </scstep>
  <scstep>
   <time name="dav">    4.23    4.27</time>
   <time name="total">    4.33    4.36</time>
   <energy>
    <i name="alphaZ">     93.27357238 </i>
    <i name="ewald">  -6118.50398312 </i>
    <i name="hartreedc">   -402.39793391 </i>
    <i name="XCdc">   -470.89258897 </i>
    <i name="pawpsdc">  22650.12447128 </i>
    <i name="pawaedc"> -21722.53459955 </i>
    <i name="eentropy">     -0.00239894 </i>
    <i name="bandstr">    144.44220087 </i>
    <i name="atom">   5533.69225236 </i>
    <i name="e_fr_energy">   -292.79900760 </i>
    <i name="e_wo_entrp">   -292.79660867 </i>
    <i name="e_0_energy">   -292.79780813 </i>
   </energy>
  </scstep>
  <structure>
   <crystal>
    <varray name="basis" >
     <v>       9.97646553       0.00000000       5.75991507 </v>
     <v>       3.32548851       9.40590192       5.75991507 </v>
     <v>       0.00000000       0.00000000      11.51983014 </v>
    </varray>
    <i name="volume">   1080.99386112 </i>
    <varray name="rec_basis" >
     <v>       0.10023590      -0.03543874       0.00000000 </v>
     <v>       0.00000000       0.10631623       0.00000000 </v>
     <v>      -0.05011795      -0.03543874       0.08680684 </v>
    </varray>
   </crystal>
   <varray name="positions" >
    <v>       0.29166667       0.29166667       0.29166667 </v>
    <v>       0.29206434       0.29206434       0.62428180 </v>
    <v>       0.29206434       0.29206434       0.95825619 </v>
    <v>       0.29206434       0.62428180       0.29206434 </v>
    <v>       0.29180749       0.62495306       0.62495306 </v>
    <v>       0.29206434       0.62428180       0.95825619 </v>
    <v>       0.29206434       0.95825619       0.29206434 </v>
    <v>       0.29206434       0.95825619       0.62428180 </v>
    <v>       0.29187246       0.95826474       0.95826474 </v>
    <v>       0.62428180       0.29206434       0.29206434 </v>
    <v>       0.62495306       0.29180749       0.62495306 </v>
    <v>       0.62428180       0.29206434       0.95825619 </v>
    <v>       0.62495306       0.62495306       0.29180749 </v>
    <v>       0.62495306       0.62495306       0.62495306 </v>
    <v>       0.62497382       0.62497382       0.95835952 </v>
    <v>       0.62428180       0.95825619       0.29206434 </v>
    <v>       0.62497382       0.95835952       0.62497382 </v>
    <v>       0.62497382       0.95835952       0.95835952 </v>
    <v>       0.95825619       0.29206434       0.29206434 </v>
    <v>       0.95825619       0.29206434       0.62428180 </v>
    <v>       0.95826474       0.29187246       0.95826474 </v>
    <v>       0.95825619       0.62428180       0.29206434 </v>
    <v>       0.95835952       0.62497382       0.62497382 </v>
    <v>       0.95835952       0.62497382       0.95835952 </v>
    <v>       0.95826474       0.95826474       0.29187246 </v>
    <v>       0.95835952       0.95835952       0.62497382 </v>
    <v>       0.95826474       0.95826474       0.95826474 </v>
    <v>       0.04166667       0.04166667       0.04166667 </v>
    <v>       0.04174376       0.04174376       0.37482213 </v>
    <v>       0.04174376       0.04174376       0.70835703 </v>
    <v>       0.04174376       0.37482213       0.04174376 </v>
    <v>       0.05273635       0.37131011       0.37131011 </v>
    <v>       0.04174376       0.37482213       0.70835703 </v>
    <v>       0.04174376       0.70835703       0.04174376 </v>
    <v>       0.04174376       0.70835703       0.37482213 </v>
    <v>       0.04162394       0.70834758       0.70834758 </v>
    <v>       0.37482213       0.04174376       0.04174376 </v>
    <v>       0.37131011       0.05273635       0.37131011 </v>
    <v>       0.37482213       0.04174376       0.70835703 </v>
    <v>       0.37131011       0.37131011       0.05273635 </v>
    <v>       0.37131011       0.37131011       0.37131011 </v>
    <v>       0.37469249       0.37469249       0.70864084 </v>
    <v>       0.37482213       0.70835703       0.04174376 </v>
    <v>       0.37469249       0.70864084       0.37469249 </v>
    <v>       0.37469249       0.70864084       0.70864084 </v>
    <v>       0.70835703       0.04174376       0.04174376 </v>
    <v>       0.70835703       0.04174376       0.37482213 </v>
    <v>       0.70834758       0.04162394       0.70834758 </v>
    <v>       0.70835703       0.37482213       0.04174376 </v>
    <v>       0.70864084       0.37469249       0.37469249 </v>
    <v>       0.70864084       0.37469249       0.70864084 </v>
    <v>       0.70834758       0.70834758       0.04162394 </v>
    <v>       0.70864084       0.70864084       0.37469249 </v>
    <v>       0.70834758       0.70834758       0.70834758 </v>
   </varray>
  </structure>
  <varray name="forces" >
   <v>       0.00000000      -0.00000000      -0.00000000 </v>
   <v>       0.07996840       0.05654620      -0.29092244 </v>
   <v>       0.07996840       0.05654620       0.29092244 </v>
   <v>      -0.04399787      -0.29408338      -0.07620655 </v>
   <v>       0.01805344      -0.00638285      -0.00000000 </v>
   <v>      -0.04399787      -0.29408338       0.07620655 </v>
   <v>       0.12396628       0.18099098       0.21471589 </v>
   <v>       0.12396628       0.18099098      -0.21471589 </v>
   <v>       0.03091746      -0.01093097      -0.00000000 </v>
   <v>      -0.29193042       0.05654620      -0.07620655 </v>
   <v>       0.00000000       0.01914856      -0.00000000 </v>
   <v>      -0.29193042       0.05654620       0.07620655 </v>
   <v>      -0.00902672      -0.00638285       0.01563473 </v>
   <v>      -0.00902672      -0.00638285      -0.01563473 </v>
   <v>      -0.01622301      -0.01147140      -0.00000000 </v>
   <v>      -0.24793255       0.18099098       0.00000000 </v>
   <v>      -0.00811151       0.01147140      -0.01404954 </v>
   <v>      -0.00811151       0.01147140       0.01404954 </v>
   <v>       0.21196202       0.05654620       0.21471589 </v>
   <v>       0.21196202       0.05654620      -0.21471589 </v>
   <v>       0.00000000       0.03279292      -0.00000000 </v>
   <v>       0.08799574      -0.29408338       0.00000000 </v>
   <v>       0.00811151      -0.01147140      -0.01404954 </v>
   <v>       0.00811151      -0.01147140       0.01404954 </v>
   <v>      -0.01545873      -0.01093097       0.02677531 </v>
   <v>       0.01622301       0.01147140      -0.00000000 </v>
   <v>      -0.01545873      -0.01093097      -0.02677531 </v>
   <v>       0.00000000      -0.00000000      -0.00000000 </v>
   <v>       0.02770610       0.01959117      -0.04093496 </v>
   <v>       0.02770610       0.01959117       0.04093496 </v>
   <v>       0.00203615      -0.05301443       0.00352671 </v>
   <v>       1.31021616      -0.46323137       0.00000000 </v>
   <v>       0.00203615      -0.05301443      -0.00352671 </v>
   <v>       0.02566996       0.01383208       0.04446167 </v>
   <v>       0.02566996       0.01383208      -0.04446167 </v>
   <v>       0.00462264      -0.00163435      -0.00000000 </v>
   <v>      -0.04930377       0.01959117       0.00352671 </v>
   <v>      -0.00000000       1.38969410       0.00000000 </v>
   <v>      -0.04930377       0.01959117      -0.00352671 </v>
   <v>      -0.65510808      -0.46323137       1.13468048 </v>
   <v>      -0.65510808      -0.46323137      -1.13468048 </v>
   <v>       0.03204978       0.02266262      -0.00000000 </v>
   <v>      -0.05133992       0.01383208      -0.00000000 </v>
   <v>       0.01602489      -0.02266262       0.02775592 </v>
   <v>       0.01602489      -0.02266262      -0.02775592 </v>
   <v>       0.02159767       0.01959117       0.04446167 </v>
   <v>       0.02159767       0.01959117      -0.04446167 </v>
   <v>       0.00000000       0.00490305      -0.00000000 </v>
   <v>      -0.00407229      -0.05301443      -0.00000000 </v>
   <v>      -0.01602489       0.02266262       0.02775592 </v>
   <v>      -0.01602489       0.02266262      -0.02775592 </v>
   <v>      -0.00231132      -0.00163435       0.00400332 </v>
   <v>      -0.03204978      -0.02266262      -0.00000000 </v>
   <v>      -0.00231132      -0.00163435      -0.00400332 </v>
  </varray>
  <varray name="stress" >
   <v>       6.54357463       0.00000000      -0.00000000 </v>
   <v>      -0.00000000       6.54357465       0.00000000 </v>
   <v>      -0.00000000       0.00000000       6.54357466 </v>
  </varray>
  <energy>
   <i name="e_fr_energy">   -292.79900760 </i>
   <i name="e_wo_entrp">   -292.79780813 </i>
   <i name="e_0_energy">     -0.00239894 </i>
  </energy>
  <time name="totalsc">   43.22   43.70</time>
 </calculation>
 <calculation>
  <scstep>
   <time name="dav">    3.55    3.58</time>
   <time name="total">    3.81    3.86</time>
   <energy>
    <i name="alphaZ">     93.27357238 </i>
    <i name="ewald">  -6117.85823026 </i>
    <i name="hartreedc">   -404.00355759 </i>
    <i name="XCdc">   -470.93358788 </i>
    <i name="pawpsdc">  22648.53580320 </i>
    <i name="pawaedc"> -21720.94614344 </i>
    <i name="eentropy">     -0.00238464 </i>
    <i name="bandstr">    145.07924610 </i>
    <i name="atom">   5533.69225236 </i>
    <i name="e_fr_energy">   -293.16302978 </i>
    <i name="e_wo_entrp">   -293.16064514 </i>
    <i name="e_0_energy">   -293.16183746 </i>
   </energy>
  </scstep>
  <scstep>
   <time name="dav">    4.56    4.60</time>
   <time name="total">    4.83    4.88</time>
   <energy>
    <i name="e_fr_energy">   -293.23806870 </i>
    <i name="e_wo_entrp">   -293.23568432 </i>
    <i name="e_0_energy">   -293.23687651 </i>
   </energy>
  </scstep>
  <scstep>
   <time name="dav">    3.99    4.03</time>
   <time name="total">    4.25    4.29</time>
   <energy>
    <i name="e_fr_energy">   -293.21010533 </i>
    <i name="e_wo_entrp">   -293.20772029 </i>
    <i name="e_0_energy">   -293.20891281 </i>
   </energy>
  </scstep>
  <scstep>
   <time name="dav">    4.09    4.14</time>
   <time name="total">    4.35    4.40</time>
   <energy>
    <i name="e_fr_energy">   -293.19991581 </i>
    <i name="e_wo_entrp">   -293.19753165 </i>
    <i name="e_0_energy">   -293.19872373 </i>
   </energy>
  </scstep>
  <scstep>
   <time name="dav">    4.30    4.33</time>
   <time name="total">    4.56    4.60</time>
   <energy>
    <i name="e_fr_energy">   -293.19990010 </i>
    <i name="e_wo_entrp">   -293.19751794 </i>
    <i name="e_0_energy">   -293.19870902 </i>
   </energy>
  </scstep>
  <scstep>
   <time name="dav">    4.46    4.49</time>
   <time name="total">    4.72    4.76</time>
   <energy>
    <i name="e_fr_energy">   -293.20002915 </i>
    <i name="e_wo_entrp">   -293.19764806 </i>
    <i name="e_0_energy">   -293.19883861 </i>
   </energy>
  </scstep>
  <scstep>
   <time name="dav">    4.25    4.28</time>
   <time name="total">    4.51    4.54</time>
   <energy>
    <i name="e_fr_energy">   -293.20001495 </i>
    <i name="e_wo_entrp">   -293.19763337 </i>
    <i name="e_0_energy">   -293.19882416 </i>
   </energy>
  </scstep>
  <scstep>
   <time name="dav">    4.21    4.25</time>
   <time name="total">    4.47    4.51</time>
   <energy>
    <i name="e_fr_energy">   -293.20002340 </i>
    <i name="e_wo_entrp">   -293.19764162 </i>
    <i name="e_0_energy">   -293.19883251 </i>
   </energy>
  </scstep>
  <scstep>
   <time name="dav">    3.07    3.09</time>
   <time name="total">    3.16    3.19</time>
   <energy>
    <i name="alphaZ">     93.27357238 </i>
    <i name="ewald">  -6117.85823026 </i>
    <i name="hartreedc">   -404.60954441 </i>
    <i name="XCdc">   -470.93631036 </i>
    <i name="pawpsdc">  22479.44062137 </i>
    <i name="pawaedc"> -21551.76862458 </i>
    <i name="eentropy">     -0.00238183 </i>
    <i name="bandstr">    145.56861863 </i>
    <i name="atom">   5533.69225236 </i>
    <i name="e_fr_energy">   -293.20002670 </i>
    <i name="e_wo_entrp">   -293.19764487 </i>
    <i name="e_0_energy">   -293.19883578 </i>
   </energy>
  </scstep>
  <structure>
   <crystal>
    <varray name="basis" >
     <v>       9.97646553       0.00000000       5.75991507 </v>
     <v>       3.32548851       9.40590192       5.75991507 </v>
     <v>       0.00000000       0.00000000      11.51983014 </v>
    </varray>
    <i name="volume">   1080.99386112 </i>
    <varray name="rec_basis" >
     <v>       0.10023590      -0.03543874       0.00000000 </v>
     <v>       0.00000000       0.10631623       0.00000000 </v>
     <v>      -0.05011795      -0.03543874       0.08680684 </v>
    </varray>
   </crystal>
   <varray name="positions" >
    <v>       0.29166667       0.29166667       0.29166667 </v>
    <v>       0.29256955       0.29256955       0.62336937 </v>
    <v>       0.29256955       0.29256955       0.95815818 </v>
    <v>       0.29256955       0.62336937       0.29256955 </v>
    <v>       0.29198640       0.62489342       0.62489342 </v>
    <v>       0.29256955       0.62336937       0.95815818 </v>
    <v>       0.29256955       0.95815818       0.29256955 </v>
    <v>       0.29256955       0.95815818       0.62336937 </v>
    <v>       0.29213390       0.95817759       0.95817759 </v>
    <v>       0.62336937       0.29256955       0.29256955 </v>
    <v>       0.62489342       0.29198640       0.62489342 </v>
    <v>       0.62336937       0.29256955       0.95815818 </v>
    <v>       0.62489342       0.62489342       0.29198640 </v>
    <v>       0.62489342       0.62489342       0.62489342 </v>
    <v>       0.62494055       0.62494055       0.95839278 </v>
    <v>       0.62336937       0.95815818       0.29256955 </v>
    <v>       0.62494055       0.95839278       0.62494055 </v>
    <v>       0.62494055       0.95839278       0.95839278 </v>
    <v>       0.95815818       0.29256955       0.29256955 </v>
    <v>       0.95815818       0.29256955       0.62336937 </v>
    <v>       0.95817759       0.29213390       0.95817759 </v>
    <v>       0.95815818       0.62336937       0.29256955 </v>
    <v>       0.95839278       0.62494055       0.62494055 </v>
    <v>       0.95839278       0.62494055       0.95839278 </v>
    <v>       0.95817759       0.95817759       0.29213390 </v>
    <v>       0.95839278       0.95839278       0.62494055 </v>
    <v>       0.95817759       0.95817759       0.95817759 </v>
    <v>       0.04166667       0.04166667       0.04166667 </v>
    <v>       0.04184169       0.04184169       0.37459616 </v>
    <v>       0.04184169       0.04184169       0.70838712 </v>
    <v>       0.04184169       0.37459616       0.04184169 </v>
    <v>       0.06679965       0.36662234       0.36662234 </v>
    <v>       0.04184169       0.37459616       0.70838712 </v>
    <v>       0.04184169       0.70838712       0.04184169 </v>
    <v>       0.04184169       0.70838712       0.37459616 </v>
    <v>       0.04156965       0.70836567       0.70836567 </v>
    <v>       0.37459616       0.04184169       0.04184169 </v>
    <v>       0.36662234       0.06679965       0.36662234 </v>
    <v>       0.37459616       0.04184169       0.70838712 </v>
    <v>       0.36662234       0.36662234       0.06679965 </v>
    <v>       0.36662234       0.36662234       0.36662234 </v>
    <v>       0.37430182       0.37430182       0.70903151 </v>
    <v>       0.37459616       0.70838712       0.04184169 </v>
    <v>       0.37430182       0.70903151       0.37430182 </v>
    <v>       0.37430182       0.70903151       0.70903151 </v>
    <v>       0.70838712       0.04184169       0.04184169 </v>
    <v>       0.70838712       0.04184169       0.37459616 </v>
    <v>       0.70836567       0.04156965       0.70836567 </v>
    <v>       0.70838712       0.37459616       0.04184169 </v>
    <v>       0.70903151       0.37430182       0.37430182 </v>
    <v>       0.70903151       0.37430182       0.70903151 </v>
    <v>       0.70836567       0.70836567       0.04156965 </v>
    <v>       0.70903151       0.70903151       0.37430182 </v>
    <v>       0.70836567       0.70836567       0.70836567 </v>
   </varray>
  </structure>
  <varray name="forces" >
   <v>      -0.00000000      -0.00000000       0.00000000 </v>
   <v>      -0.00466845      -0.00330109      -0.59439001 </v>
   <v>      -0.00466845      -0.00330109       0.59439001 </v>
   <v>      -0.17391984      -0.48201632      -0.30123800 </v>
   <v>      -0.00001701       0.00000601       0.00000000 </v>
   <v>      -0.17391984      -0.48201632       0.30123800 </v>
   <v>       0.16925139       0.48861850       0.29315201 </v>
   <v>       0.16925139       0.48861850      -0.29315201 </v>
   <v>       0.01855218      -0.00655919       0.00000000 </v>
   <v>      -0.51242262      -0.00330109      -0.30123800 </v>
   <v>      -0.00000000      -0.00001804       0.00000000 </v>
   <v>      -0.51242262      -0.00330109       0.30123800 </v>
   <v>       0.00000850       0.00000601      -0.00001473 </v>
   <v>       0.00000850       0.00000601       0.00001473 </v>
   <v>      -0.02813935      -0.01989752       0.00000000 </v>
   <v>      -0.33850278       0.48861850      -0.00000000 </v>
   <v>      -0.01406967       0.01989752      -0.02436939 </v>
   <v>      -0.01406967       0.01989752       0.02436939 </v>
   <v>       0.51709107      -0.00330109       0.29315201 </v>
   <v>       0.51709107      -0.00330109      -0.29315201 </v>
   <v>      -0.00000000       0.01967756       0.00000000 </v>
   <v>       0.34783968      -0.48201632      -0.00000000 </v>
   <v>       0.01406967      -0.01989752      -0.02436939 </v>
   <v>       0.01406967      -0.01989752       0.02436939 </v>
   <v>      -0.00927609      -0.00655919       0.01606666 </v>
   <v>       0.02813935       0.01989752       0.00000000 </v>
   <v>      -0.00927609      -0.00655919      -0.01606666 </v>
   <v>      -0.00000000      -0.00000000       0.00000000 </v>
   <v>       0.03043964       0.02152407      -0.05670529 </v>
   <v>       0.03043964       0.02152407       0.05670529 </v>
   <v>      -0.00114959      -0.06782375      -0.00199115 </v>
   <v>      -0.06687245       0.02364298       0.00000000 </v>
   <v>      -0.00114959      -0.06782375       0.00199115 </v>
   <v>       0.03158923       0.02477560       0.05471414 </v>
   <v>       0.03158923       0.02477560      -0.05471414 </v>
   <v>       0.01812313      -0.00640749       0.00000000 </v>
   <v>      -0.06432804       0.02152407      -0.00199115 </v>
   <v>      -0.00000000      -0.07092895       0.00000000 </v>
   <v>      -0.06432804       0.02152407       0.00199115 </v>
   <v>       0.03343623       0.02364298      -0.05791324 </v>
   <v>       0.03343623       0.02364298       0.05791324 </v>
   <v>       0.20036452       0.14167911       0.00000000 </v>
   <v>      -0.06317845       0.02477560       0.00000000 </v>
   <v>       0.10018226      -0.14167911       0.17352076 </v>
   <v>       0.10018226      -0.14167911      -0.17352076 </v>
   <v>       0.03388840       0.02152407       0.05471414 </v>
   <v>       0.03388840       0.02152407      -0.05471414 </v>
   <v>      -0.00000000       0.01922248       0.00000000 </v>
   <v>       0.00229918      -0.06782375       0.00000000 </v>
   <v>      -0.10018226       0.14167911       0.17352076 </v>
   <v>      -0.10018226       0.14167911      -0.17352076 </v>
   <v>      -0.00906157      -0.00640749       0.01569509 </v>
   <v>      -0.20036452      -0.14167911       0.00000000 </v>
   <v>      -0.00906157      -0.00640749      -0.01569509 </v>
  </varray>
  <varray name="stress" >
   <v>       4.48993196      -0.00000000      -0.00000000 </v>
   <v>      -0.00000000       4.48993198       0.00000000 </v>
   <v>      -0.00000000      -0.00000000       4.48993198 </v>
  </varray>
  <energy>
   <i name="e_fr_energy">   -293.20002670 </i>
   <i name="e_wo_entrp">   -293.19883578 </i>
   <i name="e_0_energy">     -0.00238183 </i>
  </energy>
  <time name="totalsc">   47.11   47.55</time>
 </calculation>
 <calculation>
  <scstep>
   <time name="dav">    3.65    3.68</time>
   <time name="total">    3.91    3.95</time>
   <energy>
    <i name="alphaZ">     93.27357238 </i>
    <i name="ewald">  -6116.50252155 </i>
    <i name="hartreedc">   -406.29393988 </i>
    <i name="XCdc">   -470.94743094 </i>
    <i name="pawpsdc">  22475.41421235 </i>
    <i name="pawaedc"> -21547.74292842 </i>
    <i name="eentropy">     -0.00237083 </i>
    <i name="bandstr">    145.78397226 </i>
    <i name="atom">   5533.69225236 </i>
    <i name="e_fr_energy">   -293.32518228 </i>
    <i name="e_wo_entrp">   -293.32281145 </i>
    <i name="e_0_energy">   -293.32399687 </i>
   </energy>
  </scstep>
  <scstep>
   <time name="dav">    4.45    4.49</time>
   <time name="total">    4.71    4.76</time>
   <energy>
    <i name="e_fr_energy">   -293.35751309 </i>
    <i name="e_wo_entrp">   -293.35514246 </i>
    <i name="e_0_energy">   -293.35632777 </i>
   </energy>
  </scstep>
  <scstep>
   <time name="dav">    4.11    4.15</time>
   <time name="total">    4.37    4.42</time>
   <energy>
    <i name="e_fr_energy">   -293.35239017 </i>
    <i name="e_wo_entrp">   -293.35001940 </i>
    <i name="e_0_energy">   -293.35120479 </i>
   </energy>
  </scstep>
  <scstep>
   <time name="dav">    4.13    4.17</time>
   <time name="total">    4.40    4.44</time>
   <energy>
    <i name="e_fr_energy">   -293.35035155 </i>
    <i name="e_wo_entrp">   -293.34798084 </i>
    <i name="e_0_energy">   -293.34916619 </i>
   </energy>
  </scstep>
  <scstep>
   <time name="dav">    4.70    4.74</time>
   <time name="total">    4.96    5.01</time>
   <energy>
    <i name="e_fr_energy">   -293.35024785 </i>
    <i name="e_wo_entrp">   -293.34787760 </i>
    <i name="e_0_energy">   -293.34906272 </i>
   </energy>
  </scstep>
  <scstep>
   <time name="dav">    4.13    4.18</time>
   <time name="total">    4.42    4.48</time>
   <energy>
    <i name="e_fr_energy">   -293.35037140 </i>
    <i name="e_wo_entrp">   -293.34800122 </i>
    <i name="e_0_energy">   -293.34918631 </i>
   </energy>
  </scstep>
  <scstep>
   <time name="dav">    4.03    4.07</time>
   <time name="total">    4.32    4.36</time>
   <energy>
    <i name="e_fr_energy">   -293.35035135 </i>
    <i name="e_wo_entrp">   -293.34798112 </i>
    <i name="e_0_energy">   -293.34916623 </i>
   </energy>
  </scstep>
  <scstep>
   <time name="dav">    4.25    4.29</time>
   <time name="total">    4.52    4.56</time>
   <energy>
    <i name="e_fr_energy">   -293.35033830 </i>
    <i name="e_wo_entrp">   -293.34796803 </i>
    <i name="e_0_energy">   -293.34915317 </i>
   </energy>
  </scstep>
  <scstep>
   <time name="dav">    3.32    3.35</time>
   <time name="total">    3.41    3.45</time>
   <energy>
    <i name="alphaZ">     93.27357238 </i>
    <i name="ewald">  -6116.50252155 </i>
    <i name="hartreedc">   -406.49266796 </i>
    <i name="XCdc">   -470.94400964 </i>
    <i name="pawpsdc">  22421.14896228 </i>
    <i name="pawaedc"> -21493.45134126 </i>
    <i name="eentropy">     -0.00237029 </i>
    <i name="bandstr">    145.92778387 </i>
    <i name="atom">   5533.69225236 </i>
    <i name="e_fr_energy">   -293.35033981 </i>
    <i name="e_wo_entrp">   -293.34796953 </i>
    <i name="e_0_energy">   -293.34915467 </i>
   </energy>
  </scstep>
  <structure>
   <crystal>
    <varray name="basis" >
     <v>       9.97646553       0.00000000       5.75991507 </v>
     <v>       3.32548851       9.40590192       5.75991507 </v>
     <v>       0.00000000       0.00000000      11.51983014 </v>
    </varray>
    <i name="volume">   1080.99386112 </i>
    <varray name="rec_basis" >
     <v>       0.10023590      -0.03543874       0.00000000 </v>
     <v>       0.00000000       0.10631623       0.00000000 </v>
     <v>      -0.05011795      -0.03543874       0.08680684 </v>
    </varray>
   </crystal>
   <varray name="positions" >
    <v>       0.29166667       0.29166667       0.29166667 </v>
    <v>       0.29267643       0.29267643       0.62003759 </v>
    <v>       0.29267643       0.29267643       0.96127622 </v>
    <v>       0.29267643       0.62003759       0.29267643 </v>
    <v>       0.29203166       0.62487834       0.62487834 </v>
    <v>       0.29267643       0.62003759       0.96127622 </v>
    <v>       0.29267643       0.96127622       0.29267643 </v>
    <v>       0.29267643       0.96127622       0.62003759 </v>
    <v>       0.29232676       0.95811330       0.95811330 </v>
    <v>       0.62003759       0.29267643       0.29267643 </v>
    <v>       0.62487834       0.29203166       0.62487834 </v>
    <v>       0.62003759       0.29267643       0.96127622 </v>
    <v>       0.62487834       0.62487834       0.29203166 </v>
    <v>       0.62487834       0.62487834       0.62487834 </v>
    <v>       0.62480413       0.62480413       0.95852920 </v>
    <v>       0.62003759       0.96127622       0.29267643 </v>
    <v>       0.62480413       0.95852920       0.62480413 </v>
    <v>       0.62480413       0.95852920       0.95852920 </v>
    <v>       0.96127622       0.29267643       0.29267643 </v>
    <v>       0.96127622       0.29267643       0.62003759 </v>
    <v>       0.95811330       0.29232676       0.95811330 </v>
    <v>       0.96127622       0.62003759       0.29267643 </v>
    <v>       0.95852920       0.62480413       0.62480413 </v>
    <v>       0.95852920       0.62480413       0.95852920 </v>
    <v>       0.95811330       0.95811330       0.29232676 </v>
    <v>       0.95852920       0.95852920       0.62480413 </v>
    <v>       0.95811330       0.95811330       0.95811330 </v>
    <v>       0.04166667       0.04166667       0.04166667 </v>
    <v>       0.04200497       0.04200497       0.37410260 </v>
    <v>       0.04200497       0.04200497       0.70855412 </v>
    <v>       0.04200497       0.37410260       0.04200497 </v>
    <v>       0.06990947       0.36558573       0.36558573 </v>
    <v>       0.04200497       0.37410260       0.70855412 </v>
    <v>       0.04200497       0.70855412       0.04200497 </v>
    <v>       0.04200497       0.70855412       0.37410260 </v>
    <v>       0.04167953       0.70832904       0.70832904 </v>
    <v>       0.37410260       0.04200497       0.04200497 </v>
    <v>       0.36558573       0.06990947       0.36558573 </v>
    <v>       0.37410260       0.04200497       0.70855412 </v>
    <v>       0.36558573       0.36558573       0.06990947 </v>
    <v>       0.36558573       0.36558573       0.36558573 </v>
    <v>       0.37511406       0.37511406       0.70821927 </v>
    <v>       0.37410260       0.70855412       0.04200497 </v>
    <v>       0.37511406       0.70821927       0.37511406 </v>
    <v>       0.37511406       0.70821927       0.70821927 </v>
    <v>       0.70855412       0.04200497       0.04200497 </v>
    <v>       0.70855412       0.04200497       0.37410260 </v>
    <v>       0.70832904       0.04167953       0.70832904 </v>
    <v>       0.70855412       0.37410260       0.04200497 </v>
    <v>       0.70821927       0.37511406       0.37511406 </v>
    <v>       0.70821927       0.37511406       0.70821927 </v>
    <v>       0.70832904       0.70832904       0.04167953 </v>
    <v>       0.70821927       0.70821927       0.37511406 </v>
    <v>       0.70832904       0.70832904       0.70832904 </v>
   </varray>
  </structure>
  <varray name="forces" >
   <v>      -0.00000000      -0.00000000      -0.00000000 </v>
   <v>       0.04770216       0.03373052      -0.10805876 </v>
   <v>       0.04770216       0.03373052       0.10805876 </v>
   <v>      -0.00734280      -0.12196013      -0.01271810 </v>
   <v>       0.00626549      -0.00221518      -0.00000000 </v>
   <v>      -0.00734280      -0.12196013       0.01271810 </v>
   <v>       0.05504496       0.05449909       0.09534067 </v>
   <v>       0.05504496       0.05449909      -0.09534067 </v>
   <v>      -0.06303378       0.02228581      -0.00000000 </v>
   <v>      -0.11743272       0.03373052      -0.01271810 </v>
   <v>      -0.00000000       0.00664555      -0.00000000 </v>
   <v>      -0.11743272       0.03373052       0.01271810 </v>
   <v>      -0.00313274      -0.00221518       0.00542607 </v>
   <v>      -0.00313274      -0.00221518      -0.00542607 </v>
   <v>      -0.03705591      -0.02620248      -0.00000000 </v>
   <v>      -0.11008992       0.05449909       0.00000000 </v>
   <v>      -0.01852795       0.02620248      -0.03209136 </v>
   <v>      -0.01852795       0.02620248       0.03209136 </v>
   <v>       0.06973055       0.03373052       0.09534067 </v>
   <v>       0.06973055       0.03373052      -0.09534067 </v>
   <v>       0.00000000      -0.06685742      -0.00000000 </v>
   <v>       0.01468559      -0.12196013      -0.00000000 </v>
   <v>       0.01852795      -0.02620248      -0.03209136 </v>
   <v>       0.01852795      -0.02620248       0.03209136 </v>
   <v>       0.03151689       0.02228581      -0.05458886 </v>
   <v>       0.03705591       0.02620248      -0.00000000 </v>
   <v>       0.03151689       0.02228581       0.05458886 </v>
   <v>      -0.00000000      -0.00000000      -0.00000000 </v>
   <v>       0.05222824       0.03693094       0.03314552 </v>
   <v>       0.05222824       0.03693094      -0.03314552 </v>
   <v>       0.03568241      -0.00986774       0.06180374 </v>
   <v>      -0.15030614       0.05314125      -0.00000000 </v>
   <v>       0.03568241      -0.00986774      -0.06180374 </v>
   <v>       0.01654583      -0.06399415       0.02865822 </v>
   <v>       0.01654583      -0.06399415      -0.02865822 </v>
   <v>      -0.00398047       0.00140731      -0.00000000 </v>
   <v>       0.00259074       0.03693094       0.06180374 </v>
   <v>      -0.00000000      -0.15942374      -0.00000000 </v>
   <v>       0.00259074       0.03693094      -0.06180374 </v>
   <v>       0.07515307       0.05314125      -0.13016894 </v>
   <v>       0.07515307       0.05314125       0.13016894 </v>
   <v>      -0.09612867      -0.06797324       0.00000000 </v>
   <v>      -0.03309167      -0.06399415      -0.00000000 </v>
   <v>      -0.04806434       0.06797324      -0.08324987 </v>
   <v>      -0.04806434       0.06797324       0.08324987 </v>
   <v>      -0.05481898       0.03693094       0.02865822 </v>
   <v>      -0.05481898       0.03693094      -0.02865822 </v>
   <v>      -0.00000000      -0.00422193      -0.00000000 </v>
   <v>      -0.07136482      -0.00986774      -0.00000000 </v>
   <v>       0.04806434      -0.06797324      -0.08324987 </v>
   <v>       0.04806434      -0.06797324       0.08324987 </v>
   <v>       0.00199024       0.00140731      -0.00344719 </v>
   <v>       0.09612867       0.06797324       0.00000000 </v>
   <v>       0.00199024       0.00140731       0.00344719 </v>
  </varray>
  <varray name="stress" >
   <v>       3.84985485       0.00000000      -0.00000000 </v>
   <v>       0.00000000       3.84985486      -0.00000000 </v>
   <v>       0.00000000      -0.00000000       3.84985486 </v>
  </varray>
  <energy>
   <i name="e_fr_energy">   -293.35033981 </i>
   <i name="e_wo_entrp">   -293.34915467 </i>
   <i name="e_0_energy">     -0.00237029 </i>
  </energy>
  <time name="totalsc">   47.48   47.96</time>
 </calculation>
 <calculation>
  <scstep>
   <time name="dav">    3.82    3.85</time>
   <time name="total">    4.08    4.12</time>
   <energy>
    <i name="alphaZ">     93.27357238 </i>
    <i name="ewald">  -6116.28055107 </i>
    <i name="hartreedc">   -406.72259377 </i>
    <i name="XCdc">   -470.94420836 </i>
    <i name="pawpsdc">  22420.11905709 </i>
    <i name="pawaedc"> -21492.42160766 </i>
    <i name="eentropy">     -0.00236982 </i>
    <i name="bandstr">    145.93533765 </i>
    <i name="atom">   5533.69225236 </i>
    <i name="e_fr_energy">   -293.35111120 </i>
    <i name="e_wo_entrp">   -293.34874138 </i>
    <i name="e_0_energy">   -293.34992629 </i>
   </energy>
  </scstep>
  <scstep>
   <time name="dav">    4.47    4.51</time>
   <time name="total">    4.73    4.77</time>
   <energy>
    <i name="e_fr_energy">   -293.35135963 </i>
    <i name="e_wo_entrp">   -293.34898983 </i>
    <i name="e_0_energy">   -293.35017473 </i>
   </energy>
  </scstep>
  <scstep>
   <time name="dav">    4.15    4.18</time>
   <time name="total">    4.41    4.45</time>
   <energy>
    <i name="e_fr_energy">   -293.35132252 </i>
    <i name="e_wo_entrp">   -293.34895271 </i>
    <i name="e_0_energy">   -293.35013762 </i>
   </energy>
  </scstep>
  <scstep>
   <time name="dav">    4.05    4.09</time>
   <time name="total">    4.31    4.35</time>
   <energy>
    <i name="e_fr_energy">   -293.35131108 </i>
    <i name="e_wo_entrp">   -293.34894127 </i>
    <i name="e_0_energy">   -293.35012618 </i>
   </energy>
  </scstep>
  <scstep>
   <time name="dav">    4.02    4.05</time>
   <time name="total">    4.12    4.15</time>
   <energy>
    <i name="alphaZ">     93.27357238 </i>
    <i name="ewald">  -6116.28055107 </i>
    <i name="hartreedc">   -406.73875510 </i>
    <i name="XCdc">   -470.94388963 </i>
    <i name="pawpsdc">  22416.58915899 </i>
    <i name="pawaedc"> -21488.89026221 </i>
    <i name="eentropy">     -0.00236978 </i>
    <i name="bandstr">    145.94953379 </i>
    <i name="atom">   5533.69225236 </i>
    <i name="e_fr_energy">   -293.35131026 </i>
    <i name="e_wo_entrp">   -293.34894048 </i>
    <i name="e_0_energy">   -293.35012537 </i>
   </energy>
  </scstep>
  <structure>
   <crystal>
    <varray name="basis" >
     <v>       9.97646553       0.00000000       5.75991507 </v>
     <v>       3.32548851       9.40590192       5.75991507 </v>
     <v>       0.00000000       0.00000000      11.51983014 </v>
    </varray>
    <i name="volume">   1080.99386112 </i>
    <varray name="rec_basis" >
     <v>       0.10023590      -0.03543874       0.00000000 </v>
     <v>       0.00000000       0.10631623       0.00000000 </v>
     <v>      -0.05011795      -0.03543874       0.08680684 </v>
    </varray>
   </crystal>
   <varray name="positions" >
    <v>       0.29166667       0.29166667       0.29166667 </v>
    <v>       0.29268577       0.29268577       0.61974650 </v>
    <v>       0.29268577       0.29268577       0.96154863 </v>
    <v>       0.29268577       0.61974650       0.29268577 </v>
    <v>       0.29203561       0.62487702       0.62487702 </v>
    <v>       0.29268577       0.61974650       0.96154863 </v>
    <v>       0.29268577       0.96154863       0.29268577 </v>
    <v>       0.29268577       0.96154863       0.61974650 </v>
    <v>       0.29234361       0.95810768       0.95810768 </v>
    <v>       0.61974650       0.29268577       0.29268577 </v>
    <v>       0.62487702       0.29203561       0.62487702 </v>
    <v>       0.61974650       0.29268577       0.96154863 </v>
    <v>       0.62487702       0.62487702       0.29203561 </v>
    <v>       0.62487702       0.62487702       0.62487702 </v>
    <v>       0.62479221       0.62479221       0.95854112 </v>
    <v>       0.61974650       0.96154863       0.29268577 </v>
    <v>       0.62479221       0.95854112       0.62479221 </v>
    <v>       0.62479221       0.95854112       0.95854112 </v>
    <v>       0.96154863       0.29268577       0.29268577 </v>
    <v>       0.96154863       0.29268577       0.61974650 </v>
    <v>       0.95810768       0.29234361       0.95810768 </v>
    <v>       0.96154863       0.61974650       0.29268577 </v>
    <v>       0.95854112       0.62479221       0.62479221 </v>
    <v>       0.95854112       0.62479221       0.95854112 </v>
    <v>       0.95810768       0.95810768       0.29234361 </v>
    <v>       0.95854112       0.95854112       0.62479221 </v>
    <v>       0.95810768       0.95810768       0.95810768 </v>
    <v>       0.04166667       0.04166667       0.04166667 </v>
    <v>       0.04201924       0.04201924       0.37405948 </v>
    <v>       0.04201924       0.04201924       0.70856871 </v>
    <v>       0.04201924       0.37405948       0.04201924 </v>
    <v>       0.07018116       0.36549517       0.36549517 </v>
    <v>       0.04201924       0.37405948       0.70856871 </v>
    <v>       0.04201924       0.70856871       0.04201924 </v>
    <v>       0.04201924       0.70856871       0.37405948 </v>
    <v>       0.04168913       0.70832584       0.70832584 </v>
    <v>       0.37405948       0.04201924       0.04201924 </v>
    <v>       0.36549517       0.07018116       0.36549517 </v>
    <v>       0.37405948       0.04201924       0.70856871 </v>
    <v>       0.36549517       0.36549517       0.07018116 </v>
    <v>       0.36549517       0.36549517       0.36549517 </v>
    <v>       0.37518503       0.37518503       0.70814831 </v>
    <v>       0.37405948       0.70856871       0.04201924 </v>
    <v>       0.37518503       0.70814831       0.37518503 </v>
    <v>       0.37518503       0.70814831       0.70814831 </v>
    <v>       0.70856871       0.04201924       0.04201924 </v>
    <v>       0.70856871       0.04201924       0.37405948 </v>
    <v>       0.70832584       0.04168913       0.70832584 </v>
    <v>       0.70856871       0.37405948       0.04201924 </v>
    <v>       0.70814831       0.37518503       0.37518503 </v>
    <v>       0.70814831       0.37518503       0.70814831 </v>
    <v>       0.70832584       0.70832584       0.04168913 </v>
    <v>       0.70814831       0.70814831       0.37518503 </v>
    <v>       0.70832584       0.70832584       0.70832584 </v>
   </varray>
  </structure>
  <varray name="forces" >
   <v>       0.00000000       0.00000000      -0.00000000 </v>
   <v>       0.05088404       0.03598045      -0.06693207 </v>
   <v>       0.05088404       0.03598045       0.06693207 </v>
   <v>       0.00612039      -0.09063026       0.01060083 </v>
   <v>       0.00658732      -0.00232897      -0.00000000 </v>
   <v>       0.00612039      -0.09063026      -0.01060083 </v>
   <v>       0.04476365       0.01866936       0.07753291 </v>
   <v>       0.04476365       0.01866936      -0.07753291 </v>
   <v>      -0.07028774       0.02485047      -0.00000000 </v>
   <v>      -0.08340690       0.03598045       0.01060083 </v>
   <v>       0.00000000       0.00698691      -0.00000000 </v>
   <v>      -0.08340690       0.03598045      -0.01060083 </v>
   <v>      -0.00329366      -0.00232897       0.00570479 </v>
   <v>      -0.00329366      -0.00232897      -0.00570479 </v>
   <v>      -0.03792035      -0.02681374      -0.00000000 </v>
   <v>      -0.08952729       0.01866936      -0.00000000 </v>
   <v>      -0.01896018       0.02681374      -0.03283999 </v>
   <v>      -0.01896018       0.02681374       0.03283999 </v>
   <v>       0.03252286       0.03598045       0.07753291 </v>
   <v>       0.03252286       0.03598045      -0.07753291 </v>
   <v>       0.00000000      -0.07455141      -0.00000000 </v>
   <v>      -0.01224079      -0.09063026      -0.00000000 </v>
   <v>       0.01896018      -0.02681374      -0.03283999 </v>
   <v>       0.01896018      -0.02681374       0.03283999 </v>
   <v>       0.03514387       0.02485047      -0.06087097 </v>
   <v>       0.03792035       0.02681374      -0.00000000 </v>
   <v>       0.03514387       0.02485047       0.06087097 </v>
   <v>       0.00000000       0.00000000      -0.00000000 </v>
   <v>       0.05445367       0.03850456       0.04108678 </v>
   <v>       0.05445367       0.03850456      -0.04108678 </v>
   <v>       0.03908757      -0.00495734       0.06770166 </v>
   <v>      -0.15826773       0.05595609      -0.00000000 </v>
   <v>       0.03908757      -0.00495734      -0.06770166 </v>
   <v>       0.01536610      -0.07205178       0.02661487 </v>
   <v>       0.01536610      -0.07205178      -0.02661487 </v>
[...]
        <r>  0.0008  0.0016  0.0000 </r>
       </set>
       <set comment="band 138">
        <r>  0.0000  0.0023  0.0000 </r>
        <r>  0.0008  0.0031  0.0000 </r>
        <r>  0.0008  0.0031  0.0000 </r>
        <r>  0.0004  0.0023  0.0000 </r>
        <r>  0.0002  0.0015  0.0000 </r>
        <r>  0.0008  0.0031  0.0000 </r>
        <r>  0.0004  0.0023  0.0000 </r>
        <r>  0.0008  0.0031  0.0000 </r>
        <r>  0.0000  0.0024  0.0000 </r>
        <r>  0.0008  0.0031  0.0000 </r>
        <r>  0.0002  0.0015  0.0000 </r>
        <r>  0.0004  0.0023  0.0000 </r>
        <r>  0.0002  0.0015  0.0000 </r>
        <r>  0.0002  0.0015  0.0000 </r>
        <r>  0.0004  0.0023  0.0000 </r>
        <r>  0.0008  0.0031  0.0000 </r>
        <r>  0.0000  0.0073  0.0000 </r>
        <r>  0.0004  0.0023  0.0000 </r>
        <r>  0.0008  0.0031  0.0000 </r>
        <r>  0.0004  0.0023  0.0000 </r>
        <r>  0.0000  0.0024  0.0000 </r>
        <r>  0.0008  0.0031  0.0000 </r>
        <r>  0.0004  0.0023  0.0000 </r>
        <r>  0.0000  0.0073  0.0000 </r>
        <r>  0.0000  0.0024  0.0000 </r>
        <r>  0.0004  0.0023  0.0000 </r>
        <r>  0.0000  0.0024  0.0000 </r>
        <r>  0.0000  0.0075  0.0000 </r>
        <r>  0.0000  0.0038  0.0000 </r>
        <r>  0.0000  0.0038  0.0000 </r>
        <r>  0.0001  0.0011  0.0000 </r>
        <r>  0.0002  0.0032  0.0000 </r>
        <r>  0.0000  0.0038  0.0000 </r>
        <r>  0.0001  0.0011  0.0000 </r>
        <r>  0.0000  0.0038  0.0000 </r>
        <r>  0.0007  0.0006  0.0000 </r>
        <r>  0.0000  0.0038  0.0000 </r>
        <r>  0.0002  0.0032  0.0000 </r>
        <r>  0.0001  0.0011  0.0000 </r>
        <r>  0.0002  0.0032  0.0000 </r>
        <r>  0.0002  0.0032  0.0000 </r>
        <r>  0.0009  0.0059  0.0000 </r>
        <r>  0.0000  0.0038  0.0000 </r>
        <r>  0.0004  0.0043  0.0000 </r>
        <r>  0.0009  0.0059  0.0000 </r>
        <r>  0.0000  0.0038  0.0000 </r>
        <r>  0.0001  0.0011  0.0000 </r>
        <r>  0.0007  0.0006  0.0000 </r>
        <r>  0.0000  0.0038  0.0000 </r>
        <r>  0.0009  0.0059  0.0000 </r>
        <r>  0.0004  0.0043  0.0000 </r>
        <r>  0.0007  0.0006  0.0000 </r>
        <r>  0.0009  0.0059  0.0000 </r>
        <r>  0.0007  0.0006  0.0000 </r>
       </set>
       <set comment="band 139">
        <r>  0.0000  0.0001  0.0000 </r>
        <r>  0.0004  0.0038  0.0000 </r>
        <r>  0.0004  0.0038  0.0000 </r>
        <r>  0.0000  0.0016  0.0000 </r>
        <r>  0.0007  0.0008  0.0000 </r>
        <r>  0.0004  0.0038  0.0000 </r>
        <r>  0.0000  0.0016  0.0000 </r>
        <r>  0.0004  0.0038  0.0000 </r>
        <r>  0.0003  0.0067  0.0000 </r>
        <r>  0.0004  0.0038  0.0000 </r>
        <r>  0.0007  0.0008  0.0000 </r>
        <r>  0.0000  0.0016  0.0000 </r>
        <r>  0.0007  0.0008  0.0000 </r>
        <r>  0.0007  0.0008  0.0000 </r>
        <r>  0.0021  0.0005  0.0000 </r>
        <r>  0.0004  0.0038  0.0000 </r>
        <r>  0.0025  0.0032  0.0000 </r>
        <r>  0.0021  0.0005  0.0000 </r>
        <r>  0.0004  0.0038  0.0000 </r>
        <r>  0.0000  0.0016  0.0000 </r>
        <r>  0.0003  0.0067  0.0000 </r>
        <r>  0.0004  0.0038  0.0000 </r>
        <r>  0.0021  0.0005  0.0000 </r>
        <r>  0.0025  0.0032  0.0000 </r>
        <r>  0.0003  0.0067  0.0000 </r>
        <r>  0.0021  0.0005  0.0000 </r>
        <r>  0.0003  0.0067  0.0000 </r>
        <r>  0.0000  0.0074  0.0000 </r>
        <r>  0.0008  0.0033  0.0000 </r>
        <r>  0.0008  0.0033  0.0000 </r>
        <r>  0.0033  0.0029  0.0000 </r>
        <r>  0.0025  0.0001  0.0000 </r>
        <r>  0.0008  0.0033  0.0000 </r>
        <r>  0.0033  0.0029  0.0000 </r>
        <r>  0.0008  0.0033  0.0000 </r>
        <r>  0.0012  0.0014  0.0000 </r>
        <r>  0.0008  0.0033  0.0000 </r>
        <r>  0.0025  0.0001  0.0000 </r>
        <r>  0.0033  0.0029  0.0000 </r>
        <r>  0.0025  0.0001  0.0000 </r>
        <r>  0.0025  0.0001  0.0000 </r>
        <r>  0.0024  0.0020  0.0000 </r>
        <r>  0.0008  0.0033  0.0000 </r>
        <r>  0.0000  0.0021  0.0000 </r>
        <r>  0.0024  0.0020  0.0000 </r>
        <r>  0.0008  0.0033  0.0000 </r>
        <r>  0.0033  0.0029  0.0000 </r>
        <r>  0.0012  0.0014  0.0000 </r>
        <r>  0.0008  0.0033  0.0000 </r>
        <r>  0.0024  0.0020  0.0000 </r>
        <r>  0.0000  0.0021  0.0000 </r>
        <r>  0.0012  0.0014  0.0000 </r>
        <r>  0.0024  0.0020  0.0000 </r>
        <r>  0.0012  0.0014  0.0000 </r>
       </set>
       <set comment="band 140">
        <r>  0.0000  0.0003  0.0000 </r>
        <r>  0.0003  0.0018  0.0000 </r>
        <r>  0.0003  0.0018  0.0000 </r>
        <r>  0.0002  0.0045  0.0000 </r>
        <r>  0.0011  0.0034  0.0000 </r>
        <r>  0.0003  0.0018  0.0000 </r>
        <r>  0.0002  0.0045  0.0000 </r>
        <r>  0.0003  0.0018  0.0000 </r>
        <r>  0.0003  0.0025  0.0000 </r>
        <r>  0.0003  0.0018  0.0000 </r>
        <r>  0.0011  0.0034  0.0000 </r>
        <r>  0.0002  0.0045  0.0000 </r>
        <r>  0.0011  0.0034  0.0000 </r>
        <r>  0.0011  0.0034  0.0000 </r>
        <r>  0.0016  0.0058  0.0000 </r>
        <r>  0.0003  0.0018  0.0000 </r>
        <r>  0.0000  0.0017  0.0000 </r>
        <r>  0.0016  0.0058  0.0000 </r>
        <r>  0.0003  0.0018  0.0000 </r>
        <r>  0.0002  0.0045  0.0000 </r>
        <r>  0.0003  0.0025  0.0000 </r>
        <r>  0.0003  0.0018  0.0000 </r>
        <r>  0.0016  0.0058  0.0000 </r>
        <r>  0.0000  0.0017  0.0000 </r>
        <r>  0.0003  0.0025  0.0000 </r>
        <r>  0.0016  0.0058  0.0000 </r>
        <r>  0.0003  0.0025  0.0000 </r>
        <r>  0.0000  0.0000  0.0000 </r>
        <r>  0.0018  0.0028  0.0000 </r>
        <r>  0.0018  0.0028  0.0000 </r>
        <r>  0.0000  0.0017  0.0000 </r>
        <r>  0.0002  0.0023  0.0000 </r>
        <r>  0.0018  0.0028  0.0000 </r>
        <r>  0.0000  0.0017  0.0000 </r>
        <r>  0.0018  0.0028  0.0000 </r>
        <r>  0.0007  0.0058  0.0000 </r>
        <r>  0.0018  0.0028  0.0000 </r>
        <r>  0.0002  0.0023  0.0000 </r>
        <r>  0.0000  0.0017  0.0000 </r>
        <r>  0.0002  0.0023  0.0000 </r>
        <r>  0.0002  0.0023  0.0000 </r>
        <r>  0.0000  0.0044  0.0000 </r>
        <r>  0.0018  0.0028  0.0000 </r>
        <r>  0.0001  0.0001  0.0000 </r>
        <r>  0.0000  0.0044  0.0000 </r>
        <r>  0.0018  0.0028  0.0000 </r>
        <r>  0.0000  0.0017  0.0000 </r>
        <r>  0.0007  0.0058  0.0000 </r>
        <r>  0.0018  0.0028  0.0000 </r>
        <r>  0.0000  0.0044  0.0000 </r>
        <r>  0.0001  0.0001  0.0000 </r>
        <r>  0.0007  0.0058  0.0000 </r>
        <r>  0.0000  0.0044  0.0000 </r>
        <r>  0.0007  0.0058  0.0000 </r>
       </set>
       <set comment="band 141">
        <r>  0.0000  0.0021  0.0000 </r>
        <r>  0.0005  0.0026  0.0000 </r>
        <r>  0.0005  0.0026  0.0000 </r>
        <r>  0.0004  0.0037  0.0000 </r>
        <r>  0.0001  0.0099  0.0000 </r>
        <r>  0.0005  0.0026  0.0000 </r>
        <r>  0.0004  0.0037  0.0000 </r>
        <r>  0.0005  0.0026  0.0000 </r>
        <r>  0.0028  0.0056  0.0000 </r>
        <r>  0.0005  0.0026  0.0000 </r>
        <r>  0.0001  0.0099  0.0000 </r>
        <r>  0.0004  0.0037  0.0000 </r>
        <r>  0.0001  0.0099  0.0000 </r>
        <r>  0.0001  0.0099  0.0000 </r>
        <r>  0.0001  0.0012  0.0000 </r>
        <r>  0.0005  0.0026  0.0000 </r>
        <r>  0.0000  0.0071  0.0000 </r>
        <r>  0.0001  0.0012  0.0000 </r>
        <r>  0.0005  0.0026  0.0000 </r>
        <r>  0.0004  0.0037  0.0000 </r>
        <r>  0.0028  0.0056  0.0000 </r>
        <r>  0.0005  0.0026  0.0000 </r>
        <r>  0.0001  0.0012  0.0000 </r>
        <r>  0.0000  0.0071  0.0000 </r>
        <r>  0.0028  0.0056  0.0000 </r>
        <r>  0.0001  0.0012  0.0000 </r>
        <r>  0.0028  0.0056  0.0000 </r>
        <r>  0.0000  0.0061  0.0000 </r>
        <r>  0.0007  0.0010  0.0000 </r>
        <r>  0.0007  0.0010  0.0000 </r>
        <r>  0.0001  0.0085  0.0000 </r>
        <r>  0.0003  0.0020  0.0000 </r>
        <r>  0.0007  0.0010  0.0000 </r>
        <r>  0.0001  0.0085  0.0000 </r>
        <r>  0.0007  0.0010  0.0000 </r>
        <r>  0.0000  0.0042  0.0000 </r>
        <r>  0.0007  0.0010  0.0000 </r>
        <r>  0.0003  0.0020  0.0000 </r>
        <r>  0.0001  0.0085  0.0000 </r>
        <r>  0.0003  0.0020  0.0000 </r>
        <r>  0.0003  0.0020  0.0000 </r>
        <r>  0.0052  0.0031  0.0000 </r>
        <r>  0.0007  0.0010  0.0000 </r>
        <r>  0.0004  0.0039  0.0000 </r>
        <r>  0.0052  0.0031  0.0000 </r>
        <r>  0.0007  0.0010  0.0000 </r>
        <r>  0.0001  0.0085  0.0000 </r>
        <r>  0.0000  0.0042  0.0000 </r>
        <r>  0.0007  0.0010  0.0000 </r>
        <r>  0.0052  0.0031  0.0000 </r>
        <r>  0.0004  0.0039  0.0000 </r>
        <r>  0.0000  0.0042  0.0000 </r>
        <r>  0.0052  0.0031  0.0000 </r>
        <r>  0.0000  0.0042  0.0000 </r>
       </set>
       <set comment="band 142">
        <r>  0.0000  0.0003  0.0000 </r>
        <r>  0.0001  0.0079  0.0000 </r>
        <r>  0.0001  0.0079  0.0000 </r>
        <r>  0.0010  0.0029  0.0000 </r>
        <r>  0.0009  0.0021  0.0000 </r>
        <r>  0.0001  0.0079  0.0000 </r>
        <r>  0.0010  0.0029  0.0000 </r>
        <r>  0.0001  0.0079  0.0000 </r>
        <r>  0.0019  0.0035  0.0000 </r>
        <r>  0.0001  0.0079  0.0000 </r>
        <r>  0.0009  0.0021  0.0000 </r>
        <r>  0.0010  0.0029  0.0000 </r>
        <r>  0.0009  0.0021  0.0000 </r>
        <r>  0.0009  0.0021  0.0000 </r>
        <r>  0.0003  0.0068  0.0000 </r>
        <r>  0.0001  0.0079  0.0000 </r>
        <r>  0.0000  0.0005  0.0000 </r>
        <r>  0.0003  0.0068  0.0000 </r>
        <r>  0.0001  0.0079  0.0000 </r>
        <r>  0.0010  0.0029  0.0000 </r>
        <r>  0.0019  0.0035  0.0000 </r>
        <r>  0.0001  0.0079  0.0000 </r>
        <r>  0.0003  0.0068  0.0000 </r>
        <r>  0.0000  0.0005  0.0000 </r>
        <r>  0.0019  0.0035  0.0000 </r>
        <r>  0.0003  0.0068  0.0000 </r>
        <r>  0.0019  0.0035  0.0000 </r>
        <r>  0.0040  0.0000  0.0000 </r>
        <r>  0.0002  0.0073  0.0000 </r>
        <r>  0.0002  0.0073  0.0000 </r>
        <r>  0.0008  0.0017  0.0000 </r>
        <r>  0.0008  0.0030  0.0000 </r>
        <r>  0.0002  0.0073  0.0000 </r>
        <r>  0.0008  0.0017  0.0000 </r>
        <r>  0.0002  0.0073  0.0000 </r>
        <r>  0.0007  0.0023  0.0000 </r>
        <r>  0.0002  0.0073  0.0000 </r>
        <r>  0.0008  0.0030  0.0000 </r>
        <r>  0.0008  0.0017  0.0000 </r>
        <r>  0.0008  0.0030  0.0000 </r>
        <r>  0.0008  0.0030  0.0000 </r>
        <r>  0.0002  0.0065  0.0000 </r>
        <r>  0.0002  0.0073  0.0000 </r>
        <r>  0.0036  0.0000  0.0000 </r>
        <r>  0.0002  0.0065  0.0000 </r>
        <r>  0.0002  0.0073  0.0000 </r>
        <r>  0.0008  0.0017  0.0000 </r>
        <r>  0.0007  0.0023  0.0000 </r>
        <r>  0.0002  0.0073  0.0000 </r>
        <r>  0.0002  0.0065  0.0000 </r>
        <r>  0.0036  0.0000  0.0000 </r>
        <r>  0.0007  0.0023  0.0000 </r>
        <r>  0.0002  0.0065  0.0000 </r>
        <r>  0.0007  0.0023  0.0000 </r>
       </set>
       <set comment="band 143">
        <r>  0.0026  0.0000  0.0000 </r>
        <r>  0.0004  0.0050  0.0000 </r>
        <r>  0.0004  0.0050  0.0000 </r>
        <r>  0.0010  0.0034  0.0000 </r>
        <r>  0.0013  0.0056  0.0000 </r>
        <r>  0.0004  0.0050  0.0000 </r>
        <r>  0.0010  0.0034  0.0000 </r>
        <r>  0.0004  0.0050  0.0000 </r>
        <r>  0.0012  0.0023  0.0000 </r>
        <r>  0.0004  0.0050  0.0000 </r>
        <r>  0.0013  0.0056  0.0000 </r>
        <r>  0.0010  0.0034  0.0000 </r>
        <r>  0.0013  0.0056  0.0000 </r>
        <r>  0.0013  0.0056  0.0000 </r>
        <r>  0.0004  0.0036  0.0000 </r>
        <r>  0.0004  0.0050  0.0000 </r>
        <r>  0.0030  0.0000  0.0000 </r>
        <r>  0.0004  0.0036  0.0000 </r>
        <r>  0.0004  0.0050  0.0000 </r>
        <r>  0.0010  0.0034  0.0000 </r>
        <r>  0.0012  0.0023  0.0000 </r>
        <r>  0.0004  0.0050  0.0000 </r>
        <r>  0.0004  0.0036  0.0000 </r>
        <r>  0.0030  0.0000  0.0000 </r>
        <r>  0.0012  0.0023  0.0000 </r>
        <r>  0.0004  0.0036  0.0000 </r>
        <r>  0.0012  0.0023  0.0000 </r>
        <r>  0.0000  0.0003  0.0000 </r>
        <r>  0.0003  0.0058  0.0000 </r>
        <r>  0.0003  0.0058  0.0000 </r>
        <r>  0.0013  0.0043  0.0000 </r>
        <r>  0.0003  0.0036  0.0000 </r>
        <r>  0.0003  0.0058  0.0000 </r>
        <r>  0.0013  0.0043  0.0000 </r>
        <r>  0.0003  0.0058  0.0000 </r>
        <r>  0.0002  0.0048  0.0000 </r>
        <r>  0.0003  0.0058  0.0000 </r>
        <r>  0.0003  0.0036  0.0000 </r>
        <r>  0.0013  0.0043  0.0000 </r>
        <r>  0.0003  0.0036  0.0000 </r>
        <r>  0.0003  0.0036  0.0000 </r>
        <r>  0.0010  0.0075  0.0000 </r>
        <r>  0.0003  0.0058  0.0000 </r>
        <r>  0.0000  0.0002  0.0000 </r>
        <r>  0.0010  0.0075  0.0000 </r>
        <r>  0.0003  0.0058  0.0000 </r>
        <r>  0.0013  0.0043  0.0000 </r>
        <r>  0.0002  0.0048  0.0000 </r>
        <r>  0.0003  0.0058  0.0000 </r>
        <r>  0.0010  0.0075  0.0000 </r>
        <r>  0.0000  0.0002  0.0000 </r>
        <r>  0.0002  0.0048  0.0000 </r>
        <r>  0.0010  0.0075  0.0000 </r>
        <r>  0.0002  0.0048  0.0000 </r>
       </set>
       <set comment="band 144">
        <r>  0.0000  0.0082  0.0000 </r>
        <r>  0.0004  0.0035  0.0000 </r>
        <r>  0.0004  0.0035  0.0000 </r>
        <r>  0.0000  0.0102  0.0000 </r>
        <r>  0.0000  0.0120  0.0000 </r>
        <r>  0.0004  0.0035  0.0000 </r>
        <r>  0.0000  0.0102  0.0000 </r>
        <r>  0.0004  0.0035  0.0000 </r>
        <r>  0.0001  0.0063  0.0000 </r>
        <r>  0.0004  0.0035  0.0000 </r>
        <r>  0.0000  0.0120  0.0000 </r>
        <r>  0.0000  0.0102  0.0000 </r>
        <r>  0.0000  0.0120  0.0000 </r>
        <r>  0.0000  0.0120  0.0000 </r>
        <r>  0.0002  0.0063  0.0000 </r>
        <r>  0.0004  0.0035  0.0000 </r>
        <r>  0.0001  0.0057  0.0000 </r>
        <r>  0.0002  0.0064  0.0000 </r>
        <r>  0.0004  0.0035  0.0000 </r>
        <r>  0.0000  0.0102  0.0000 </r>
        <r>  0.0001  0.0063  0.0000 </r>
        <r>  0.0004  0.0035  0.0000 </r>
        <r>  0.0002  0.0064  0.0000 </r>
        <r>  0.0001  0.0057  0.0000 </r>
        <r>  0.0001  0.0063  0.0000 </r>
        <r>  0.0002  0.0063  0.0000 </r>
        <r>  0.0001  0.0063  0.0000 </r>
        <r>  0.0000  0.0012  0.0000 </r>
        <r>  0.0027  0.0008  0.0000 </r>
        <r>  0.0027  0.0008  0.0000 </r>
        <r>  0.0020  0.0017  0.0000 </r>
        <r>  0.0066  0.0007  0.0000 </r>
        <r>  0.0027  0.0008  0.0000 </r>
        <r>  0.0020  0.0017  0.0000 </r>
        <r>  0.0027  0.0008  0.0000 </r>
        <r>  0.0044  0.0018  0.0000 </r>
        <r>  0.0027  0.0008  0.0000 </r>
        <r>  0.0066  0.0007  0.0000 </r>
        <r>  0.0020  0.0017  0.0000 </r>
        <r>  0.0066  0.0007  0.0000 </r>
        <r>  0.0066  0.0007  0.0000 </r>
        <r>  0.0009  0.0003  0.0000 </r>
        <r>  0.0027  0.0008  0.0000 </r>
        <r>  0.0000  0.0005  0.0000 </r>
        <r>  0.0009  0.0003  0.0000 </r>
        <r>  0.0027  0.0008  0.0000 </r>
        <r>  0.0020  0.0017  0.0000 </r>
        <r>  0.0044  0.0018  0.0000 </r>
        <r>  0.0027  0.0008  0.0000 </r>
        <r>  0.0009  0.0003  0.0000 </r>
        <r>  0.0000  0.0005  0.0000 </r>
        <r>  0.0044  0.0018  0.0000 </r>
        <r>  0.0009  0.0003  0.0000 </r>
        <r>  0.0044  0.0018  0.0000 </r>
       </set>
      </set>
     </set>
    </set>
   </array>
  </projected>
 </calculation>
 <structure name="finalpos" >
  <crystal>
   <varray name="basis" >
    <v>       9.97646553       0.00000000       5.75991507 </v>
    <v>       3.32548851       9.40590192       5.75991507 </v>
    <v>       0.00000000       0.00000000      11.51983014 </v>
   </varray>
   <i name="volume">   1080.99386112 </i>
   <varray name="rec_basis" >
    <v>       0.10023590      -0.03543874       0.00000000 </v>
    <v>       0.00000000       0.10631623       0.00000000 </v>
    <v>      -0.05011795      -0.03543874       0.08680684 </v>
   </varray>
  </crystal>
  <varray name="positions" >
   <v>       0.29166667       0.29166667       0.29166667 </v>
   <v>       0.29292456       0.29292456       0.61904987 </v>
   <v>       0.29292456       0.29292456       0.96176767 </v>
   <v>       0.29292456       0.61904987       0.29292456 </v>
   <v>       0.29208274       0.62486131       0.62486131 </v>
   <v>       0.29292456       0.61904987       0.96176767 </v>
   <v>       0.29292456       0.96176767       0.29292456 </v>
   <v>       0.29292456       0.96176767       0.61904987 </v>
   <v>       0.29186170       0.95826832       0.95826832 </v>
   <v>       0.61904987       0.29292456       0.29292456 </v>
   <v>       0.62486131       0.29208274       0.62486131 </v>
   <v>       0.61904987       0.29292456       0.96176767 </v>
   <v>       0.62486131       0.62486131       0.29208274 </v>
   <v>       0.62486131       0.62486131       0.62486131 </v>
   <v>       0.62461249       0.62461249       0.95872084 </v>
   <v>       0.61904987       0.96176767       0.29292456 </v>
   <v>       0.62461249       0.95872084       0.62461249 </v>
   <v>       0.62461249       0.95872084       0.95872084 </v>
   <v>       0.96176767       0.29292456       0.29292456 </v>
   <v>       0.96176767       0.29292456       0.61904987 </v>
   <v>       0.95826832       0.29186170       0.95826832 </v>
   <v>       0.96176767       0.61904987       0.29292456 </v>
   <v>       0.95872084       0.62461249       0.62461249 </v>
   <v>       0.95872084       0.62461249       0.95872084 </v>
   <v>       0.95826832       0.95826832       0.29186170 </v>
   <v>       0.95872084       0.95872084       0.62461249 </v>
   <v>       0.95826832       0.95826832       0.95826832 </v>
   <v>       0.04166667       0.04166667       0.04166667 </v>
   <v>       0.04227631       0.04227631       0.37401171 </v>
   <v>       0.04227631       0.04227631       0.70810235 </v>
   <v>       0.04227631       0.37401171       0.04227631 </v>
   <v>       0.06917913       0.36582918       0.36582918 </v>
   <v>       0.04227631       0.37401171       0.70810235 </v>
   <v>       0.04227631       0.70810235       0.04227631 </v>
   <v>       0.04227631       0.70810235       0.37401171 </v>
   <v>       0.04165139       0.70833843       0.70833843 </v>
   <v>       0.37401171       0.04227631       0.04227631 </v>
   <v>       0.36582918       0.06917913       0.36582918 </v>
   <v>       0.37401171       0.04227631       0.70810235 </v>
   <v>       0.36582918       0.36582918       0.06917913 </v>
   <v>       0.36582918       0.36582918       0.36582918 </v>
   <v>       0.37465407       0.37465407       0.70867926 </v>
   <v>       0.37401171       0.70810235       0.04227631 </v>
   <v>       0.37465407       0.70867926       0.37465407 </v>
   <v>       0.37465407       0.70867926       0.70867926 </v>
   <v>       0.70810235       0.04227631       0.04227631 </v>
   <v>       0.70810235       0.04227631       0.37401171 </v>
   <v>       0.70833843       0.04165139       0.70833843 </v>
   <v>       0.70810235       0.37401171       0.04227631 </v>
   <v>       0.70867926       0.37465407       0.37465407 </v>
   <v>       0.70867926       0.37465407       0.70867926 </v>
   <v>       0.70833843       0.70833843       0.04165139 </v>
   <v>       0.70867926       0.70867926       0.37465407 </v>
   <v>       0.70833843       0.70833843       0.70833843 </v>
  </varray>
 </structure>
</modeling>
