Generated by pymatgen.io.lammps.data.LammpsData

2  atoms

1  atom types

0.000000 3.849278  xlo xhi
0.000000 3.333574  ylo yhi
0.000000 3.142923  zlo zhi
1.924639 1.924639 1.111190  xy xz yz

Masses

1  28.0855

Atoms

1  1 6.736237 3.889169 2.750057
2  1 0.962320 0.555596 0.392865

