 vasp.5.3.3 18Dez12 (build Oct 02 2015 10:56:41) complex                        
  
 executed on             LinuxIFC date 2020.05.27  12:37:19
 running on   24 total cores
 distrk:  each k-point on   24 cores,    1 groups
 distr:  one band on NCORES_PER_BAND=   1 cores,   24 groups


--------------------------------------------------------------------------------------------------------


 INCAR:
 POTCAR:    PAW_PBE Si 05Jan2001                  

 ----------------------------------------------------------------------------- 
|                                                                             |
|           W    W    AA    RRRRR   N    N  II  N    N   GGGG   !!!           |
|           W    W   A  A   R    R  NN   N  II  NN   N  G    G  !!!           |
|           W    W  A    A  R    R  N N  N  II  N N  N  G       !!!           |
|           W WW W  AAAAAA  RRRRR   N  N N  II  N  N N  G  GGG   !            |
|           WW  WW  A    A  R   R   N   NN  II  N   NN  G    G                |
|           W    W  A    A  R    R  N    N  II  N    N   GGGG   !!!           |
|                                                                             |
|      For optimal performance we recommend that you set                      |
|        NPAR = 4 - approx SQRT( number of cores)                             |
|      (number of cores/NPAR must be integer)                                 |
|      This setting will greatly improve the performance of VASP for DFT.     |
|      The default NPAR=number of cores might be grossly inefficient          |
|      on modern multi-core architectures or massively parallel machines.     |
|      Do your own testing.                                                   |
|      Unfortunately you need to use the default for hybrid, GW and RPA       |
|      calculations.                                                          |
|                                                                             |
 ----------------------------------------------------------------------------- 

 POTCAR:    PAW_PBE Si 05Jan2001                  
   VRHFIN =Si: s2p2                                                             
   LEXCH  = PE                                                                  
   EATOM  =   103.0669 eV,    7.5752 Ry                                         
                                                                                
   TITEL  = PAW_PBE Si 05Jan2001                                                
   LULTRA =        F    use ultrasoft PP ?                                      
   IUNSCR =        1    unscreen: 0-lin 1-nonlin 2-no                           
   RPACOR =    1.500    partial core radius                                     
   POMASS =   28.085; ZVAL   =    4.000    mass and valenz                      
   RCORE  =    1.900    outmost cutoff radius                                   
   RWIGS  =    2.480; RWIGS  =    1.312    wigner-seitz radius (au A)           
   ENMAX  =  245.345; ENMIN  =  184.009 eV                                      
   ICORE  =        2    local potential                                         
   LCOR   =        T    correct aug charges                                     
   LPAW   =        T    paw PP                                                  
   EAUG   =  322.069                                                            
   DEXC   =    0.000                                                            
   RMAX   =    1.950    core radius for proj-oper                               
   RAUG   =    1.300    factor for augmentation sphere                          
   RDEP   =    1.993    radius for radial grids                                 
   RDEPT  =    1.837    core radius for aug-charge                              
                                                                                
   Atomic configuration                                                         
    6 entries                                                                   
     n  l   j            E        occ.                                          
     1  0  0.50     -1785.8828   2.0000                                         
     2  0  0.50      -139.4969   2.0000                                         
     2  1  1.50       -95.5546   6.0000                                         
     3  0  0.50       -10.8127   2.0000                                         
     3  1  0.50        -4.0811   2.0000                                         
     3  2  1.50        -4.0817   0.0000                                         
   Description                                                                  
     l       E           TYP  RCUT    TYP  RCUT                                 
     0    -10.8127223     23  1.900                                             
     0     -7.6451159     23  1.900                                             
     1     -4.0811372     23  1.900                                             
     1      2.4879257     23  1.900                                             
     2     -4.0817478      7  1.900                                             
  local pseudopotential read in
  partial core-charges read in
  partial kinetic energy density read in
  atomic valenz-charges read in
  non local Contribution for L=           0  read in
    real space projection operators read in
  non local Contribution for L=           0  read in
    real space projection operators read in
  non local Contribution for L=           1  read in
    real space projection operators read in
  non local Contribution for L=           1  read in
    real space projection operators read in
    PAW grid and wavefunctions read in
 
   number of l-projection  operators is LMAX  =           4
   number of lm-projection operators is LMMAX =           8
 
  PAW_PBE Si 05Jan2001                  :
 energy of atom  1       EATOM= -103.0669
 kinetic energy error for atom=    0.0006 (will be added to EATOM!!)
 
 
 POSCAR: Si2                                     
  positions in direct lattice
  No initial velocities read in
 exchange correlation table for  LEXCH =        8
   RHO(1)=    0.500       N(1)  =     2000
   RHO(2)=  100.500       N(2)  =     4000
 


--------------------------------------------------------------------------------------------------------


 ion  position               nearest neighbor table
   1  0.875  0.875  0.875-   2 2.35   2 2.35   2 2.35   2 2.35
   2  0.125  0.125  0.125-   1 2.35   1 2.35   1 2.35   1 2.35
 
  LATTYP: Found a face centered cubic cell.
 ALAT       =     5.4304994693
  
  Lattice vectors:
  
 A1 = (   3.3254890000,   0.0000000000,   1.9199720000)
 A2 = (   1.1084960000,   3.1353010000,   1.9199720000)
 A3 = (   0.0000000000,   0.0000000000,   3.8399430000)


Analysis of symmetry for initial positions (statically):
=====================================================================
 Subroutine PRICEL returns:
 Original cell was already a primitive cell.
 

 Routine SETGRP: Setting up the symmetry group for a 
 face centered cubic supercell.


 Subroutine GETGRP returns: Found 48 space group operations
 (whereof 12 operations were pure point group operations)
 out of a pool of 48 trial point group operations.


The static configuration has the point symmetry D_3d.
 The point group associated with its full space group is O_h .


Analysis of symmetry for dynamics (positions and initial velocities):
=====================================================================
 Subroutine PRICEL returns:
 Original cell was already a primitive cell.
 

 Routine SETGRP: Setting up the symmetry group for a 
 face centered cubic supercell.


 Subroutine GETGRP returns: Found 48 space group operations
 (whereof 12 operations were pure point group operations)
 out of a pool of 48 trial point group operations.


The dynamic configuration has the point symmetry D_3d.
 The point group associated with its full space group is O_h .


 irot  :   1
 --------------------------------------------------------------------
 isymop:   1   0   0
           0   1   0
           0   0   1

 gtrans:     0.0000000     0.0000000     0.0000000

 ptrans:     0.0000000     0.0000000     0.0000000
 rotmap:
 (   1->   1)  (   2->   2) 


 irot  :   2
 --------------------------------------------------------------------
 isymop:  -1   0   0
           0  -1   0
           0   0  -1

 gtrans:     0.0000000     0.0000000     0.0000000

 ptrans:     0.0000000     0.0000000     0.0000000
 rotmap:
 (   1->   2)  (   2->   1) 


 irot  :   3
 --------------------------------------------------------------------
 isymop:   0   0   1
           1   0   0
           0   1   0

 gtrans:     0.0000000     0.0000000     0.0000000

 ptrans:     0.0000000     0.0000000     0.0000000
 rotmap:
 (   1->   1)  (   2->   2) 


 irot  :   4
 --------------------------------------------------------------------
 isymop:   0   0  -1
          -1   0   0
           0  -1   0

 gtrans:     0.0000000     0.0000000     0.0000000

 ptrans:     0.0000000     0.0000000     0.0000000
 rotmap:
 (   1->   2)  (   2->   1) 


 irot  :   5
 --------------------------------------------------------------------
 isymop:   0   1   0
           0   0   1
           1   0   0

 gtrans:     0.0000000     0.0000000     0.0000000

 ptrans:     0.0000000     0.0000000     0.0000000
 rotmap:
 (   1->   1)  (   2->   2) 


 irot  :   6
 --------------------------------------------------------------------
 isymop:   0  -1   0
           0   0  -1
          -1   0   0

 gtrans:     0.0000000     0.0000000     0.0000000

 ptrans:     0.0000000     0.0000000     0.0000000
 rotmap:
 (   1->   2)  (   2->   1) 


 irot  :   7
 --------------------------------------------------------------------
 isymop:  -1   0   0
           0   0  -1
           0  -1   0

 gtrans:     0.0000000     0.0000000     0.0000000

 ptrans:     0.0000000     0.0000000     0.0000000
 rotmap:
 (   1->   2)  (   2->   1) 


 irot  :   8
 --------------------------------------------------------------------
 isymop:   1   0   0
           0   0   1
           0   1   0

 gtrans:     0.0000000     0.0000000     0.0000000

 ptrans:     0.0000000     0.0000000     0.0000000
 rotmap:
 (   1->   1)  (   2->   2) 


 irot  :   9
 --------------------------------------------------------------------
 isymop:   0  -1   0
          -1   0   0
           0   0  -1

 gtrans:     0.0000000     0.0000000     0.0000000

 ptrans:     0.0000000     0.0000000     0.0000000
 rotmap:
 (   1->   2)  (   2->   1) 


 irot  :  10
 --------------------------------------------------------------------
 isymop:   0   1   0
           1   0   0
           0   0   1

 gtrans:     0.0000000     0.0000000     0.0000000

 ptrans:     0.0000000     0.0000000     0.0000000
 rotmap:
 (   1->   1)  (   2->   2) 


 irot  :  11
 --------------------------------------------------------------------
 isymop:   0   0  -1
           0  -1   0
          -1   0   0

 gtrans:     0.0000000     0.0000000     0.0000000

 ptrans:     0.0000000     0.0000000     0.0000000
 rotmap:
 (   1->   2)  (   2->   1) 


 irot  :  12
 --------------------------------------------------------------------
 isymop:   0   0   1
           0   1   0
           1   0   0

 gtrans:     0.0000000     0.0000000     0.0000000

 ptrans:     0.0000000     0.0000000     0.0000000
 rotmap:
 (   1->   1)  (   2->   2) 


 irot  :  13
 --------------------------------------------------------------------
 isymop:   1   1   1
           0   0  -1
          -1   0   0

 gtrans:     0.5000000     0.0000000     0.0000000

 ptrans:     0.0000000     0.0000000     0.0000000
 rotmap:
 (   1->   2)  (   2->   1) 


 irot  :  14
 --------------------------------------------------------------------
 isymop:  -1  -1  -1
           0   0   1
           1   0   0

 gtrans:     0.5000000     0.0000000     0.0000000

 ptrans:     0.0000000     0.0000000     0.0000000
 rotmap:
 (   1->   1)  (   2->   2) 


 irot  :  15
 --------------------------------------------------------------------
 isymop:   1   1   1
           0  -1   0
           0   0  -1

 gtrans:     0.5000000     0.0000000     0.0000000

 ptrans:     0.0000000     0.0000000     0.0000000
 rotmap:
 (   1->   2)  (   2->   1) 


 irot  :  16
 --------------------------------------------------------------------
 isymop:  -1  -1  -1
           0   1   0
           0   0   1

 gtrans:     0.5000000     0.0000000     0.0000000

 ptrans:     0.0000000     0.0000000     0.0000000
 rotmap:
 (   1->   1)  (   2->   2) 


 irot  :  17
 --------------------------------------------------------------------
 isymop:   1   1   1
          -1   0   0
           0  -1   0

 gtrans:     0.5000000     0.0000000     0.0000000

 ptrans:     0.0000000     0.0000000     0.0000000
 rotmap:
 (   1->   2)  (   2->   1) 


 irot  :  18
 --------------------------------------------------------------------
 isymop:  -1  -1  -1
           1   0   0
           0   1   0

 gtrans:     0.5000000     0.0000000     0.0000000

 ptrans:     0.0000000     0.0000000     0.0000000
 rotmap:
 (   1->   1)  (   2->   2) 


 irot  :  19
 --------------------------------------------------------------------
 isymop:   0   1   0
           1   0   0
          -1  -1  -1

 gtrans:     0.0000000     0.0000000     0.5000000

 ptrans:     0.0000000     0.0000000     0.0000000
 rotmap:
 (   1->   1)  (   2->   2) 


 irot  :  20
 --------------------------------------------------------------------
 isymop:   0  -1   0
          -1   0   0
           1   1   1

 gtrans:     0.0000000     0.0000000     0.5000000

 ptrans:     0.0000000     0.0000000     0.0000000
 rotmap:
 (   1->   2)  (   2->   1) 


 irot  :  21
 --------------------------------------------------------------------
 isymop:   1   0   0
           0   0   1
          -1  -1  -1

 gtrans:     0.0000000     0.0000000     0.5000000

 ptrans:     0.0000000     0.0000000     0.0000000
 rotmap:
 (   1->   1)  (   2->   2) 


 irot  :  22
 --------------------------------------------------------------------
 isymop:  -1   0   0
           0   0  -1
           1   1   1

 gtrans:     0.0000000     0.0000000     0.5000000

 ptrans:     0.0000000     0.0000000     0.0000000
 rotmap:
 (   1->   2)  (   2->   1) 


 irot  :  23
 --------------------------------------------------------------------
 isymop:   0   0   1
           0   1   0
          -1  -1  -1

 gtrans:     0.0000000     0.0000000     0.5000000

 ptrans:     0.0000000     0.0000000     0.0000000
 rotmap:
 (   1->   1)  (   2->   2) 


 irot  :  24
 --------------------------------------------------------------------
 isymop:   0   0  -1
           0  -1   0
           1   1   1

 gtrans:     0.0000000     0.0000000     0.5000000

 ptrans:     0.0000000     0.0000000     0.0000000
 rotmap:
 (   1->   2)  (   2->   1) 


 irot  :  25
 --------------------------------------------------------------------
 isymop:   0   0  -1
           1   1   1
           0  -1   0

 gtrans:     0.0000000     0.5000000     0.0000000

 ptrans:     0.0000000     0.0000000     0.0000000
 rotmap:
 (   1->   2)  (   2->   1) 


 irot  :  26
 --------------------------------------------------------------------
 isymop:   0   0   1
          -1  -1  -1
           0   1   0

 gtrans:     0.0000000     0.5000000     0.0000000

 ptrans:     0.0000000     0.0000000     0.0000000
 rotmap:
 (   1->   1)  (   2->   2) 


 irot  :  27
 --------------------------------------------------------------------
 isymop:   0  -1   0
           1   1   1
          -1   0   0

 gtrans:     0.0000000     0.5000000     0.0000000

 ptrans:     0.0000000     0.0000000     0.0000000
 rotmap:
 (   1->   2)  (   2->   1) 


 irot  :  28
 --------------------------------------------------------------------
 isymop:   0   1   0
          -1  -1  -1
           1   0   0

 gtrans:     0.0000000     0.5000000     0.0000000

 ptrans:     0.0000000     0.0000000     0.0000000
 rotmap:
 (   1->   1)  (   2->   2) 


 irot  :  29
 --------------------------------------------------------------------
 isymop:  -1   0   0
           1   1   1
           0   0  -1

 gtrans:     0.0000000     0.5000000     0.0000000

 ptrans:     0.0000000     0.0000000     0.0000000
 rotmap:
 (   1->   2)  (   2->   1) 


 irot  :  30
 --------------------------------------------------------------------
 isymop:   1   0   0
          -1  -1  -1
           0   0   1

 gtrans:     0.0000000     0.5000000     0.0000000

 ptrans:     0.0000000     0.0000000     0.0000000
 rotmap:
 (   1->   1)  (   2->   2) 


 irot  :  31
 --------------------------------------------------------------------
 isymop:  -1  -1  -1
           0   1   0
           1   0   0

 gtrans:     0.5000000     0.0000000     0.0000000

 ptrans:     0.0000000     0.0000000     0.0000000
 rotmap:
 (   1->   1)  (   2->   2) 


 irot  :  32
 --------------------------------------------------------------------
 isymop:   1   1   1
           0  -1   0
          -1   0   0

 gtrans:     0.5000000     0.0000000     0.0000000

 ptrans:     0.0000000     0.0000000     0.0000000
 rotmap:
 (   1->   2)  (   2->   1) 


 irot  :  33
 --------------------------------------------------------------------
 isymop:  -1  -1  -1
           1   0   0
           0   0   1

 gtrans:     0.5000000     0.0000000     0.0000000

 ptrans:     0.0000000     0.0000000     0.0000000
 rotmap:
 (   1->   1)  (   2->   2) 


 irot  :  34
 --------------------------------------------------------------------
 isymop:   1   1   1
          -1   0   0
           0   0  -1

 gtrans:     0.5000000     0.0000000     0.0000000

 ptrans:     0.0000000     0.0000000     0.0000000
 rotmap:
 (   1->   2)  (   2->   1) 


 irot  :  35
 --------------------------------------------------------------------
 isymop:  -1  -1  -1
           0   0   1
           0   1   0

 gtrans:     0.5000000     0.0000000     0.0000000

 ptrans:     0.0000000     0.0000000     0.0000000
 rotmap:
 (   1->   1)  (   2->   2) 


 irot  :  36
 --------------------------------------------------------------------
 isymop:   1   1   1
           0   0  -1
           0  -1   0

 gtrans:     0.5000000     0.0000000     0.0000000

 ptrans:     0.0000000     0.0000000     0.0000000
 rotmap:
 (   1->   2)  (   2->   1) 


 irot  :  37
 --------------------------------------------------------------------
 isymop:   0  -1   0
           0   0  -1
           1   1   1

 gtrans:     0.0000000     0.0000000     0.5000000

 ptrans:     0.0000000     0.0000000     0.0000000
 rotmap:
 (   1->   2)  (   2->   1) 


 irot  :  38
 --------------------------------------------------------------------
 isymop:   0   1   0
           0   0   1
          -1  -1  -1

 gtrans:     0.0000000     0.0000000     0.5000000

 ptrans:     0.0000000     0.0000000     0.0000000
 rotmap:
 (   1->   1)  (   2->   2) 


 irot  :  39
 --------------------------------------------------------------------
 isymop:  -1   0   0
           0  -1   0
           1   1   1

 gtrans:     0.0000000     0.0000000     0.5000000

 ptrans:     0.0000000     0.0000000     0.0000000
 rotmap:
 (   1->   2)  (   2->   1) 


 irot  :  40
 --------------------------------------------------------------------
 isymop:   1   0   0
           0   1   0
          -1  -1  -1

 gtrans:     0.0000000     0.0000000     0.5000000

 ptrans:     0.0000000     0.0000000     0.0000000
 rotmap:
 (   1->   1)  (   2->   2) 


 irot  :  41
 --------------------------------------------------------------------
 isymop:   0   0  -1
          -1   0   0
           1   1   1

 gtrans:     0.0000000     0.0000000     0.5000000

 ptrans:     0.0000000     0.0000000     0.0000000
 rotmap:
 (   1->   2)  (   2->   1) 


 irot  :  42
 --------------------------------------------------------------------
 isymop:   0   0   1
           1   0   0
          -1  -1  -1

 gtrans:     0.0000000     0.0000000     0.5000000

 ptrans:     0.0000000     0.0000000     0.0000000
 rotmap:
 (   1->   1)  (   2->   2) 


 irot  :  43
 --------------------------------------------------------------------
 isymop:   1   0   0
          -1  -1  -1
           0   1   0

 gtrans:     0.0000000     0.5000000     0.0000000

 ptrans:     0.0000000     0.0000000     0.0000000
 rotmap:
 (   1->   1)  (   2->   2) 


 irot  :  44
 --------------------------------------------------------------------
 isymop:  -1   0   0
           1   1   1
           0  -1   0

 gtrans:     0.0000000     0.5000000     0.0000000

 ptrans:     0.0000000     0.0000000     0.0000000
 rotmap:
 (   1->   2)  (   2->   1) 


 irot  :  45
 --------------------------------------------------------------------
 isymop:   0   0   1
          -1  -1  -1
           1   0   0

 gtrans:     0.0000000     0.5000000     0.0000000

 ptrans:     0.0000000     0.0000000     0.0000000
 rotmap:
 (   1->   1)  (   2->   2) 


 irot  :  46
 --------------------------------------------------------------------
 isymop:   0   0  -1
           1   1   1
          -1   0   0

 gtrans:     0.0000000     0.5000000     0.0000000

 ptrans:     0.0000000     0.0000000     0.0000000
 rotmap:
 (   1->   2)  (   2->   1) 


 irot  :  47
 --------------------------------------------------------------------
 isymop:   0   1   0
          -1  -1  -1
           0   0   1

 gtrans:     0.0000000     0.5000000     0.0000000

 ptrans:     0.0000000     0.0000000     0.0000000
 rotmap:
 (   1->   1)  (   2->   2) 


 irot  :  48
 --------------------------------------------------------------------
 isymop:   0  -1   0
           1   1   1
           0   0  -1

 gtrans:     0.0000000     0.5000000     0.0000000

 ptrans:     0.0000000     0.0000000     0.0000000
 rotmap:
 (   1->   2)  (   2->   1) 
 
 
 KPOINTS: pymatgen 4.7.6+ generated KPOINTS with g

Automatic generation of k-mesh.
Space group operators:
 irot       det(A)        alpha          n_x          n_y          n_z        tau_x        tau_y        tau_z
    1     1.000000     0.000000     1.000000     0.000000     0.000000     0.000000     0.000000     0.000000
    2    -1.000000     0.000000     1.000000     0.000000     0.000000     0.000000     0.000000     0.000000
    3     1.000000   120.000000    -0.471404    -0.333333    -0.816497     0.000000     0.000000     0.000000
    4    -1.000000   120.000000    -0.471404    -0.333333    -0.816497     0.000000     0.000000     0.000000
    5     1.000000   120.000000     0.471405     0.333333     0.816497     0.000000     0.000000     0.000000
    6    -1.000000   120.000000     0.471405     0.333333     0.816497     0.000000     0.000000     0.000000
    7     1.000000   180.000000     0.288675     0.816497    -0.500000     0.000000     0.000000     0.000000
    8    -1.000000   180.000000     0.288675     0.816497    -0.500000     0.000000     0.000000     0.000000
    9     1.000000   180.000000     0.577350    -0.816497     0.000000     0.000000     0.000000     0.000000
   10    -1.000000   180.000000     0.577350    -0.816497     0.000000     0.000000     0.000000     0.000000
   11     1.000000   180.000000     0.866025     0.000000    -0.500000     0.000000     0.000000     0.000000
   12    -1.000000   180.000000     0.866025     0.000000    -0.500000     0.000000     0.000000     0.000000
   13     1.000000    90.000000    -0.816497    -0.577350    -0.000000     0.500000     0.000000     0.000000
   14    -1.000000    90.000000    -0.816497    -0.577350    -0.000000     0.500000     0.000000     0.000000
   15     1.000000   180.000000     0.866025     0.000000     0.500000     0.500000     0.000000     0.000000
   16    -1.000000   180.000000     0.866025     0.000000     0.500000     0.500000     0.000000     0.000000
   17     1.000000    90.000000     0.408248    -0.577350     0.707107     0.500000     0.000000     0.000000
   18    -1.000000    90.000000     0.408248    -0.577350     0.707107     0.500000     0.000000     0.000000
   19     1.000000   180.000000     0.816497     0.577350     0.000000     0.000000     0.000000     0.500000
   20    -1.000000   180.000000     0.816497     0.577350     0.000000     0.000000     0.000000     0.500000
   21     1.000000   120.000000     0.942809    -0.333333     0.000000     0.000000     0.000000     0.500000
   22    -1.000000   120.000000     0.942809    -0.333333     0.000000     0.000000     0.000000     0.500000
   23     1.000000   120.000000    -0.000000    -1.000000    -0.000000     0.000000     0.000000     0.500000
   24    -1.000000   120.000000    -0.000000    -1.000000    -0.000000     0.000000     0.000000     0.500000
   25     1.000000    90.000000     0.816496     0.577350     0.000000     0.000000     0.500000     0.000000
   26    -1.000000    90.000000     0.816496     0.577350     0.000000     0.000000     0.500000     0.000000
   27     1.000000    90.000000     0.408249    -0.577350    -0.707107     0.000000     0.500000     0.000000
   28    -1.000000    90.000000     0.408249    -0.577350    -0.707107     0.000000     0.500000     0.000000
   29     1.000000   180.000000     0.288675     0.816497     0.500000     0.000000     0.500000     0.000000
   30    -1.000000   180.000000     0.288675     0.816497     0.500000     0.000000     0.500000     0.000000
   31     1.000000   120.000000    -0.000000     1.000000    -0.000000     0.500000     0.000000     0.000000
   32    -1.000000   120.000000    -0.000000     1.000000    -0.000000     0.500000     0.000000     0.000000
   33     1.000000   120.000000     0.471405     0.333333    -0.816497     0.500000     0.000000     0.000000
   34    -1.000000   120.000000     0.471405     0.333333    -0.816497     0.500000     0.000000     0.000000
   35     1.000000   180.000000    -0.408248     0.577350     0.707107     0.500000     0.000000     0.000000
   36    -1.000000   180.000000    -0.408248     0.577350     0.707107     0.500000     0.000000     0.000000
   37     1.000000    90.000000    -0.408248     0.577350    -0.707107     0.000000     0.000000     0.500000
   38    -1.000000    90.000000    -0.408248     0.577350    -0.707107     0.000000     0.000000     0.500000
   39     1.000000   180.000000    -0.000000    -0.000000     1.000000     0.000000     0.000000     0.500000
   40    -1.000000   180.000000    -0.000000    -0.000000     1.000000     0.000000     0.000000     0.500000
   41     1.000000    90.000000    -0.408248     0.577350     0.707107     0.000000     0.000000     0.500000
   42    -1.000000    90.000000    -0.408248     0.577350     0.707107     0.000000     0.000000     0.500000
   43     1.000000   120.000000    -0.942809     0.333333     0.000000     0.000000     0.500000     0.000000
   44    -1.000000   120.000000    -0.942809     0.333333     0.000000     0.000000     0.500000     0.000000
   45     1.000000   180.000000    -0.408248     0.577350    -0.707107     0.000000     0.500000     0.000000
   46    -1.000000   180.000000    -0.408248     0.577350    -0.707107     0.000000     0.500000     0.000000
   47     1.000000   120.000000    -0.471405    -0.333333     0.816497     0.000000     0.500000     0.000000
   48    -1.000000   120.000000    -0.471405    -0.333333     0.816497     0.000000     0.500000     0.000000
 
 Subroutine IBZKPT returns following result:
 ===========================================
 
 Found     29 irreducible k-points:
 
 Following reciprocal coordinates:
            Coordinates               Weight
  0.000000  0.000000  0.000000      1.000000
  0.125000  0.000000  0.000000      8.000000
  0.250000  0.000000  0.000000      8.000000
  0.375000  0.000000  0.000000      8.000000
  0.500000  0.000000  0.000000      4.000000
  0.125000  0.125000  0.000000      6.000000
  0.250000  0.125000  0.000000     24.000000
  0.375000  0.125000  0.000000     24.000000
  0.500000  0.125000  0.000000     24.000000
 -0.375000  0.125000  0.000000     24.000000
 -0.250000  0.125000  0.000000     24.000000
 -0.125000  0.125000  0.000000     12.000000
  0.250000  0.250000  0.000000      6.000000
  0.375000  0.250000  0.000000     24.000000
  0.500000  0.250000  0.000000     24.000000
 -0.375000  0.250000  0.000000     24.000000
 -0.250000  0.250000  0.000000     12.000000
  0.375000  0.375000  0.000000      6.000000
  0.500000  0.375000  0.000000     24.000000
 -0.375000  0.375000  0.000000     12.000000
  0.500000  0.500000  0.000000      3.000000
  0.375000  0.250000  0.125000     24.000000
  0.500000  0.250000  0.125000     48.000000
 -0.375000  0.250000  0.125000     24.000000
  0.500000  0.375000  0.125000     24.000000
 -0.375000  0.375000  0.125000     48.000000
 -0.250000  0.375000  0.125000     24.000000
 -0.375000  0.500000  0.125000     12.000000
 -0.250000  0.500000  0.250000      6.000000
 
 Following cartesian coordinates:
            Coordinates               Weight
  0.000000  0.000000  0.000000      1.000000
  0.037588 -0.013290  0.000000      8.000000
  0.075177 -0.026579  0.000000      8.000000
  0.112765 -0.039869  0.000000      8.000000
  0.150354 -0.053158  0.000000      4.000000
  0.037588  0.026579  0.000000      6.000000
  0.075177  0.013290  0.000000     24.000000
  0.112765  0.000000  0.000000     24.000000
  0.150354 -0.013290  0.000000     24.000000
 -0.112765  0.079737  0.000000     24.000000
 -0.075177  0.066448  0.000000     24.000000
 -0.037588  0.053158  0.000000     12.000000
  0.075177  0.053158  0.000000      6.000000
  0.112765  0.039869  0.000000     24.000000
  0.150354  0.026579  0.000000     24.000000
 -0.112765  0.119606  0.000000     24.000000
 -0.075177  0.106316  0.000000     12.000000
  0.112765  0.079737  0.000000      6.000000
  0.150354  0.066448  0.000000     24.000000
 -0.112765  0.159474  0.000000     12.000000
  0.150354  0.106316  0.000000      3.000000
  0.093971  0.026579  0.032553     24.000000
  0.131560  0.013290  0.032553     48.000000
 -0.131560  0.106316  0.032553     24.000000
  0.131560  0.053158  0.032553     24.000000
 -0.131560  0.146185  0.032553     48.000000
 -0.093971  0.132895  0.032553     24.000000
 -0.131560  0.186053  0.032553     12.000000
 -0.112765  0.159474  0.065105      6.000000
 


--------------------------------------------------------------------------------------------------------




 Dimension of arrays:
   k-points           NKPTS =     29   k-points in BZ     NKDIM =     29   number of bands    NBANDS=     24
   number of dos      NEDOS =    301   number of ions     NIONS =      2
   non local maximal  LDIM  =      4   non local SUM 2l+1 LMDIM =      8
   total plane-waves  NPLWV =  13824
   max r-space proj   IRMAX =      1   max aug-charges    IRDMAX=  11743
   dimension x,y,z NGX =    24 NGY =   24 NGZ =   24
   dimension x,y,z NGXF=    48 NGYF=   48 NGZF=   48
   support grid    NGXF=    48 NGYF=   48 NGZF=   48
   ions per type =               2
 NGX,Y,Z   is equivalent  to a cutoff of  10.39, 10.39, 10.39 a.u.
 NGXF,Y,Z  is equivalent  to a cutoff of  20.78, 20.78, 20.78 a.u.


 I would recommend the setting:
   dimension x,y,z NGX =    21 NGY =   21 NGZ =   21
 SYSTEM =  unknown system                          
 POSCAR =  Si2                                     

 Startparameter for this run:
   NWRITE =      2    write-flag & timer
   PREC   = normal    normal or accurate (medium, high low for compatibility)
   ISTART =      0    job   : 0-new  1-cont  2-samecut
   ICHARG =      2    charge: 1-file 2-atom 10-const
   ISPIN  =      1    spin polarized calculation?
   LNONCOLLINEAR =      F non collinear calculations
   LSORBIT =      F    spin-orbit coupling
   INIWAV =      1    electr: 0-lowe 1-rand  2-diag
   LASPH  =      F    aspherical Exc in radial PAW
   METAGGA=      F    non-selfconsistent MetaGGA calc.

 Electronic Relaxation 1
   ENCUT  =  500.0 eV  36.75 Ry    6.06 a.u.   7.00  7.00  7.00*2*pi/ulx,y,z
   ENINI  =  500.0     initial cutoff
   ENAUG  =  322.1 eV  augmentation charge cutoff
   NELM   =     60;   NELMIN=  2; NELMDL= -5     # of ELM steps 
   EDIFF  = 0.1E-05   stopping-criterion for ELM
   LREAL  =      F    real-space projection
   NLSPLINE    = F    spline interpolate recip. space projectors
   LCOMPAT=      F    compatible to vasp.4.4
   GGA_COMPAT  = T    GGA compatible to vasp.4.4-vasp.4.6
   LMAXPAW     = -100 max onsite density
   LMAXMIX     =    2 max onsite mixed and CHGCAR
   VOSKOWN=      0    Vosko Wilk Nusair interpolation
   ROPT   =    0.00000
 Ionic relaxation
   EDIFFG = -.5E-01   stopping-criterion for IOM
   NSW    =      0    number of steps for IOM
   NBLOCK =      1;   KBLOCK =      1    inner block; outer block 
   IBRION =     -1    ionic relax: 0-MD 1-quasi-New 2-CG
   NFREE  =      1    steps in history (QN), initial steepest desc. (CG)
   ISIF   =      2    stress and relaxation
   IWAVPR =     10    prediction:  0-non 1-charg 2-wave 3-comb
   ISYM   =      2    0-nonsym 1-usesym 2-fastsym
   LCORR  =      T    Harris-Foulkes like correction to forces

   POTIM  = 0.5000    time-step for ionic-motion
   TEIN   =    0.0    initial temperature
   TEBEG  =    0.0;   TEEND  =   0.0 temperature during run
   SMASS  =  -3.00    Nose mass-parameter (am)
   estimated Nose-frequenzy (Omega)   =  0.10E-29 period in steps =****** mass=  -0.337E-27a.u.
   SCALEE = 1.0000    scale energy and forces
   NPACO  =    256;   APACO  = 16.0  distance and # of slots for P.C.
   PSTRESS=    0.0 pullay stress

  Mass of Ions in am
   POMASS =  28.09
  Ionic Valenz
   ZVAL   =   4.00
  Atomic Wigner-Seitz radii
   RWIGS  =  -1.00
  virtual crystal weights 
   VCA    =   1.00
   NELECT =       8.0000    total number of electrons
   NUPDOWN=      -1.0000    fix difference up-down

 DOS related values:
   EMIN   =  10.00;   EMAX   =-10.00  energy-range for DOS
   EFERMI =   0.00
   ISMEAR =     0;   SIGMA  =   0.05  broadening in eV -4-tet -1-fermi 0-gaus

 Electronic relaxation 2 (details)
   IALGO  =     38    algorithm
   LDIAG  =      T    sub-space diagonalisation (order eigenvalues)
   LSUBROT=      T    optimize rotation matrix (better conditioning)
   TURBO    =      0    0=normal 1=particle mesh
   IRESTART =      0    0=no restart 2=restart with 2 vectors
   NREBOOT  =      0    no. of reboots
   NMIN     =      0    reboot dimension
   EREF     =   0.00    reference energy to select bands
   IMIX   =      4    mixing-type and parameters
     AMIX     =   0.20;   BMIX     =  1.00
     AMIX_MAG =   0.80;   BMIX_MAG =  1.00
     AMIN     =   0.10
     WC   =   100.;   INIMIX=   1;  MIXPRE=   1;  MAXMIX= -45

 Intra band minimization:
   WEIMIN = 0.0000     energy-eigenvalue tresh-hold
   EBREAK =  0.10E-07  absolut break condition
   DEPER  =   0.30     relativ break condition  

   TIME   =   0.40     timestep for ELM

  volume/ion in A,a.u.               =      20.02       135.09
  Fermi-wavevector in a.u.,A,eV,Ry     =   0.957088  1.808633 12.463161  0.916017
  Thomas-Fermi vector in A             =   2.086074
 
 Write flags
   LWAVE  =      T    write WAVECAR
   LCHARG =      T    write CHGCAR
   LVTOT  =      F    write LOCPOT, total local potential
   LVHAR  =      F    write LOCPOT, Hartree potential only
   LELF   =      F    write electronic localiz. function (ELF)
   LORBIT =     10    0 simple, 1 ext, 2 COOP (PROOUT)


 Dipole corrections
   LMONO  =      F    monopole corrections only (constant potential shift)
   LDIPOL =      F    correct potential (dipole corrections)
   IDIPOL =      0    1-x, 2-y, 3-z, 4-all directions 
   EPSILON=  1.0000000 bulk dielectric constant

 Exchange correlation treatment:
   GGA     =    --    GGA type
   LEXCH   =     8    internal setting for exchange type
   VOSKOWN=      0    Vosko Wilk Nusair interpolation
   LHFCALC =     F    Hartree Fock is set to
   LHFONE  =     F    Hartree Fock one center treatment
   AEXX    =    0.0000 exact exchange contribution

 Linear response parameters
   LEPSILON=     F    determine dielectric tensor
   LRPA    =     F    only Hartree local field effects (RPA)
   LNABLA  =     F    use nabla operator in PAW spheres
   LVEL    =     F    velocity operator in full k-point grid
   LINTERFAST=   F  fast interpolation
   KINTER  =     0    interpolate to denser k-point grid
   CSHIFT  =0.1000    complex shift for real part using Kramers Kronig
   OMEGAMAX=  -1.0    maximum frequency
   DEG_THRESHOLD= 0.2000000E-02 threshold for treating states as degnerate
   RTIME   =    0.100 relaxation time in fs

 Orbital magnetization related:
   ORBITALMAG=     F  switch on orbital magnetization
   LCHIMAG   =     F  perturbation theory with respect to B field
   DQ        =  0.001000  dq finite difference perturbation B field



--------------------------------------------------------------------------------------------------------


 Static calculation
 charge density and potential will be updated during run
 non-spin polarized calculation
 Variant of blocked Davidson
 Davidson routine will perform the subspace rotation
 perform sub-space diagonalisation
    after iterative eigenvector-optimisation
 modified Broyden-mixing scheme, WC =      100.0
 initial mixing is a Kerker type mixing with AMIX =  0.2000 and BMIX =      1.0000
 Hartree-type preconditioning will be used
 using additional bands           20
 reciprocal scheme for non local part
 use partial core corrections
 calculate Harris-corrections to forces 
   (improved forces if not selfconsistent)
 use gradient corrections 
 use of overlap-Matrix (Vanderbilt PP)
 Gauss-broadening in eV      SIGMA  =   0.05


--------------------------------------------------------------------------------------------------------


  energy-cutoff  :      500.00
  volume of cell :       40.04
      direct lattice vectors                 reciprocal lattice vectors
     3.325489000  0.000000000  1.919972000     0.300707655 -0.106316182  0.000000000
     1.108496000  3.135301000  1.919972000     0.000000000  0.318948643  0.000000000
     0.000000000  0.000000000  3.839943000    -0.150353867 -0.106316258  0.260420532

  length of vectors
     3.839943954  3.839943779  3.839943000     0.318948624  0.318948643  0.318948719


 
 k-points in units of 2pi/SCALE and weight: pymatgen 4.7.6+ generated KPOINTS with g
   0.00000000  0.00000000  0.00000000       0.002
   0.03758846 -0.01328952  0.00000000       0.016
   0.07517691 -0.02657905  0.00000000       0.016
   0.11276537 -0.03986857  0.00000000       0.016
   0.15035383 -0.05315809  0.00000000       0.008
   0.03758846  0.02657906  0.00000000       0.012
   0.07517691  0.01328953  0.00000000       0.047
   0.11276537  0.00000001  0.00000000       0.047
   0.15035383 -0.01328951  0.00000000       0.047
  -0.11276537  0.07973715  0.00000000       0.047
  -0.07517691  0.06644763  0.00000000       0.047
  -0.03758846  0.05315810  0.00000000       0.023
   0.07517691  0.05315812  0.00000000       0.012
   0.11276537  0.03986859  0.00000000       0.047
   0.15035383  0.02657907  0.00000000       0.047
  -0.11276537  0.11960573  0.00000000       0.047
  -0.07517691  0.10631621  0.00000000       0.023
   0.11276537  0.07973717  0.00000000       0.012
   0.15035383  0.06644765  0.00000000       0.047
  -0.11276537  0.15947431  0.00000000       0.023
   0.15035383  0.10631623  0.00000000       0.006
   0.09397114  0.02657906  0.03255257       0.047
   0.13155959  0.01328954  0.03255257       0.094
  -0.13155960  0.10631620  0.03255257       0.047
   0.13155959  0.05315812  0.03255257       0.047
  -0.13155960  0.14618478  0.03255257       0.094
  -0.09397115  0.13289525  0.03255257       0.047
  -0.13155960  0.18605336  0.03255257       0.023
  -0.11276538  0.15947430  0.06510513       0.012
 
 k-points in reciprocal lattice and weights: pymatgen 4.7.6+ generated KPOINTS with g
   0.00000000  0.00000000  0.00000000       0.002
   0.12500000  0.00000000  0.00000000       0.016
   0.25000000  0.00000000  0.00000000       0.016
   0.37500000  0.00000000  0.00000000       0.016
   0.50000000  0.00000000  0.00000000       0.008
   0.12500000  0.12500000  0.00000000       0.012
   0.25000000  0.12500000  0.00000000       0.047
   0.37500000  0.12500000  0.00000000       0.047
   0.50000000  0.12500000  0.00000000       0.047
  -0.37500000  0.12500000  0.00000000       0.047
  -0.25000000  0.12500000  0.00000000       0.047
  -0.12500000  0.12500000  0.00000000       0.023
   0.25000000  0.25000000  0.00000000       0.012
   0.37500000  0.25000000  0.00000000       0.047
   0.50000000  0.25000000  0.00000000       0.047
  -0.37500000  0.25000000  0.00000000       0.047
  -0.25000000  0.25000000  0.00000000       0.023
   0.37500000  0.37500000  0.00000000       0.012
   0.50000000  0.37500000  0.00000000       0.047
  -0.37500000  0.37500000  0.00000000       0.023
   0.50000000  0.50000000  0.00000000       0.006
   0.37500000  0.25000000  0.12500000       0.047
   0.50000000  0.25000000  0.12500000       0.094
  -0.37500000  0.25000000  0.12500000       0.047
   0.50000000  0.37500000  0.12500000       0.047
  -0.37500000  0.37500000  0.12500000       0.094
  -0.25000000  0.37500000  0.12500000       0.047
  -0.37500000  0.50000000  0.12500000       0.023
  -0.25000000  0.50000000  0.25000000       0.012
 
 position of ions in fractional coordinates (direct lattice) 
   0.87500000  0.87500000  0.87500000
   0.12500000  0.12500000  0.12500000
 
 position of ions in cartesian coordinates  (Angst):
   3.87973687  2.74338838  6.71990112
   0.55424812  0.39191263  0.95998587
 


--------------------------------------------------------------------------------------------------------


 k-point  1 :   0.0000 0.0000 0.0000  plane waves:     965
 k-point  2 :   0.1250 0.0000 0.0000  plane waves:     989
 k-point  3 :   0.2500 0.0000 0.0000  plane waves:    1001
 k-point  4 :   0.3750 0.0000 0.0000  plane waves:    1017
 k-point  5 :   0.5000 0.0000 0.0000  plane waves:    1008
 k-point  6 :   0.1250 0.1250 0.0000  plane waves:     994
 k-point  7 :   0.2500 0.1250 0.0000  plane waves:    1002
 k-point  8 :   0.3750 0.1250 0.0000  plane waves:    1004
 k-point  9 :   0.5000 0.1250 0.0000  plane waves:    1015
 k-point 10 :  -0.3750 0.1250 0.0000  plane waves:    1016
 k-point 11 :  -0.2500 0.1250 0.0000  plane waves:    1008
 k-point 12 :  -0.1250 0.1250 0.0000  plane waves:     997
 k-point 13 :   0.2500 0.2500 0.0000  plane waves:     998
 k-point 14 :   0.3750 0.2500 0.0000  plane waves:    1021
 k-point 15 :   0.5000 0.2500 0.0000  plane waves:    1014
 k-point 16 :  -0.3750 0.2500 0.0000  plane waves:    1009
 k-point 17 :  -0.2500 0.2500 0.0000  plane waves:    1019
 k-point 18 :   0.3750 0.3750 0.0000  plane waves:    1026
 k-point 19 :   0.5000 0.3750 0.0000  plane waves:    1011
 k-point 20 :  -0.3750 0.3750 0.0000  plane waves:    1011
 k-point 21 :   0.5000 0.5000 0.0000  plane waves:    1034
 k-point 22 :   0.3750 0.2500 0.1250  plane waves:    1019
 k-point 23 :   0.5000 0.2500 0.1250  plane waves:    1018
 k-point 24 :  -0.3750 0.2500 0.1250  plane waves:    1034
 k-point 25 :   0.5000 0.3750 0.1250  plane waves:    1026
 k-point 26 :  -0.3750 0.3750 0.1250  plane waves:    1019
 k-point 27 :  -0.2500 0.3750 0.1250  plane waves:    1017
 k-point 28 :  -0.3750 0.5000 0.1250  plane waves:    1012
 k-point 29 :  -0.2500 0.5000 0.2500  plane waves:    1036

 maximum and minimum number of plane-waves per node :      1036      965

 maximum number of plane-waves:      1036
 maximum index in each direction: 
   IXMAX=    7   IYMAX=    6   IZMAX=    7
   IXMIN=   -7   IYMIN=   -7   IZMIN=   -7

 WARNING: aliasing errors must be expected set NGX to  30 to avoid them
 WARNING: aliasing errors must be expected set NGY to  28 to avoid them
 WARNING: aliasing errors must be expected set NGZ to  30 to avoid them
 aliasing errors are usually negligible using standard VASP settings
 and one can safely disregard these warnings

 serial   3D FFT for wavefunctions
 parallel 3D FFT for charge:
    minimum data exchange during FFTs selected (reduces bandwidth)


 total amount of memory used by VASP on root node    33510. kBytes
========================================================================

   base      :      30000. kBytes
   nonl-proj :       1993. kBytes
   fftplans  :        221. kBytes
   grid      :        789. kBytes
   one-center:          6. kBytes
   wavefun   :        501. kBytes
 
 Broyden mixing: mesh for mixing (old mesh)
   NGX = 13   NGY = 13   NGZ = 13
  (NGX  = 48   NGY  = 48   NGZ  = 48)
  gives a total of   2197 points

 initial charge density was supplied:
 charge density of overlapping atoms calculated
 number of electron       8.0000000 magnetization 
 keeping initial charge density in first step


--------------------------------------------------------------------------------------------------------


 Maximum index for augmentation-charges          463 (set IRDMAX)


--------------------------------------------------------------------------------------------------------


 First call to EWALD:  gamma=   0.518
 Maximum number of real-space cells 3x 3x 3
 Maximum number of reciprocal cells 3x 3x 3

 FEWALD executed in parallel
    FEWALD:  cpu time    0.00: real time    0.00


----------------------------------------- Iteration    1(   1)  ---------------------------------------


    POTLOK:  cpu time    0.01: real time    0.02
    SETDIJ:  cpu time    0.00: real time    0.00
     EDDAV:  cpu time    0.16: real time    0.35
       DOS:  cpu time    0.00: real time    0.00
    --------------------------------------------
      LOOP:  cpu time    0.18: real time    0.37

 eigenvalue-minimisations  :  1392
 total energy-change (2. order) :-0.4402601E+01  (-0.3324423E+03)
 number of electron       8.0000000 magnetization 
 augmentation part        8.0000000 magnetization 

 Free energy of the ion-electron system (eV)
  ---------------------------------------------------
  alpha Z        PSCENC =         3.36321756
  Ewald energy   TEWEN  =      -228.54246794
  -1/2 Hartree   DENC   =       -11.00523079
  -exchange  EXHF       =         0.00000000
  -V(xc)+E(xc)   XCENC  =       -18.60295306
  PAW double counting   =       176.24759923     -141.06103558
  entropy T*S    EENTRO =        -0.00015888
  eigenvalues    EBANDS =         9.06591540
  atomic energy  EATOM  =       206.13251344
  ---------------------------------------------------
  free energy    TOTEN  =        -4.40260063 eV

  energy without entropy =       -4.40244175  energy(sigma->0) =       -4.40252119


--------------------------------------------------------------------------------------------------------




----------------------------------------- Iteration    1(   2)  ---------------------------------------


     EDDAV:  cpu time    0.26: real time    0.26
       DOS:  cpu time    0.00: real time    0.00
    --------------------------------------------
      LOOP:  cpu time    0.26: real time    0.26

 eigenvalue-minimisations  :  2088
 total energy-change (2. order) :-0.6600021E+01  (-0.6598167E+01)
 number of electron       8.0000000 magnetization 
 augmentation part        8.0000000 magnetization 

 Free energy of the ion-electron system (eV)
  ---------------------------------------------------
  alpha Z        PSCENC =         3.36321756
  Ewald energy   TEWEN  =      -228.54246794
  -1/2 Hartree   DENC   =       -11.00523079
  -exchange  EXHF       =         0.00000000
  -V(xc)+E(xc)   XCENC  =       -18.60295306
  PAW double counting   =       176.24759923     -141.06103558
  entropy T*S    EENTRO =        -0.00000000
  eigenvalues    EBANDS =         2.46573521
  atomic energy  EATOM  =       206.13251344
  ---------------------------------------------------
  free energy    TOTEN  =       -11.00262193 eV

  energy without entropy =      -11.00262193  energy(sigma->0) =      -11.00262193


--------------------------------------------------------------------------------------------------------




----------------------------------------- Iteration    1(   3)  ---------------------------------------


     EDDAV:  cpu time    0.20: real time    0.20
       DOS:  cpu time    0.00: real time    0.00
    --------------------------------------------
      LOOP:  cpu time    0.20: real time    0.20

 eigenvalue-minimisations  :  1440
 total energy-change (2. order) :-0.1919514E-01  (-0.1919514E-01)
 number of electron       8.0000000 magnetization 
 augmentation part        8.0000000 magnetization 

 Free energy of the ion-electron system (eV)
  ---------------------------------------------------
  alpha Z        PSCENC =         3.36321756
  Ewald energy   TEWEN  =      -228.54246794
  -1/2 Hartree   DENC   =       -11.00523079
  -exchange  EXHF       =         0.00000000
  -V(xc)+E(xc)   XCENC  =       -18.60295306
  PAW double counting   =       176.24759923     -141.06103558
  entropy T*S    EENTRO =        -0.00000000
  eigenvalues    EBANDS =         2.44654007
  atomic energy  EATOM  =       206.13251344
  ---------------------------------------------------
  free energy    TOTEN  =       -11.02181707 eV

  energy without entropy =      -11.02181707  energy(sigma->0) =      -11.02181707


--------------------------------------------------------------------------------------------------------




----------------------------------------- Iteration    1(   4)  ---------------------------------------


     EDDAV:  cpu time    0.39: real time    0.39
       DOS:  cpu time    0.00: real time    0.00
    --------------------------------------------
      LOOP:  cpu time    0.39: real time    0.45

 eigenvalue-minimisations  :  2616
 total energy-change (2. order) :-0.2917391E-04  (-0.2917391E-04)
 number of electron       8.0000000 magnetization 
 augmentation part        8.0000000 magnetization 

 Free energy of the ion-electron system (eV)
  ---------------------------------------------------
  alpha Z        PSCENC =         3.36321756
  Ewald energy   TEWEN  =      -228.54246794
  -1/2 Hartree   DENC   =       -11.00523079
  -exchange  EXHF       =         0.00000000
  -V(xc)+E(xc)   XCENC  =       -18.60295306
  PAW double counting   =       176.24759923     -141.06103558
  entropy T*S    EENTRO =        -0.00000000
  eigenvalues    EBANDS =         2.44651090
  atomic energy  EATOM  =       206.13251344
  ---------------------------------------------------
  free energy    TOTEN  =       -11.02184625 eV

  energy without entropy =      -11.02184625  energy(sigma->0) =      -11.02184625


--------------------------------------------------------------------------------------------------------




----------------------------------------- Iteration    1(   5)  ---------------------------------------


     EDDAV:  cpu time    0.15: real time    0.15
       DOS:  cpu time    0.00: real time    0.00
    CHARGE:  cpu time    0.01: real time    0.02
    MIXING:  cpu time    0.00: real time    0.00
    --------------------------------------------
      LOOP:  cpu time    0.17: real time    0.17

 eigenvalue-minimisations  :  1440
 total energy-change (2. order) :-0.2200409E-09  (-0.2200582E-09)
 number of electron       7.9999998 magnetization 
 augmentation part       -0.4705939 magnetization 

 Broyden mixing:
  rms(total) = 0.48842E+00    rms(broyden)= 0.48842E+00
  rms(prec ) = 0.95535E+00
  weight for this iteration     100.00

 Free energy of the ion-electron system (eV)
  ---------------------------------------------------
  alpha Z        PSCENC =         3.36321756
  Ewald energy   TEWEN  =      -228.54246794
  -1/2 Hartree   DENC   =       -11.00523079
  -exchange  EXHF       =         0.00000000
  -V(xc)+E(xc)   XCENC  =       -18.60295306
  PAW double counting   =       176.24759923     -141.06103558
  entropy T*S    EENTRO =        -0.00000000
  eigenvalues    EBANDS =         2.44651090
  atomic energy  EATOM  =       206.13251344
  ---------------------------------------------------
  free energy    TOTEN  =       -11.02184625 eV

  energy without entropy =      -11.02184625  energy(sigma->0) =      -11.02184625


--------------------------------------------------------------------------------------------------------




----------------------------------------- Iteration    1(   6)  ---------------------------------------


    POTLOK:  cpu time    0.01: real time    0.01
    SETDIJ:  cpu time    0.00: real time    0.00
     EDDAV:  cpu time    0.27: real time    0.27
       DOS:  cpu time    0.00: real time    0.00
    CHARGE:  cpu time    0.01: real time    0.01
    MIXING:  cpu time    0.00: real time    0.00
    --------------------------------------------
      LOOP:  cpu time    0.29: real time    0.29

 eigenvalue-minimisations  :  2088
 total energy-change (2. order) : 0.7018370E-01  (-0.2069222E-02)
 number of electron       7.9999999 magnetization 
 augmentation part       -0.4676184 magnetization 

 Broyden mixing:
  rms(total) = 0.39377E+00    rms(broyden)= 0.39377E+00
  rms(prec ) = 0.76137E+00
  weight for this iteration     100.00

 eigenvalues of (default mixing * dielectric matrix)
  average eigenvalue GAMMA=   5.1443
  5.1443

 Free energy of the ion-electron system (eV)
  ---------------------------------------------------
  alpha Z        PSCENC =         3.36321756
  Ewald energy   TEWEN  =      -228.54246794
  -1/2 Hartree   DENC   =       -11.73133800
  -exchange  EXHF       =         0.00000000
  -V(xc)+E(xc)   XCENC  =       -18.48815682
  PAW double counting   =       266.07895845     -230.94723415
  entropy T*S    EENTRO =        -0.00000000
  eigenvalues    EBANDS =         3.18284492
  atomic energy  EATOM  =       206.13251344
  ---------------------------------------------------
  free energy    TOTEN  =       -10.95166255 eV

  energy without entropy =      -10.95166255  energy(sigma->0) =      -10.95166255


--------------------------------------------------------------------------------------------------------




----------------------------------------- Iteration    1(   7)  ---------------------------------------


    POTLOK:  cpu time    0.00: real time    0.00
    SETDIJ:  cpu time    0.00: real time    0.00
     EDDAV:  cpu time    0.32: real time    0.32
       DOS:  cpu time    0.00: real time    0.00
    CHARGE:  cpu time    0.01: real time    0.01
    MIXING:  cpu time    0.00: real time    0.00
    --------------------------------------------
      LOOP:  cpu time    0.33: real time    0.33

 eigenvalue-minimisations  :  1872
 total energy-change (2. order) : 0.1122788E+00  (-0.3032389E-01)
 number of electron       7.9999999 magnetization 
 augmentation part       -0.4574497 magnetization 

 Broyden mixing:
  rms(total) = 0.26054E-01    rms(broyden)= 0.26054E-01
  rms(prec ) = 0.55913E-01
  weight for this iteration     100.00

 eigenvalues of (default mixing * dielectric matrix)
  average eigenvalue GAMMA=   3.6614
  2.6260  4.6969

 Free energy of the ion-electron system (eV)
  ---------------------------------------------------
  alpha Z        PSCENC =         3.36321756
  Ewald energy   TEWEN  =      -228.54246794
  -1/2 Hartree   DENC   =       -14.98757472
  -exchange  EXHF       =         0.00000000
  -V(xc)+E(xc)   XCENC  =       -17.97162675
  PAW double counting   =       856.82405658     -821.90397808
  entropy T*S    EENTRO =        -0.00000000
  eigenvalues    EBANDS =         6.24647616
  atomic energy  EATOM  =       206.13251344
  ---------------------------------------------------
  free energy    TOTEN  =       -10.83938376 eV

  energy without entropy =      -10.83938376  energy(sigma->0) =      -10.83938376


--------------------------------------------------------------------------------------------------------




----------------------------------------- Iteration    1(   8)  ---------------------------------------


    POTLOK:  cpu time    0.01: real time    0.01
    SETDIJ:  cpu time    0.00: real time    0.00
     EDDAV:  cpu time    0.23: real time    0.23
       DOS:  cpu time    0.00: real time    0.00
    CHARGE:  cpu time    0.01: real time    0.01
    MIXING:  cpu time    0.00: real time    0.00
    --------------------------------------------
      LOOP:  cpu time    0.25: real time    0.25

 eigenvalue-minimisations  :  1584
 total energy-change (2. order) :-0.7884526E-03  (-0.3135681E-03)
 number of electron       7.9999999 magnetization 
 augmentation part       -0.4581949 magnetization 

 Broyden mixing:
  rms(total) = 0.15413E-01    rms(broyden)= 0.15413E-01
  rms(prec ) = 0.29774E-01
  weight for this iteration     100.00

 eigenvalues of (default mixing * dielectric matrix)
  average eigenvalue GAMMA=   3.9141
  6.1594  4.2132  1.3699

 Free energy of the ion-electron system (eV)
  ---------------------------------------------------
  alpha Z        PSCENC =         3.36321756
  Ewald energy   TEWEN  =      -228.54246794
  -1/2 Hartree   DENC   =       -14.85981198
  -exchange  EXHF       =         0.00000000
  -V(xc)+E(xc)   XCENC  =       -17.98088538
  PAW double counting   =       858.59124295     -823.64261805
  entropy T*S    EENTRO =        -0.00000000
  eigenvalues    EBANDS =         6.09863720
  atomic energy  EATOM  =       206.13251344
  ---------------------------------------------------
  free energy    TOTEN  =       -10.84017221 eV

  energy without entropy =      -10.84017221  energy(sigma->0) =      -10.84017221


--------------------------------------------------------------------------------------------------------




----------------------------------------- Iteration    1(   9)  ---------------------------------------


    POTLOK:  cpu time    0.01: real time    0.01
    SETDIJ:  cpu time    0.00: real time    0.00
     EDDAV:  cpu time    0.34: real time    0.34
       DOS:  cpu time    0.00: real time    0.00
    CHARGE:  cpu time    0.01: real time    0.01
    MIXING:  cpu time    0.00: real time    0.00
    --------------------------------------------
      LOOP:  cpu time    0.35: real time    0.36

 eigenvalue-minimisations  :  2064
 total energy-change (2. order) :-0.6779160E-03  (-0.8588012E-04)
 number of electron       7.9999999 magnetization 
 augmentation part       -0.4586690 magnetization 

 Broyden mixing:
  rms(total) = 0.10807E-01    rms(broyden)= 0.10807E-01
  rms(prec ) = 0.11912E-01
  weight for this iteration     100.00

 eigenvalues of (default mixing * dielectric matrix)
  average eigenvalue GAMMA=   3.1811
  5.6672  4.1830  2.1191  0.7551

 Free energy of the ion-electron system (eV)
  ---------------------------------------------------
  alpha Z        PSCENC =         3.36321756
  Ewald energy   TEWEN  =      -228.54246794
  -1/2 Hartree   DENC   =       -14.91709602
  -exchange  EXHF       =         0.00000000
  -V(xc)+E(xc)   XCENC  =       -17.96295071
  PAW double counting   =       890.74341659     -855.78073963
  entropy T*S    EENTRO =        -0.00000000
  eigenvalues    EBANDS =         6.12325660
  atomic energy  EATOM  =       206.13251344
  ---------------------------------------------------
  free energy    TOTEN  =       -10.84085013 eV

  energy without entropy =      -10.84085013  energy(sigma->0) =      -10.84085013


--------------------------------------------------------------------------------------------------------




----------------------------------------- Iteration    1(  10)  ---------------------------------------


    POTLOK:  cpu time    0.01: real time    0.01
    SETDIJ:  cpu time    0.00: real time    0.00
     EDDAV:  cpu time    0.23: real time    0.23
       DOS:  cpu time    0.00: real time    0.00
    CHARGE:  cpu time    0.01: real time    0.01
    MIXING:  cpu time    0.00: real time    0.00
    --------------------------------------------
      LOOP:  cpu time    0.26: real time    0.26

 eigenvalue-minimisations  :  1728
 total energy-change (2. order) :-0.6720355E-05  (-0.4972438E-06)
 number of electron       7.9999999 magnetization 
 augmentation part       -0.4586022 magnetization 

 Broyden mixing:
  rms(total) = 0.56953E-02    rms(broyden)= 0.56953E-02
  rms(prec ) = 0.70955E-02
  weight for this iteration     100.00

 eigenvalues of (default mixing * dielectric matrix)
  average eigenvalue GAMMA=   3.4292
  5.9100  5.0021  4.2339  1.0224  0.9773

 Free energy of the ion-electron system (eV)
  ---------------------------------------------------
  alpha Z        PSCENC =         3.36321756
  Ewald energy   TEWEN  =      -228.54246794
  -1/2 Hartree   DENC   =       -14.92068167
  -exchange  EXHF       =         0.00000000
  -V(xc)+E(xc)   XCENC  =       -17.96383639
  PAW double counting   =       880.88632393     -845.92534717
  entropy T*S    EENTRO =        -0.00000000
  eigenvalues    EBANDS =         6.12942141
  atomic energy  EATOM  =       206.13251344
  ---------------------------------------------------
  free energy    TOTEN  =       -10.84085685 eV

  energy without entropy =      -10.84085685  energy(sigma->0) =      -10.84085685


--------------------------------------------------------------------------------------------------------




----------------------------------------- Iteration    1(  11)  ---------------------------------------


    POTLOK:  cpu time    0.01: real time    0.01
    SETDIJ:  cpu time    0.00: real time    0.00
     EDDAV:  cpu time    0.24: real time    0.24
       DOS:  cpu time    0.00: real time    0.00
    CHARGE:  cpu time    0.01: real time    0.01
    MIXING:  cpu time    0.00: real time    0.00
    --------------------------------------------
      LOOP:  cpu time    0.25: real time    0.26

 eigenvalue-minimisations  :  1608
 total energy-change (2. order) :-0.4887391E-04  (-0.6814013E-05)
 number of electron       7.9999999 magnetization 
 augmentation part       -0.4586198 magnetization 

 Broyden mixing:
  rms(total) = 0.62688E-03    rms(broyden)= 0.62688E-03
  rms(prec ) = 0.96051E-03
  weight for this iteration     100.00

 eigenvalues of (default mixing * dielectric matrix)
  average eigenvalue GAMMA=   3.0580
  5.9648  5.1005  4.2725  1.0238  0.9637  1.0225

 Free energy of the ion-electron system (eV)
  ---------------------------------------------------
  alpha Z        PSCENC =         3.36321756
  Ewald energy   TEWEN  =      -228.54246794
  -1/2 Hartree   DENC   =       -14.93076084
  -exchange  EXHF       =         0.00000000
  -V(xc)+E(xc)   XCENC  =       -17.96241795
  PAW double counting   =       869.89109563     -834.92847666
  entropy T*S    EENTRO =        -0.00000000
  eigenvalues    EBANDS =         6.13639105
  atomic energy  EATOM  =       206.13251344
  ---------------------------------------------------
  free energy    TOTEN  =       -10.84090572 eV

  energy without entropy =      -10.84090572  energy(sigma->0) =      -10.84090572


--------------------------------------------------------------------------------------------------------




----------------------------------------- Iteration    1(  12)  ---------------------------------------


    POTLOK:  cpu time    0.01: real time    0.01
    SETDIJ:  cpu time    0.00: real time    0.00
     EDDAV:  cpu time    0.33: real time    0.33
       DOS:  cpu time    0.00: real time    0.00
    --------------------------------------------
      LOOP:  cpu time    0.34: real time    0.34

 eigenvalue-minimisations  :  2208
 total energy-change (2. order) : 0.1257320E-07  (-0.9982304E-08)
 number of electron       7.9999999 magnetization 
 augmentation part       -0.4586198 magnetization 

 Free energy of the ion-electron system (eV)
  ---------------------------------------------------
  alpha Z        PSCENC =         3.36321756
  Ewald energy   TEWEN  =      -228.54246794
  -1/2 Hartree   DENC   =       -14.93072057
  -exchange  EXHF       =         0.00000000
  -V(xc)+E(xc)   XCENC  =       -17.96241653
  PAW double counting   =       869.78000374     -834.81738204
  entropy T*S    EENTRO =        -0.00000000
  eigenvalues    EBANDS =         6.13634664
  atomic energy  EATOM  =       206.13251344
  ---------------------------------------------------
  free energy    TOTEN  =       -10.84090571 eV

  energy without entropy =      -10.84090571  energy(sigma->0) =      -10.84090571


--------------------------------------------------------------------------------------------------------




 average (electrostatic) potential at core
  the test charge radii are     0.9892
  (the norm of the test charge is              1.0000)
       1 -83.2471       2 -83.2471
 
 
 
 E-fermi :   6.1761     XC(G=0):  -9.4091     alpha+bet :-11.9812


 k-point   1 :       0.0000    0.0000    0.0000
  band No.  band energies     occupation 
      1      -6.1303      2.00000
      2       5.8281      2.00000
      3       5.8281      2.00000
      4       5.8281      2.00000
      5       8.3935      0.00000
      6       8.3935      0.00000
      7       8.3935      0.00000
      8       9.2032      0.00000
      9      13.5478      0.00000
     10      13.5478      0.00000
     11      13.7874      0.00000
     12      17.0808      0.00000
     13      17.0808      0.00000
     14      17.0808      0.00000
     15      21.2332      0.00000
     16      28.9340      0.00000
     17      28.9340      0.00000
     18      28.9340      0.00000
     19      30.0363      0.00000
     20      30.0363      0.00000
     21      31.6487      0.00000
     22      31.6487      0.00000
     23      31.6487      0.00000
     24      35.0393      0.00000

 k-point   2 :       0.1250    0.0000    0.0000
  band No.  band energies     occupation 
      1      -5.9261      2.00000
      2       4.2313      2.00000
      3       5.5396      2.00000
      4       5.5396      2.00000
      5       8.3333      0.00000
      6       8.8176      0.00000
      7       8.8176      0.00000
      8      10.5462      0.00000
      9      13.0662      0.00000
     10      13.0662      0.00000
     11      14.5743      0.00000
     12      16.5215      0.00000
     13      18.2444      0.00000
     14      18.2444      0.00000
     15      22.4660      0.00000
     16      26.9098      0.00000
     17      26.9098      0.00000
     18      27.2377      0.00000
     19      29.6913      0.00000
     20      29.6913      0.00000
     21      32.1662      0.00000
     22      32.1662      0.00000
     23      33.0534      0.00000
     24      35.2241      0.00000

 k-point   3 :       0.2500    0.0000    0.0000
  band No.  band energies     occupation 
      1      -5.3304      2.00000
      2       1.9038      2.00000
      3       5.0695      2.00000
      4       5.0695      2.00000
      5       7.8602      0.00000
      6       9.3352      0.00000
      7       9.3352      0.00000
      8      12.7526      0.00000
      9      13.0232      0.00000
     10      13.0232      0.00000
     11      14.8244      0.00000
     12      17.6729      0.00000
     13      20.4723      0.00000
     14      20.4723      0.00000
     15      23.6894      0.00000
     16      23.6894      0.00000
     17      23.8348      0.00000
     18      25.9195      0.00000
     19      29.8697      0.00000
     20      29.8697      0.00000
     21      32.5131      0.00000
     22      32.5131      0.00000
     23      33.7187      0.00000
     24      35.3219      0.00000

 k-point   4 :       0.3750    0.0000    0.0000
  band No.  band energies     occupation 
      1      -4.4366      2.00000
      2      -0.1159      2.00000
      3       4.7429      2.00000
      4       4.7429      2.00000
      5       7.4967      0.00000
      6       9.2797      0.00000
      7       9.2797      0.00000
      8      13.7123      0.00000
      9      14.4101      0.00000
     10      14.4101      0.00000
     11      15.5216      0.00000
     12      19.5868      0.00000
     13      19.5868      0.00000
     14      19.9303      0.00000
     15      22.5050      0.00000
     16      24.3751      0.00000
     17      24.3751      0.00000
     18      28.8310      0.00000
     19      29.7060      0.00000
     20      29.7061      0.00000
     21      29.7168      0.00000
     22      32.6609      0.00000
     23      32.6609      0.00000
     24      34.1997      0.00000

 k-point   5 :       0.5000    0.0000    0.0000
  band No.  band energies     occupation 
      1      -3.7986      2.00000
      2      -1.1383      2.00000
      3       4.6312      2.00000
      4       4.6312      2.00000
      5       7.3687      0.00000
      6       9.1683      0.00000
      7       9.1683      0.00000
      8      13.5569      0.00000
      9      16.3771      0.00000
     10      16.3771      0.00000
     11      17.1727      0.00000
     12      17.1727      0.00000
     13      17.1855      0.00000
     14      18.8597      0.00000
     15      25.2179      0.00000
     16      25.8098      0.00000
     17      27.4836      0.00000
     18      27.4837      0.00000
     19      27.6471      0.00000
     20      27.6471      0.00000
     21      31.5468      0.00000
     22      32.2555      0.00000
     23      32.2555      0.00000
     24      33.3221      0.00000

 k-point   6 :       0.1250    0.1250    0.0000
  band No.  band energies     occupation 
      1      -5.8573      2.00000
      2       4.4964      2.00000
      3       5.0224      2.00000
      4       5.0224      2.00000
      5       7.8416      0.00000
      6       9.5332      0.00000
      7       9.5332      0.00000
      8      10.2328      0.00000
      9      12.3357      0.00000
     10      13.8504      0.00000
     11      14.8749      0.00000
     12      17.5534      0.00000
     13      17.5534      0.00000
     14      18.0397      0.00000
     15      23.0525      0.00000
     16      26.4389      0.00000
     17      26.4389      0.00000
     18      27.6512      0.00000
     19      28.5193      0.00000
     20      29.2971      0.00000
     21      32.3731      0.00000
     22      32.7436      0.00000
     23      32.7436      0.00000
     24      37.0303      0.00000

 k-point   7 :       0.2500    0.1250    0.0000
  band No.  band energies     occupation 
      1      -5.3885      2.00000
      2       2.6067      2.00000
      3       4.5111      2.00000
      4       4.5874      2.00000
      5       7.9774      0.00000
      6       9.5401      0.00000
      7      10.2972      0.00000
      8      10.5786      0.00000
      9      13.3377      0.00000
     10      14.0170      0.00000
     11      15.8583      0.00000
     12      17.4222      0.00000
     13      18.9700      0.00000
     14      20.2370      0.00000
     15      23.4272      0.00000
     16      23.9288      0.00000
     17      25.1006      0.00000
     18      27.3949      0.00000
     19      27.4252      0.00000
     20      28.8833      0.00000
     21      32.1122      0.00000
     22      33.1202      0.00000
     23      34.1145      0.00000
     24      35.7119      0.00000

 k-point   8 :       0.3750    0.1250    0.0000
  band No.  band energies     occupation 
      1      -4.5735      2.00000
      2       0.5465      2.00000
      3       3.9962      2.00000
      4       4.2434      2.00000
      5       8.0768      0.00000
      6       9.4721      0.00000
      7      10.2929      0.00000
      8      11.2957      0.00000
      9      15.1486      0.00000
     10      15.1832      0.00000
     11      15.7872      0.00000
     12      19.2317      0.00000
     13      19.2977      0.00000
     14      21.0292      0.00000
     15      22.5112      0.00000
     16      23.4886      0.00000
     17      24.4473      0.00000
     18      27.7139      0.00000
     19      28.4508      0.00000
     20      29.4304      0.00000
     21      30.6136      0.00000
     22      31.4094      0.00000
     23      33.3733      0.00000
     24      34.9162      0.00000

 k-point   9 :       0.5000    0.1250    0.0000
  band No.  band energies     occupation 
      1      -3.7120      2.00000
      2      -0.9169      2.00000
      3       3.5507      2.00000
      4       4.2679      2.00000
      5       8.0239      0.00000
      6       9.3440      0.00000
      7       9.9289      0.00000
      8      13.1993      0.00000
      9      14.8251      0.00000
     10      16.3105      0.00000
     11      17.3735      0.00000
     12      17.4827      0.00000
     13      18.3689      0.00000
     14      20.8826      0.00000
     15      24.1549      0.00000
     16      25.4873      0.00000
     17      26.1498      0.00000
     18      26.9210      0.00000
     19      27.7736      0.00000
     20      28.1475      0.00000
     21      30.5483      0.00000
     22      31.8520      0.00000
     23      32.2167      0.00000
     24      33.4150      0.00000

 k-point  10 :      -0.3750    0.1250    0.0000
  band No.  band energies     occupation 
      1      -3.9566      2.00000
      2      -0.5462      2.00000
      3       3.3690      2.00000
      4       4.5643      2.00000
      5       8.1909      0.00000
      6       9.4519      0.00000
      7       9.6971      0.00000
      8      13.7469      0.00000
      9      13.9241      0.00000
     10      15.0413      0.00000
     11      17.0185      0.00000
     12      18.2802      0.00000
     13      20.0977      0.00000
     14      20.5570      0.00000
     15      22.7149      0.00000
     16      24.4746      0.00000
     17      26.3559      0.00000
     18      28.0117      0.00000
     19      28.2219      0.00000
     20      28.4061      0.00000
     21      30.5575      0.00000
     22      30.9747      0.00000
     23      33.2326      0.00000
     24      33.3781      0.00000

 k-point  11 :      -0.2500    0.1250    0.0000
  band No.  band energies     occupation 
      1      -4.8799      2.00000
      2       1.2056      2.00000
      3       3.5196      2.00000
      4       5.0555      2.00000
      5       8.5502      0.00000
      6       9.5068      0.00000
      7       9.6848      0.00000
      8      12.1295      0.00000
      9      12.3005      0.00000
     10      15.6760      0.00000
     11      15.9068      0.00000
     12      18.2653      0.00000
     13      19.8178      0.00000
     14      21.2709      0.00000
     15      22.2210      0.00000
     16      23.8884      0.00000
     17      24.6734      0.00000
     18      27.6036      0.00000
     19      27.8168      0.00000
     20      28.7549      0.00000
     21      31.9101      0.00000
     22      32.4031      0.00000
     23      33.2313      0.00000
     24      35.3344      0.00000

 k-point  12 :      -0.1250    0.1250    0.0000
  band No.  band energies     occupation 
      1      -5.5898      2.00000
      2       3.1468      2.00000
      3       4.2013      2.00000
      4       5.5360      2.00000
      5       8.8746      0.00000
      6       8.9543      0.00000
      7       9.1880      0.00000
      8      11.3820      0.00000
      9      12.1697      0.00000
     10      13.8618      0.00000
     11      15.5919      0.00000
     12      17.0121      0.00000
     13      18.1964      0.00000
     14      20.3097      0.00000
     15      23.5471      0.00000
     16      23.9765      0.00000
     17      26.8162      0.00000
     18      26.9900      0.00000
     19      27.5613      0.00000
     20      28.8936      0.00000
     21      32.3866      0.00000
     22      32.6163      0.00000
     23      34.6434      0.00000
     24      36.3115      0.00000

 k-point  13 :       0.2500    0.2500    0.0000
  band No.  band energies     occupation 
      1      -5.0481      2.00000
      2       2.3141      2.00000
      3       3.9403      2.00000
      4       3.9403      2.00000
      5       6.9594      0.00000
      6       8.9617      0.00000
      7      11.5862      0.00000
      8      11.5862      0.00000
      9      13.8983      0.00000
     10      14.7566      0.00000
     11      17.2672      0.00000
     12      18.8429      0.00000
     13      18.8429      0.00000
     14      19.5541      0.00000
     15      23.2510      0.00000
     16      23.2510      0.00000
     17      24.1674      0.00000
     18      26.2137      0.00000
     19      26.7867      0.00000
     20      30.7529      0.00000
     21      32.1439      0.00000
     22      33.1702      0.00000
     23      33.1702      0.00000
     24      35.3471      0.00000

 k-point  14 :       0.3750    0.2500    0.0000
  band No.  band energies     occupation 
      1      -4.3380      2.00000
      2       0.8907      2.00000
      3       3.1599      2.00000
      4       3.6224      2.00000
      5       7.1797      0.00000
      6       8.7229      0.00000
      7      11.8277      0.00000
      8      12.0975      0.00000
      9      15.8072      0.00000
     10      16.0178      0.00000
     11      17.4950      0.00000
     12      19.0400      0.00000
     13      19.5983      0.00000
     14      20.6633      0.00000
     15      21.7236      0.00000
     16      22.9473      0.00000
     17      24.2325      0.00000
     18      25.7392      0.00000
     19      27.7173      0.00000
     20      30.0050      0.00000
     21      31.0422      0.00000
     22      32.1809      0.00000
     23      32.2852      0.00000
     24      33.2672      0.00000

 k-point  15 :       0.5000    0.2500    0.0000
  band No.  band energies     occupation 
      1      -3.4119      2.00000
      2      -0.5513      2.00000
      3       2.2966      2.00000
      4       3.6256      2.00000
      5       7.3486      0.00000
      6      10.2758      0.00000
      7      11.5762      0.00000
      8      11.7475      0.00000
      9      16.0430      0.00000
     10      16.3660      0.00000
     11      17.9878      0.00000
     12      18.5402      0.00000
     13      18.8716      0.00000
     14      22.6732      0.00000
     15      23.5592      0.00000
     16      24.4612      0.00000
     17      25.1939      0.00000
     18      25.4382      0.00000
     19      25.7692      0.00000
     20      28.7456      0.00000
     21      29.5851      0.00000
     22      31.0339      0.00000
     23      31.4287      0.00000
     24      33.6678      0.00000

 k-point  16 :      -0.3750    0.2500    0.0000
  band No.  band energies     occupation 
      1      -3.2076      2.00000
      2      -0.8097      2.00000
      3       1.8382      2.00000
      4       3.9439      2.00000
      5       7.6733      0.00000
      6      11.2931      0.00000
      7      11.3090      0.00000
      8      12.7896      0.00000
      9      13.8093      0.00000
     10      13.8500      0.00000
     11      18.4069      0.00000
     12      20.6556      0.00000
     13      20.9784      0.00000
     14      21.8517      0.00000
     15      22.2939      0.00000
     16      24.2229      0.00000
     17      25.2795      0.00000
     18      25.8098      0.00000
     19      27.6572      0.00000
     20      27.9338      0.00000
     21      30.5543      0.00000
     22      31.2199      0.00000
     23      31.6457      0.00000
     24      32.1861      0.00000

 k-point  17 :      -0.2500    0.2500    0.0000
  band No.  band energies     occupation 
      1      -4.0862      2.00000
      2       0.3511      2.00000
      3       2.0782      2.00000
      4       4.5021      2.00000
      5       8.2794      0.00000
      6      10.6198      0.00000
      7      10.9601      0.00000
      8      11.9795      0.00000
      9      12.2729      0.00000
     10      15.4679      0.00000
     11      18.4504      0.00000
     12      19.0277      0.00000
     13      19.2913      0.00000
     14      22.5064      0.00000
     15      22.8790      0.00000
     16      23.2899      0.00000
     17      24.5369      0.00000
     18      27.0821      0.00000
     19      27.5262      0.00000
     20      29.7731      0.00000
     21      30.6487      0.00000
     22      31.1145      0.00000
     23      32.6526      0.00000
     24      32.9370      0.00000

 k-point  18 :       0.3750    0.3750    0.0000
  band No.  band energies     occupation 
      1      -3.7355      2.00000
      2       0.0862      2.00000
      3       3.2243      2.00000
      4       3.2243      2.00000
      5       6.4438      0.00000
      6       7.3678      0.00000
      7      13.8703      0.00000
      8      13.8703      0.00000
      9      16.2608      0.00000
     10      16.5616      0.00000
     11      18.8444      0.00000
     12      18.8444      0.00000
     13      19.4916      0.00000
     14      21.0052      0.00000
     15      21.7937      0.00000
     16      22.6796      0.00000
     17      22.6797      0.00000
     18      24.6771      0.00000
     19      29.2694      0.00000
     20      29.4462      0.00000
     21      29.9213      0.00000
     22      29.9213      0.00000
     23      31.2688      0.00000
     24      33.0260      0.00000

 k-point  19 :       0.5000    0.3750    0.0000
  band No.  band energies     occupation 
      1      -2.8381      2.00000
      2      -0.9987      2.00000
      3       2.3952      2.00000
      4       3.1482      2.00000
      5       6.7229      0.00000
      6       7.7956      0.00000
      7      14.0952      0.00000
      8      14.1850      0.00000
      9      16.5943      0.00000
     10      16.6355      0.00000
     11      18.1411      0.00000
     12      18.7163      0.00000
     13      20.7682      0.00000
     14      20.7867      0.00000
     15      21.7696      0.00000
     16      24.5370      0.00000
     17      24.6463      0.00000
     18      25.2598      0.00000
     19      26.6308      0.00000
     20      28.1386      0.00000
     21      28.6035      0.00000
     22      29.3252      0.00000
     23      29.9426      0.00000
     24      31.6844      0.00000

 k-point  20 :      -0.3750    0.3750    0.0000
  band No.  band energies     occupation 
      1      -2.3992      2.00000
      2      -1.3954      2.00000
      3       1.5292      2.00000
      4       3.4056      2.00000
      5       7.0324      0.00000
      6       9.9565      0.00000
      7      13.2999      0.00000
      8      13.8414      0.00000
      9      14.0694      0.00000
     10      14.3348      0.00000
     11      20.5785      0.00000
     12      20.7160      0.00000
     13      21.3043      0.00000
     14      21.5184      0.00000
     15      21.7334      0.00000
     16      22.9099      0.00000
     17      25.4703      0.00000
     18      25.7900      0.00000
     19      27.3435      0.00000
     20      27.4763      0.00000
     21      28.7376      0.00000
     22      28.8468      0.00000
     23      30.9978      0.00000
     24      31.7653      0.00000

 k-point  21 :       0.5000    0.5000    0.0000
  band No.  band energies     occupation 
      1      -1.9854      2.00000
      2      -1.9854      2.00000
      3       2.9788      2.00000
      4       2.9788      2.00000
      5       6.5381      0.00000
      6       6.5381      0.00000
      7      15.9449      0.00000
      8      15.9449      0.00000
      9      16.8015      0.00000
     10      16.8015      0.00000
     11      18.3515      0.00000
     12      18.3515      0.00000
     13      18.8913      0.00000
     14      18.8913      0.00000
     15      24.6821      0.00000
     16      24.6821      0.00000
     17      25.5861      0.00000
     18      25.5862      0.00000
     19      26.0426      0.00000
     20      26.0426      0.00000
     21      27.3659      0.00000
     22      27.3659      0.00000
     23      31.3175      0.00000
     24      31.3175      0.00000

 k-point  22 :       0.3750    0.2500    0.1250
  band No.  band energies     occupation 
      1      -4.8007      2.00000
      2       1.5418      2.00000
      3       3.1175      2.00000
      4       4.4023      2.00000
      5       8.2767      0.00000
      6       9.7338      0.00000
      7      10.0211      0.00000
      8      11.3307      0.00000
      9      13.6189      0.00000
     10      16.0849      0.00000
     11      16.9197      0.00000
     12      17.9403      0.00000
     13      19.7016      0.00000
     14      20.9175      0.00000
     15      21.6943      0.00000
     16      24.0530      0.00000
     17      25.1609      0.00000
     18      26.3734      0.00000
     19      27.5601      0.00000
     20      29.2823      0.00000
     21      31.1196      0.00000
     22      31.9116      0.00000
     23      33.7234      0.00000
     24      34.6897      0.00000

 k-point  23 :       0.5000    0.2500    0.1250
  band No.  band energies     occupation 
      1      -3.9123      2.00000
      2      -0.0100      2.00000
      3       2.5098      2.00000
      4       3.9010      2.00000
      5       8.7064      0.00000
      6       9.3832      0.00000
      7      10.8483      0.00000
      8      11.7648      0.00000
      9      14.8503      0.00000
     10      15.5632      0.00000
     11      17.8294      0.00000
     12      18.7698      0.00000
     13      20.0714      0.00000
     14      20.9694      0.00000
     15      23.0986      0.00000
     16      24.0780      0.00000
     17      24.8397      0.00000
     18      26.8235      0.00000
     19      27.6728      0.00000
     20      28.6498      0.00000
     21      30.0990      0.00000
     22      31.5592      0.00000
     23      31.8774      0.00000
     24      33.0885      0.00000

 k-point  24 :      -0.3750    0.2500    0.1250
  band No.  band energies     occupation 
      1      -3.2598      2.00000
      2      -0.9551      2.00000
      3       2.3810      2.00000
      4       3.6714      2.00000
      5       8.8973      0.00000
      6       8.9599      0.00000
      7      11.7403      0.00000
      8      12.9452      0.00000
      9      13.2267      0.00000
     10      16.4107      0.00000
     11      17.5299      0.00000
     12      18.2348      0.00000
     13      21.3787      0.00000
     14      21.4011      0.00000
     15      23.9493      0.00000
     16      24.2924      0.00000
     17      25.3137      0.00000
     18      26.6604      0.00000
     19      26.7991      0.00000
     20      27.8518      0.00000
     21      30.8386      0.00000
     22      31.2124      0.00000
     23      31.3002      0.00000
     24      32.1470      0.00000

 k-point  25 :       0.5000    0.3750    0.1250
  band No.  band energies     occupation 
      1      -3.5368      2.00000
      2      -0.1327      2.00000
      3       2.4687      2.00000
      4       3.0715      2.00000
      5       7.7759      0.00000
      6       8.4745      0.00000
      7      11.5836      0.00000
      8      13.8193      0.00000
      9      16.0071      0.00000
     10      16.0522      0.00000
     11      18.7165      0.00000
     12      19.1490      0.00000
     13      20.0537      0.00000
     14      20.4754      0.00000
     15      22.5155      0.00000
     16      22.8947      0.00000
     17      25.3976      0.00000
     18      25.8210      0.00000
     19      27.6695      0.00000
     20      27.7190      0.00000
     21      29.2877      0.00000
     22      30.0853      0.00000
     23      32.1342      0.00000
     24      33.3803      0.00000

 k-point  26 :      -0.3750    0.3750    0.1250
  band No.  band energies     occupation 
      1      -2.6620      2.00000
      2      -1.1007      2.00000
      3       1.7705      2.00000
      4       2.8708      2.00000
      5       8.2169      0.00000
      6      10.1084      0.00000
      7      11.1070      0.00000
      8      13.2692      0.00000
      9      14.2326      0.00000
     10      16.9139      0.00000
     11      18.0586      0.00000
     12      20.1572      0.00000
     13      21.2007      0.00000
     14      21.8295      0.00000
     15      23.3612      0.00000
     16      24.1996      0.00000
     17      24.5637      0.00000
     18      25.2408      0.00000
     19      26.9238      0.00000
     20      27.5979      0.00000
     21      28.5879      0.00000
     22      29.9968      0.00000
     23      30.8650      0.00000
     24      33.3862      0.00000

 k-point  27 :      -0.2500    0.3750    0.1250
  band No.  band energies     occupation 
      1      -3.0126      2.00000
      2      -0.7374      2.00000
      3       1.6037      2.00000
      4       3.2466      2.00000
      5       8.6968      0.00000
      6      10.3727      0.00000
      7      11.0440      0.00000
      8      12.8581      0.00000
      9      13.7014      0.00000
     10      15.0772      0.00000
     11      19.9113      0.00000
     12      20.1330      0.00000
     13      20.4506      0.00000
     14      22.1325      0.00000
     15      22.3744      0.00000
     16      24.1939      0.00000
     17      24.9879      0.00000
     18      25.8275      0.00000
     19      26.9683      0.00000
     20      27.9627      0.00000
     21      29.1330      0.00000
     22      30.3681      0.00000
     23      31.7607      0.00000
     24      33.2224      0.00000

 k-point  28 :      -0.3750    0.5000    0.1250
  band No.  band energies     occupation 
      1      -1.9074      2.00000
      2      -1.9074      2.00000
      3       2.4143      2.00000
      4       2.4143      2.00000
      5       7.7989      0.00000
      6       7.7989      0.00000
      7      13.6762      0.00000
      8      13.6762      0.00000
      9      16.4055      0.00000
     10      16.4055      0.00000
     11      18.7113      0.00000
     12      18.7113      0.00000
     13      21.4164      0.00000
     14      21.4164      0.00000
     15      23.2128      0.00000
     16      23.2128      0.00000
     17      24.9178      0.00000
     18      24.9178      0.00000
     19      27.5346      0.00000
     20      27.5346      0.00000
     21      28.9178      0.00000
     22      28.9178      0.00000
     23      29.8949      0.00000
     24      29.8949      0.00000

 k-point  29 :      -0.2500    0.5000    0.2500
  band No.  band energies     occupation 
      1      -1.8215      2.00000
      2      -1.8215      2.00000
      3       1.9782      2.00000
      4       1.9782      2.00000
      5      10.0958      0.00000
      6      10.0958      0.00000
      7      10.8341      0.00000
      8      10.8341      0.00000
      9      16.4094      0.00000
     10      16.4094      0.00000
     11      18.8712      0.00000
     12      18.8712      0.00000
     13      22.2731      0.00000
     14      22.2731      0.00000
     15      24.4257      0.00000
     16      24.4257      0.00000
     17      24.7564      0.00000
     18      24.7564      0.00000
     19      25.6416      0.00000
     20      25.6416      0.00000
     21      29.5285      0.00000
     22      29.5285      0.00000
     23      33.3132      0.00000
     24      33.3132      0.00000


--------------------------------------------------------------------------------------------------------


 soft charge-density along one line, spin component           1
         0         1         2         3         4         5         6         7         8         9
 total charge-density along one line
 
 pseudopotential strength for first ion, spin component:           1
 18.413  25.690   0.000  -0.000   0.000   0.000  -0.000   0.000
 25.690  35.846   0.000  -0.000   0.000   0.000  -0.000   0.000
  0.000   0.000   4.178  -0.000   0.000   7.786  -0.000   0.000
 -0.000  -0.000  -0.000   4.178  -0.000  -0.000   7.786  -0.000
  0.000   0.000   0.000  -0.000   4.178   0.000  -0.000   7.786
  0.000   0.000   7.786  -0.000   0.000  14.519  -0.000   0.000
 -0.000  -0.000  -0.000   7.786  -0.000  -0.000  14.519  -0.000
  0.000   0.000   0.000  -0.000   7.786   0.000  -0.000  14.519
 total augmentation occupancy for first ion, spin component:           1
  5.710  -2.164   0.000   0.000  -0.000   0.000  -0.000  -0.000
 -2.164   0.934   0.000   0.000  -0.000  -0.000  -0.000   0.000
  0.000   0.000   2.984   0.000  -0.000  -0.673  -0.000   0.000
  0.000  -0.000   0.000   2.984   0.000  -0.000  -0.673  -0.000
 -0.000   0.000  -0.000   0.000   2.984   0.000  -0.000  -0.673
  0.000   0.000  -0.673  -0.000   0.000   0.160   0.000  -0.000
  0.000   0.000  -0.000  -0.673  -0.000   0.000   0.160   0.000
  0.000   0.000   0.000  -0.000  -0.673  -0.000   0.000   0.160


------------------------ aborting loop because EDIFF is reached ----------------------------------------


 


 total charge     
 
# of ion     s       p       d       tot
----------------------------------------
  1        0.750   0.943   0.000   1.694
  2        0.750   0.943   0.000   1.694
------------------------------------------------
tot        1.501   1.886   0.000   3.387
 
    CHARGE:  cpu time    0.01: real time    0.01
    FORLOC:  cpu time    0.00: real time    0.00
    FORNL :  cpu time    0.01: real time    0.01
    STRESS:  cpu time    0.08: real time    0.09
    FORCOR:  cpu time    0.00: real time    0.00
    FORHAR:  cpu time    0.00: real time    0.00
    MIXING:  cpu time    0.00: real time    0.00

  FORCE on cell =-STRESS in cart. coord.  units (eV):
  Direction    XX          YY          ZZ          XY          YZ          ZX
  --------------------------------------------------------------------------------------
  Alpha Z     3.36322     3.36322     3.36322
  Ewald     -76.18087   -76.18087   -76.18084     0.00002    -0.00001    -0.00001
  Hartree     4.97788     4.97788     4.97788     0.00000    -0.00000    -0.00000
  E(xc)     -25.36931   -25.36931   -25.36931    -0.00000     0.00000     0.00000
  Local     -29.22501   -29.22501   -29.22500    -0.00000     0.00001     0.00002
  n-local    74.13762    77.53796    81.80847    -0.92078    -0.71623    -0.01572
  augment   -11.64882   -11.64882   -11.64883    -0.00000    -0.00001    -0.00001
  Kinetic    53.61092    55.55002    61.07954     0.93237     1.11017    -0.56417
  Fock        0.00000     0.00000     0.00000     0.00000     0.00000     0.00000
  -------------------------------------------------------------------------------------
  Total       0.49194     0.49194     0.49194    -0.00000     0.00000     0.00000
  in kB      19.68640    19.68640    19.68639    -0.00000     0.00000     0.00000
  external pressure =       19.69 kB  Pullay stress =        0.00 kB


 VOLUME and BASIS-vectors are now :
 -----------------------------------------------------------------------------
  energy-cutoff  :      500.00
  volume of cell :       40.04
      direct lattice vectors                 reciprocal lattice vectors
     3.325489000  0.000000000  1.919972000     0.300707655 -0.106316182  0.000000000
     1.108496000  3.135301000  1.919972000     0.000000000  0.318948643  0.000000000
     0.000000000  0.000000000  3.839943000    -0.150353867 -0.106316258  0.260420532

  length of vectors
     3.839943954  3.839943779  3.839943000     0.318948624  0.318948643  0.318948719


 FORCES acting on ions
    electron-ion (+dipol)            ewald-force                    non-local-force                 convergence-correction
 -----------------------------------------------------------------------------------------------
   0.121E-04 0.491E-05 -.814E-05   -.205E-04 -.829E-05 0.145E-04   -.520E-17 0.000E+00 -.333E-15   -.210E-08 -.174E-08 -.567E-08
   -.121E-04 -.491E-05 0.814E-05   0.205E-04 0.829E-05 -.145E-04   -.520E-17 0.555E-16 0.243E-15   0.210E-08 0.174E-08 0.567E-08
 -----------------------------------------------------------------------------------------------
   0.401E-13 -.484E-13 0.123E-12   0.746E-15 0.229E-16 0.427E-16   -.104E-16 0.555E-16 -.902E-16   -.565E-15 -.596E-15 -.184E-14
 
 
 POSITION                                       TOTAL-FORCE (eV/Angst)
 -----------------------------------------------------------------------------------
      3.87974      2.74339      6.71990         0.000000     -0.000000     -0.000000
      0.55425      0.39191      0.95999        -0.000000      0.000000      0.000000
 -----------------------------------------------------------------------------------
    total drift:                                0.000000     -0.000000      0.000000


--------------------------------------------------------------------------------------------------------



  FREE ENERGIE OF THE ION-ELECTRON SYSTEM (eV)
  ---------------------------------------------------
  free  energy   TOTEN  =       -10.84090571 eV

  energy  without entropy=      -10.84090571  energy(sigma->0) =      -10.84090571
 


--------------------------------------------------------------------------------------------------------


    POTLOK:  cpu time    0.01: real time    0.01


--------------------------------------------------------------------------------------------------------


 writing wavefunctions
     LOOP+:  cpu time    3.90: real time    4.22
    4ORBIT:  cpu time    0.00: real time    0.00
 


 total charge     
 
# of ion     s       p       d       tot
----------------------------------------
  1        0.750   0.943   0.000   1.694
  2        0.750   0.943   0.000   1.694
------------------------------------------------
tot        1.501   1.886   0.000   3.387
 

 total amount of memory used by VASP on root node    33510. kBytes
========================================================================

   base      :      30000. kBytes
   nonl-proj :       1993. kBytes
   fftplans  :        221. kBytes
   grid      :        789. kBytes
   one-center:          6. kBytes
   wavefun   :        501. kBytes
 
  
  
 General timing and accounting informations for this job:
 ========================================================
  
                  Total CPU time used (sec):        4.453
                            User time (sec):        4.216
                          System time (sec):        0.237
                         Elapsed time (sec):        5.660
  
                   Maximum memory used (kb):       93900.
                   Average memory used (kb):           0.
  
                          Minor page faults:        13493
                          Major page faults:           14
                 Voluntary context switches:         3096
