<?xml version="1.0" encoding="ISO-8859-1"?>
<modeling>
 <generator>
  <i name="program" type="string">vasp </i>
  <i name="version" type="string">5.3.3  </i>
  <i name="subversion" type="string">18Dez12 (build Oct 02 2015 10:56:41) complex                          parallel </i>
  <i name="platform" type="string">LinuxIFC </i>
  <i name="date" type="string">2020 05 27 </i>
  <i name="time" type="string">12:37:19 </i>
 </generator>
 <incar>
  <i type="string" name="PREC">normal</i>
  <i type="string" name="ALGO"> Normal</i>
  <i type="int" name="ISPIN">     1</i>
  <i name="AMIX">      0.20000000</i>
  <i type="int" name="IBRION">     2</i>
  <i name="EDIFF">      0.00000100</i>
  <i name="EDIFFG">     -0.05000000</i>
  <i type="int" name="NSW">     0</i>
  <i type="int" name="ISIF">     2</i>
  <i type="int" name="ISYM">     2</i>
  <i name="ENCUT">    500.00000000</i>
  <i type="logical" name="LREAL"> F  </i>
  <i type="int" name="ISMEAR">     0</i>
  <i name="SIGMA">      0.05000000</i>
  <i type="logical" name="LWAVE"> T  </i>
  <i type="logical" name="LCHARG"> T  </i>
  <i type="logical" name="LORBIT"> F  </i>
 </incar>
 <kpoints>
  <generation param="Gamma">
   <v type="int" name="divisions">       8        8        8 </v>
   <v name="usershift">      0.00000000       0.00000000       0.00000000 </v>
   <v name="genvec1">      0.12500000       0.00000000       0.00000000 </v>
   <v name="genvec2">      0.00000000       0.12500000       0.00000000 </v>
   <v name="genvec3">      0.00000000       0.00000000       0.12500000 </v>
   <v name="shift">      0.00000000       0.00000000       0.00000000 </v>
  </generation>
  <varray name="kpointlist" >
   <v>       0.00000000       0.00000000       0.00000000 </v>
   <v>       0.12500000       0.00000000       0.00000000 </v>
   <v>       0.25000000       0.00000000       0.00000000 </v>
   <v>       0.37500000       0.00000000       0.00000000 </v>
   <v>       0.50000000       0.00000000       0.00000000 </v>
   <v>       0.12500000       0.12500000       0.00000000 </v>
   <v>       0.25000000       0.12500000       0.00000000 </v>
   <v>       0.37500000       0.12500000       0.00000000 </v>
   <v>       0.50000000       0.12500000       0.00000000 </v>
   <v>      -0.37500000       0.12500000       0.00000000 </v>
   <v>      -0.25000000       0.12500000       0.00000000 </v>
   <v>      -0.12500000       0.12500000       0.00000000 </v>
   <v>       0.25000000       0.25000000       0.00000000 </v>
   <v>       0.37500000       0.25000000       0.00000000 </v>
   <v>       0.50000000       0.25000000       0.00000000 </v>
   <v>      -0.37500000       0.25000000       0.00000000 </v>
   <v>      -0.25000000       0.25000000       0.00000000 </v>
   <v>       0.37500000       0.37500000       0.00000000 </v>
   <v>       0.50000000       0.37500000       0.00000000 </v>
   <v>      -0.37500000       0.37500000       0.00000000 </v>
   <v>       0.50000000       0.50000000       0.00000000 </v>
   <v>       0.37500000       0.25000000       0.12500000 </v>
   <v>       0.50000000       0.25000000       0.12500000 </v>
   <v>      -0.37500000       0.25000000       0.12500000 </v>
   <v>       0.50000000       0.37500000       0.12500000 </v>
   <v>      -0.37500000       0.37500000       0.12500000 </v>
   <v>      -0.25000000       0.37500000       0.12500000 </v>
   <v>      -0.37500000       0.50000000       0.12500000 </v>
   <v>      -0.25000000       0.50000000       0.25000000 </v>
  </varray>
  <varray name="weights" >
   <v>       0.00195312 </v>
   <v>       0.01562500 </v>
   <v>       0.01562500 </v>
   <v>       0.01562500 </v>
   <v>       0.00781250 </v>
   <v>       0.01171875 </v>
   <v>       0.04687500 </v>
   <v>       0.04687500 </v>
   <v>       0.04687500 </v>
   <v>       0.04687500 </v>
   <v>       0.04687500 </v>
   <v>       0.02343750 </v>
   <v>       0.01171875 </v>
   <v>       0.04687500 </v>
   <v>       0.04687500 </v>
   <v>       0.04687500 </v>
   <v>       0.02343750 </v>
   <v>       0.01171875 </v>
   <v>       0.04687500 </v>
   <v>       0.02343750 </v>
   <v>       0.00585938 </v>
   <v>       0.04687500 </v>
   <v>       0.09375000 </v>
   <v>       0.04687500 </v>
   <v>       0.04687500 </v>
   <v>       0.09375000 </v>
   <v>       0.04687500 </v>
   <v>       0.02343750 </v>
   <v>       0.01171875 </v>
  </varray>
 </kpoints>
 <parameters>
  <separator name="general" >
   <i type="string" name="SYSTEM">unknown system</i>
   <i type="logical" name="LCOMPAT"> F  </i>
  </separator>
  <separator name="electronic" >
   <i type="string" name="PREC">normal</i>
   <i name="ENMAX">    500.00000000</i>
   <i name="ENAUG">    322.06900000</i>
   <i name="EDIFF">      0.00000100</i>
   <i type="int" name="IALGO">    38</i>
   <i type="int" name="IWAVPR">    10</i>
   <i type="int" name="NBANDS">    24</i>
   <i name="NELECT">      8.00000000</i>
   <i type="int" name="TURBO">     0</i>
   <i type="int" name="IRESTART">     0</i>
   <i type="int" name="NREBOOT">     0</i>
   <i type="int" name="NMIN">     0</i>
   <i name="EREF">      0.00000000</i>
   <separator name="electronic smearing" >
    <i type="int" name="ISMEAR">     0</i>
    <i name="SIGMA">      0.05000000</i>
    <i name="KSPACING">      0.50000000</i>
    <i type="logical" name="KGAMMA"> T  </i>
   </separator>
   <separator name="electronic projectors" >
    <i type="logical" name="LREAL"> F  </i>
    <v name="ROPT">      0.00000000</v>
    <i type="int" name="LMAXPAW">  -100</i>
    <i type="int" name="LMAXMIX">     2</i>
    <i type="logical" name="NLSPLINE"> F  </i>
   </separator>
   <separator name="electronic startup" >
    <i type="int" name="ISTART">     0</i>
    <i type="int" name="ICHARG">     2</i>
    <i type="int" name="INIWAV">     1</i>
   </separator>
   <separator name="electronic spin" >
    <i type="int" name="ISPIN">     1</i>
    <i type="logical" name="LNONCOLLINEAR"> F  </i>
    <v name="MAGMOM">      1.00000000      1.00000000</v>
    <i name="NUPDOWN">     -1.00000000</i>
    <i type="logical" name="LSORBIT"> F  </i>
    <v name="SAXIS">      0.00000000      0.00000000      1.00000000</v>
    <i type="logical" name="LSPIRAL"> F  </i>
    <v name="QSPIRAL">      0.00000000      0.00000000      0.00000000</v>
    <i type="logical" name="LZEROZ"> F  </i>
   </separator>
   <separator name="electronic exchange-correlation" >
    <i type="logical" name="LASPH"> F  </i>
    <i type="logical" name="LMETAGGA"> F  </i>
   </separator>
   <separator name="electronic convergence" >
    <i type="int" name="NELM">    60</i>
    <i type="int" name="NELMDL">    -5</i>
    <i type="int" name="NELMIN">     2</i>
    <i name="ENINI">    500.00000000</i>
    <separator name="electronic convergence detail" >
     <i type="logical" name="LDIAG"> T  </i>
     <i type="logical" name="LSUBROT"> T  </i>
     <i name="WEIMIN">      0.00000000</i>
     <i name="EBREAK">      0.00000001</i>
     <i name="DEPER">      0.30000000</i>
     <i type="int" name="NRMM">     4</i>
     <i name="TIME">      0.40000000</i>
    </separator>
   </separator>
   <separator name="electronic mixer" >
    <i name="AMIX">      0.20000000</i>
    <i name="BMIX">      1.00000000</i>
    <i name="AMIN">      0.10000000</i>
    <i name="AMIX_MAG">      0.80000000</i>
    <i name="BMIX_MAG">      1.00000000</i>
    <separator name="electronic mixer details" >
     <i type="int" name="IMIX">     4</i>
     <i type="int" name="MAXMIX">   -45</i>
     <i name="WC">    100.00000000</i>
     <i type="int" name="INIMIX">     1</i>
     <i type="int" name="MIXPRE">     1</i>
     <i type="int" name="MREMOVE">     5</i>
    </separator>
   </separator>
   <separator name="electronic dipolcorrection" >
    <i type="logical" name="LDIPOL"> F  </i>
    <i type="logical" name="LMONO"> F  </i>
    <i type="int" name="IDIPOL">     0</i>
    <i name="EPSILON">      1.00000000</i>
    <v name="DIPOL">   -100.00000000   -100.00000000   -100.00000000</v>
    <i name="EFIELD">      0.00000000</i>
   </separator>
  </separator>
  <separator name="grids" >
   <i type="int" name="NGX">    24</i>
   <i type="int" name="NGY">    24</i>
   <i type="int" name="NGZ">    24</i>
   <i type="int" name="NGXF">    48</i>
   <i type="int" name="NGYF">    48</i>
   <i type="int" name="NGZF">    48</i>
   <i type="logical" name="ADDGRID"> F  </i>
  </separator>
  <separator name="ionic" >
   <i type="int" name="NSW">     0</i>
   <i type="int" name="IBRION">    -1</i>
   <i type="int" name="ISIF">     2</i>
   <i name="PSTRESS">      0.00000000</i>
   <i name="EDIFFG">     -0.05000000</i>
   <i type="int" name="NFREE">     1</i>
   <i name="POTIM">      0.50000000</i>
   <i name="SMASS">     -3.00000000</i>
   <i name="SCALEE">      1.00000000</i>
  </separator>
  <separator name="ionic md" >
   <i name="TEBEG">      0.00010000</i>
   <i name="TEEND">      0.00010000</i>
   <i type="int" name="NBLOCK">     1</i>
   <i type="int" name="KBLOCK">     1</i>
   <i type="int" name="NPACO">   256</i>
   <i name="APACO">     16.00000000</i>
  </separator>
  <separator name="symmetry" >
   <i type="int" name="ISYM">     2</i>
   <i name="SYMPREC">      0.00001000</i>
  </separator>
  <separator name="dos" >
   <i type="logical" name="LORBIT"> F  </i>
   <v name="RWIGS">     -1.00000000</v>
   <i type="int" name="NEDOS">   301</i>
   <i name="EMIN">     10.00000000</i>
   <i name="EMAX">    -10.00000000</i>
   <i name="EFERMI">      0.00000000</i>
  </separator>
  <separator name="writing" >
   <i type="int" name="NWRITE">     2</i>
   <i type="logical" name="LWAVE"> T  </i>
   <i type="logical" name="LCHARG"> T  </i>
   <i type="logical" name="LPARD"> F  </i>
   <i type="logical" name="LVTOT"> F  </i>
   <i type="logical" name="LVHAR"> F  </i>
   <i type="logical" name="LELF"> F  </i>
   <i type="logical" name="LOPTICS"> F  </i>
   <v name="STM">      0.00000000      0.00000000      0.00000000      0.00000000      0.00000000      0.00000000      0.00000000</v>
  </separator>
  <separator name="performance" >
   <i type="int" name="NPAR">    24</i>
   <i type="int" name="NSIM">     4</i>
   <i type="int" name="NBLK">    -1</i>
   <i type="logical" name="LPLANE"> T  </i>
   <i type="logical" name="LSCALAPACK"> F  </i>
   <i type="logical" name="LSCAAWARE"> F  </i>
   <i type="logical" name="LSCALU"> F  </i>
   <i type="logical" name="LASYNC"> F  </i>
   <i type="logical" name="LORBITALREAL"> F  </i>
  </separator>
  <separator name="miscellaneous" >
   <i type="int" name="IDIOT">     3</i>
   <i type="logical" name="LMUSIC"> F  </i>
   <v name="POMASS">     28.08500000</v>
   <v name="DARWINR">      0.00000000</v>
   <v name="DARWINV">      1.00000000</v>
   <i type="logical" name="LCORR"> T  </i>
  </separator>
  <i type="logical" name="GGA_COMPAT"> T  </i>
  <i type="logical" name="LBERRY"> F  </i>
  <i type="int" name="ICORELEVEL">     0</i>
  <i type="logical" name="LDAU"> F  </i>
  <i type="int" name="I_CONSTRAINED_M">     0</i>
  <separator name="electronic exchange-correlation" >
   <i type="string" name="GGA">--</i>
   <i type="int" name="VOSKOWN">     0</i>
   <i type="logical" name="LHFCALC"> F  </i>
   <i type="string" name="PRECFOCK"></i>
   <i type="logical" name="LSYMGRAD"> F  </i>
   <i type="logical" name="LHFONE"> F  </i>
   <i type="logical" name="LRHFCALC"> F  </i>
   <i type="logical" name="LTHOMAS"> F  </i>
   <i type="logical" name="LMODELHF"> F  </i>
   <i name="ENCUT4O">     -1.00000000</i>
   <i type="int" name="EXXOEP">     0</i>
   <i type="int" name="FOURORBIT">     0</i>
   <i name="AEXX">      0.00000000</i>
   <i name="HFALPHA">      0.00000000</i>
   <i name="MCALPHA">      0.00000000</i>
   <i name="ALDAX">      1.00000000</i>
   <i name="AGGAX">      1.00000000</i>
   <i name="ALDAC">      1.00000000</i>
   <i name="AGGAC">      1.00000000</i>
   <i type="int" name="NKREDX">     1</i>
   <i type="int" name="NKREDY">     1</i>
   <i type="int" name="NKREDZ">     1</i>
   <i type="logical" name="SHIFTRED"> F  </i>
   <i type="logical" name="ODDONLY"> F  </i>
   <i type="logical" name="EVENONLY"> F  </i>
   <i type="int" name="LMAXFOCK">     0</i>
   <i type="int" name="NMAXFOCKAE">     0</i>
   <i type="logical" name="LFOCKAEDFT"> F  </i>
   <i name="HFSCREEN">      0.00000000</i>
   <i name="HFSCREENC">      0.00000000</i>
   <i type="int" name="NBANDSGWLOW">     0</i>
  </separator>
  <separator name="vdW DFT" >
   <i type="logical" name="LUSE_VDW"> F  </i>
   <i name="Zab_VDW">     -0.84910000</i>
   <i name="PARAM1">      0.12340000</i>
   <i name="PARAM2">      1.00000000</i>
   <i name="PARAM3">      0.00000000</i>
  </separator>
  <separator name="model GW" >
   <i type="int" name="MODEL_GW">     0</i>
   <i name="MODEL_EPS0">     12.01104486</i>
   <i name="MODEL_ALPHA">      1.00000000</i>
  </separator>
  <separator name="linear response parameters" >
   <i type="logical" name="LEPSILON"> F  </i>
   <i type="logical" name="LRPA"> F  </i>
   <i type="logical" name="LNABLA"> F  </i>
   <i type="logical" name="LVEL"> F  </i>
   <i type="int" name="KINTER">     0</i>
   <i name="CSHIFT">      0.10000000</i>
   <i name="OMEGAMAX">     -1.00000000</i>
   <i name="DEG_THRESHOLD">      0.00200000</i>
  </separator>
  <separator name="orbital magnetization" >
   <i type="logical" name="NUCIND"> F  </i>
   <v name="MAGPOS">      0.00000000      0.00000000      0.00000000</v>
   <i type="logical" name="LNICSALL"> T  </i>
   <i type="logical" name="ORBITALMAG"> F  </i>
   <i type="logical" name="LMAGBLOCH"> F  </i>
   <i type="logical" name="LCHIMAG"> F  </i>
   <i type="logical" name="LGAUGE"> T  </i>
   <i type="int" name="MAGATOM">     0</i>
   <v name="MAGDIPOL">      0.00000000      0.00000000      0.00000000</v>
   <v name="AVECCONST">      0.00000000      0.00000000      0.00000000</v>
  </separator>
  <separator name="response functions" >
   <i type="logical" name="LADDER"> F  </i>
   <i type="logical" name="LFXC"> F  </i>
   <i type="logical" name="LHARTREE"> T  </i>
   <i type="int" name="IBSE">     0</i>
   <i type="logical" name="LTCTE"> F  </i>
   <i type="logical" name="LTETE"> F  </i>
   <i type="logical" name="LTRIPLET"> F  </i>
   <i type="logical" name="LFXCEPS"> F  </i>
   <i type="logical" name="L2ORDER"> F  </i>
   <i type="logical" name="LUSEW"> F  </i>
   <i name="ENCUTGW">     -2.00000000</i>
   <i name="ENCUTGWSOFT">     -2.00000000</i>
   <i name="ENCUTLF">     -1.00000000</i>
   <i type="int" name="LMAXMP2">    -1</i>
   <i name="SCISSOR">      0.00000000</i>
   <i type="int" name="NOMEGA">     0</i>
   <i type="int" name="NOMEGAR">     0</i>
   <i type="int" name="NBANDSGW">    -1</i>
   <i type="int" name="NBANDSO">    -1</i>
   <i type="int" name="NBANDSV">    -1</i>
   <i type="int" name="NELM">     1</i>
   <i type="int" name="DIM">     3</i>
   <i type="int" name="ANTIRES">     0</i>
   <i name="OMEGAMAX">    -30.00000000</i>
   <i name="OMEGATL">   -200.00000000</i>
   <i type="int" name="OMEGAGRID">     0</i>
   <i name="CSHIFT">     -0.10000000</i>
   <i type="logical" name="SELFENERGY"> F  </i>
   <i type="logical" name="LSPECTRAL"> F  </i>
   <i type="logical" name="ODDONLYGW"> F  </i>
   <i type="logical" name="EVENONLYGW"> F  </i>
   <i type="int" name="NKREDLFX">     1</i>
   <i type="int" name="NKREDLFY">     1</i>
   <i type="int" name="NKREDLFZ">     1</i>
   <i type="int" name="MAXMEM">  1800</i>
   <i type="int" name="TELESCOPE">     0</i>
  </separator>
 </parameters>
 <atominfo>
  <atoms>       2 </atoms>
  <types>       1 </types>
  <array name="atoms" >
   <dimension dim="1">ion</dimension>
   <field type="string">element</field>
   <field type="int">atomtype</field>
   <set>
    <rc><c>Si</c><c>   1</c></rc>
    <rc><c>Si</c><c>   1</c></rc>
   </set>
  </array>
  <array name="atomtypes" >
   <dimension dim="1">type</dimension>
   <field type="int">atomspertype</field>
   <field type="string">element</field>
   <field>mass</field>
   <field>valence</field>
   <field type="string">pseudopotential</field>
   <set>
    <rc><c>   2</c><c>Si</c><c>     28.08500000</c><c>      4.00000000</c><c>  PAW_PBE Si 05Jan2001                  </c></rc>
   </set>
  </array>
 </atominfo>
 <structure name="initialpos" >
  <crystal>
   <varray name="basis" >
    <v>       3.32548900       0.00000000       1.91997200 </v>
    <v>       1.10849600       3.13530100       1.91997200 </v>
    <v>       0.00000000       0.00000000       3.83994300 </v>
   </varray>
   <i name="volume">     40.03681621 </i>
   <varray name="rec_basis" >
    <v>       0.30070766      -0.10631618       0.00000000 </v>
    <v>       0.00000000       0.31894864       0.00000000 </v>
    <v>      -0.15035387      -0.10631626       0.26042053 </v>
   </varray>
  </crystal>
  <varray name="positions" >
   <v>       0.87500000       0.87500000       0.87500000 </v>
   <v>       0.12500000       0.12500000       0.12500000 </v>
  </varray>
 </structure>
 <calculation>
  <scstep>
   <time name="dav">    0.16    0.35</time>
   <time name="total">    0.18    0.37</time>
   <energy>
    <i name="alphaZ">      3.36321756 </i>
    <i name="ewald">   -228.54246794 </i>
    <i name="hartreedc">    -11.00523079 </i>
    <i name="XCdc">    -18.60295306 </i>
    <i name="pawpsdc">    176.24759923 </i>
    <i name="pawaedc">   -141.06103558 </i>
    <i name="eentropy">     -0.00015888 </i>
    <i name="bandstr">      9.06591540 </i>
    <i name="atom">    206.13251344 </i>
    <i name="e_fr_energy">     -4.40260063 </i>
    <i name="e_wo_entrp">     -4.40244175 </i>
    <i name="e_0_energy">     -4.40252119 </i>
   </energy>
  </scstep>
  <scstep>
   <time name="dav">    0.26    0.26</time>
   <time name="total">    0.26    0.26</time>
   <energy>
    <i name="e_fr_energy">    -11.00262193 </i>
    <i name="e_wo_entrp">    -11.00262193 </i>
    <i name="e_0_energy">    -11.00262193 </i>
   </energy>
  </scstep>
  <scstep>
   <time name="dav">    0.20    0.20</time>
   <time name="total">    0.20    0.20</time>
   <energy>
    <i name="e_fr_energy">    -11.02181707 </i>
    <i name="e_wo_entrp">    -11.02181707 </i>
    <i name="e_0_energy">    -11.02181707 </i>
   </energy>
  </scstep>
  <scstep>
   <time name="dav">    0.39    0.39</time>
   <time name="total">    0.39    0.45</time>
   <energy>
    <i name="e_fr_energy">    -11.02184625 </i>
    <i name="e_wo_entrp">    -11.02184625 </i>
    <i name="e_0_energy">    -11.02184625 </i>
   </energy>
  </scstep>
  <scstep>
   <time name="dav">    0.15    0.15</time>
   <time name="total">    0.17    0.17</time>
   <energy>
    <i name="e_fr_energy">    -11.02184625 </i>
    <i name="e_wo_entrp">    -11.02184625 </i>
    <i name="e_0_energy">    -11.02184625 </i>
   </energy>
  </scstep>
  <scstep>
   <time name="dav">    0.27    0.27</time>
   <time name="total">    0.29    0.29</time>
   <energy>
    <i name="e_fr_energy">    -10.95166255 </i>
    <i name="e_wo_entrp">    -10.95166255 </i>
    <i name="e_0_energy">    -10.95166255 </i>
   </energy>
  </scstep>
  <scstep>
   <time name="dav">    0.32    0.32</time>
   <time name="total">    0.33    0.33</time>
   <energy>
    <i name="e_fr_energy">    -10.83938376 </i>
    <i name="e_wo_entrp">    -10.83938376 </i>
    <i name="e_0_energy">    -10.83938376 </i>
   </energy>
  </scstep>
  <scstep>
   <time name="dav">    0.23    0.23</time>
   <time name="total">    0.25    0.25</time>
   <energy>
    <i name="e_fr_energy">    -10.84017221 </i>
    <i name="e_wo_entrp">    -10.84017221 </i>
    <i name="e_0_energy">    -10.84017221 </i>
   </energy>
  </scstep>
  <scstep>
   <time name="dav">    0.34    0.34</time>
   <time name="total">    0.35    0.36</time>
   <energy>
    <i name="e_fr_energy">    -10.84085013 </i>
    <i name="e_wo_entrp">    -10.84085013 </i>
    <i name="e_0_energy">    -10.84085013 </i>
   </energy>
  </scstep>
  <scstep>
   <time name="dav">    0.23    0.23</time>
   <time name="total">    0.26    0.26</time>
   <energy>
    <i name="e_fr_energy">    -10.84085685 </i>
    <i name="e_wo_entrp">    -10.84085685 </i>
    <i name="e_0_energy">    -10.84085685 </i>
   </energy>
  </scstep>
  <scstep>
   <time name="dav">    0.24    0.24</time>
   <time name="total">    0.25    0.26</time>
   <energy>
    <i name="e_fr_energy">    -10.84090572 </i>
    <i name="e_wo_entrp">    -10.84090572 </i>
    <i name="e_0_energy">    -10.84090572 </i>
   </energy>
  </scstep>
  <scstep>
   <time name="dav">    0.33    0.33</time>
   <time name="total">    0.34    0.34</time>
   <energy>
    <i name="alphaZ">      3.36321756 </i>
    <i name="ewald">   -228.54246794 </i>
    <i name="hartreedc">    -14.93072057 </i>
    <i name="XCdc">    -17.96241653 </i>
    <i name="pawpsdc">    869.78000374 </i>
    <i name="pawaedc">   -834.81738204 </i>
    <i name="eentropy">     -0.00000000 </i>
    <i name="bandstr">      6.13634664 </i>
    <i name="atom">    206.13251344 </i>
    <i name="e_fr_energy">    -10.84090571 </i>
    <i name="e_wo_entrp">    -10.84090571 </i>
    <i name="e_0_energy">    -10.84090571 </i>
   </energy>
  </scstep>
  <structure>
   <crystal>
    <varray name="basis" >
     <v>       3.32548900       0.00000000       1.91997200 </v>
     <v>       1.10849600       3.13530100       1.91997200 </v>
     <v>       0.00000000       0.00000000       3.83994300 </v>
    </varray>
    <i name="volume">     40.03681621 </i>
    <varray name="rec_basis" >
     <v>       0.30070766      -0.10631618       0.00000000 </v>
     <v>       0.00000000       0.31894864       0.00000000 </v>
     <v>      -0.15035387      -0.10631626       0.26042053 </v>
    </varray>
   </crystal>
   <varray name="positions" >
    <v>       0.87500000       0.87500000       0.87500000 </v>
    <v>       0.12500000       0.12500000       0.12500000 </v>
   </varray>
  </structure>
  <varray name="forces" >
   <v>       0.00000000      -0.00000000      -0.00000000 </v>
   <v>      -0.00000000       0.00000000       0.00000000 </v>
  </varray>
  <varray name="stress" >
   <v>      19.68639801      -0.00000209       0.00000296 </v>
   <v>      -0.00000209      19.68639679       0.00000209 </v>
   <v>       0.00000296       0.00000209      19.68638838 </v>
  </varray>
  <energy>
   <i name="e_fr_energy">    -10.84090571 </i>
   <i name="e_wo_entrp">    -10.84090571 </i>
   <i name="e_0_energy">     -0.00000000 </i>
  </energy>
  <time name="totalsc">    3.90    4.22</time>
  <eigenvalues>
   <array>
    <dimension dim="1">band</dimension>
    <dimension dim="2">kpoint</dimension>
    <dimension dim="3">spin</dimension>
    <field>eigene</field>
    <field>occ</field>
    <set>
     <set comment="spin 1">
      <set comment="kpoint 1">
       <r>   -6.1303    1.0000 </r>
       <r>    5.8281    1.0000 </r>
       <r>    5.8281    1.0000 </r>
       <r>    5.8281    1.0000 </r>
       <r>    8.3935    0.0000 </r>
       <r>    8.3935    0.0000 </r>
       <r>    8.3935    0.0000 </r>
       <r>    9.2032    0.0000 </r>
       <r>   13.5478    0.0000 </r>
       <r>   13.5478    0.0000 </r>
       <r>   13.7874    0.0000 </r>
       <r>   17.0808    0.0000 </r>
       <r>   17.0808    0.0000 </r>
       <r>   17.0808    0.0000 </r>
       <r>   21.2332    0.0000 </r>
       <r>   28.9340    0.0000 </r>
       <r>   28.9340    0.0000 </r>
       <r>   28.9340    0.0000 </r>
       <r>   30.0363    0.0000 </r>
       <r>   30.0363    0.0000 </r>
       <r>   31.6487    0.0000 </r>
       <r>   31.6487    0.0000 </r>
       <r>   31.6487    0.0000 </r>
       <r>   35.0393    0.0000 </r>
      </set>
      <set comment="kpoint 2">
       <r>   -5.9261    1.0000 </r>
       <r>    4.2313    1.0000 </r>
       <r>    5.5396    1.0000 </r>
       <r>    5.5396    1.0000 </r>
       <r>    8.3333    0.0000 </r>
       <r>    8.8176    0.0000 </r>
       <r>    8.8176    0.0000 </r>
       <r>   10.5462    0.0000 </r>
       <r>   13.0662    0.0000 </r>
       <r>   13.0662    0.0000 </r>
       <r>   14.5743    0.0000 </r>
       <r>   16.5215    0.0000 </r>
       <r>   18.2444    0.0000 </r>
       <r>   18.2444    0.0000 </r>
       <r>   22.4660    0.0000 </r>
       <r>   26.9098    0.0000 </r>
       <r>   26.9098    0.0000 </r>
       <r>   27.2377    0.0000 </r>
       <r>   29.6913    0.0000 </r>
       <r>   29.6913    0.0000 </r>
       <r>   32.1662    0.0000 </r>
       <r>   32.1662    0.0000 </r>
       <r>   33.0534    0.0000 </r>
       <r>   35.2241    0.0000 </r>
      </set>
      <set comment="kpoint 3">
       <r>   -5.3304    1.0000 </r>
       <r>    1.9038    1.0000 </r>
       <r>    5.0695    1.0000 </r>
       <r>    5.0695    1.0000 </r>
       <r>    7.8602    0.0000 </r>
       <r>    9.3352    0.0000 </r>
       <r>    9.3352    0.0000 </r>
       <r>   12.7526    0.0000 </r>
       <r>   13.0232    0.0000 </r>
       <r>   13.0232    0.0000 </r>
       <r>   14.8244    0.0000 </r>
       <r>   17.6729    0.0000 </r>
       <r>   20.4723    0.0000 </r>
       <r>   20.4723    0.0000 </r>
       <r>   23.6894    0.0000 </r>
       <r>   23.6894    0.0000 </r>
       <r>   23.8348    0.0000 </r>
       <r>   25.9195    0.0000 </r>
       <r>   29.8697    0.0000 </r>
       <r>   29.8697    0.0000 </r>
       <r>   32.5131    0.0000 </r>
       <r>   32.5131    0.0000 </r>
       <r>   33.7187    0.0000 </r>
       <r>   35.3219    0.0000 </r>
      </set>
      <set comment="kpoint 4">
       <r>   -4.4366    1.0000 </r>
       <r>   -0.1159    1.0000 </r>
       <r>    4.7429    1.0000 </r>
       <r>    4.7429    1.0000 </r>
       <r>    7.4967    0.0000 </r>
       <r>    9.2797    0.0000 </r>
       <r>    9.2797    0.0000 </r>
       <r>   13.7123    0.0000 </r>
       <r>   14.4101    0.0000 </r>
       <r>   14.4101    0.0000 </r>
       <r>   15.5216    0.0000 </r>
       <r>   19.5868    0.0000 </r>
       <r>   19.5868    0.0000 </r>
       <r>   19.9303    0.0000 </r>
       <r>   22.5050    0.0000 </r>
       <r>   24.3751    0.0000 </r>
       <r>   24.3751    0.0000 </r>
       <r>   28.8310    0.0000 </r>
       <r>   29.7060    0.0000 </r>
       <r>   29.7061    0.0000 </r>
       <r>   29.7168    0.0000 </r>
       <r>   32.6609    0.0000 </r>
       <r>   32.6609    0.0000 </r>
       <r>   34.1997    0.0000 </r>
      </set>
      <set comment="kpoint 5">
       <r>   -3.7986    1.0000 </r>
       <r>   -1.1383    1.0000 </r>
       <r>    4.6312    1.0000 </r>
       <r>    4.6312    1.0000 </r>
       <r>    7.3687    0.0000 </r>
       <r>    9.1683    0.0000 </r>
       <r>    9.1683    0.0000 </r>
       <r>   13.5569    0.0000 </r>
       <r>   16.3771    0.0000 </r>
       <r>   16.3771    0.0000 </r>
       <r>   17.1727    0.0000 </r>
       <r>   17.1727    0.0000 </r>
       <r>   17.1855    0.0000 </r>
       <r>   18.8597    0.0000 </r>
       <r>   25.2179    0.0000 </r>
       <r>   25.8098    0.0000 </r>
       <r>   27.4836    0.0000 </r>
       <r>   27.4837    0.0000 </r>
       <r>   27.6471    0.0000 </r>
       <r>   27.6471    0.0000 </r>
       <r>   31.5468    0.0000 </r>
       <r>   32.2555    0.0000 </r>
       <r>   32.2555    0.0000 </r>
       <r>   33.3221    0.0000 </r>
      </set>
      <set comment="kpoint 6">
       <r>   -5.8573    1.0000 </r>
       <r>    4.4964    1.0000 </r>
       <r>    5.0224    1.0000 </r>
       <r>    5.0224    1.0000 </r>
       <r>    7.8416    0.0000 </r>
       <r>    9.5332    0.0000 </r>
       <r>    9.5332    0.0000 </r>
       <r>   10.2328    0.0000 </r>
       <r>   12.3357    0.0000 </r>
       <r>   13.8504    0.0000 </r>
       <r>   14.8749    0.0000 </r>
       <r>   17.5534    0.0000 </r>
       <r>   17.5534    0.0000 </r>
       <r>   18.0397    0.0000 </r>
       <r>   23.0525    0.0000 </r>
       <r>   26.4389    0.0000 </r>
       <r>   26.4389    0.0000 </r>
       <r>   27.6512    0.0000 </r>
       <r>   28.5193    0.0000 </r>
       <r>   29.2971    0.0000 </r>
       <r>   32.3731    0.0000 </r>
       <r>   32.7436    0.0000 </r>
       <r>   32.7436    0.0000 </r>
       <r>   37.0303    0.0000 </r>
      </set>
      <set comment="kpoint 7">
       <r>   -5.3885    1.0000 </r>
       <r>    2.6067    1.0000 </r>
       <r>    4.5111    1.0000 </r>
       <r>    4.5874    1.0000 </r>
       <r>    7.9774    0.0000 </r>
       <r>    9.5401    0.0000 </r>
       <r>   10.2972    0.0000 </r>
       <r>   10.5786    0.0000 </r>
       <r>   13.3377    0.0000 </r>
       <r>   14.0170    0.0000 </r>
       <r>   15.8583    0.0000 </r>
       <r>   17.4222    0.0000 </r>
       <r>   18.9700    0.0000 </r>
       <r>   20.2370    0.0000 </r>
       <r>   23.4272    0.0000 </r>
       <r>   23.9288    0.0000 </r>
       <r>   25.1006    0.0000 </r>
       <r>   27.3949    0.0000 </r>
       <r>   27.4252    0.0000 </r>
       <r>   28.8833    0.0000 </r>
       <r>   32.1122    0.0000 </r>
       <r>   33.1202    0.0000 </r>
       <r>   34.1145    0.0000 </r>
       <r>   35.7119    0.0000 </r>
      </set>
      <set comment="kpoint 8">
       <r>   -4.5735    1.0000 </r>
       <r>    0.5465    1.0000 </r>
       <r>    3.9962    1.0000 </r>
       <r>    4.2434    1.0000 </r>
       <r>    8.0768    0.0000 </r>
       <r>    9.4721    0.0000 </r>
       <r>   10.2929    0.0000 </r>
       <r>   11.2957    0.0000 </r>
       <r>   15.1486    0.0000 </r>
       <r>   15.1832    0.0000 </r>
       <r>   15.7872    0.0000 </r>
       <r>   19.2317    0.0000 </r>
       <r>   19.2977    0.0000 </r>
       <r>   21.0292    0.0000 </r>
       <r>   22.5112    0.0000 </r>
       <r>   23.4886    0.0000 </r>
       <r>   24.4473    0.0000 </r>
       <r>   27.7139    0.0000 </r>
       <r>   28.4508    0.0000 </r>
       <r>   29.4304    0.0000 </r>
       <r>   30.6136    0.0000 </r>
       <r>   31.4094    0.0000 </r>
       <r>   33.3733    0.0000 </r>
       <r>   34.9162    0.0000 </r>
      </set>
      <set comment="kpoint 9">
       <r>   -3.7120    1.0000 </r>
       <r>   -0.9169    1.0000 </r>
       <r>    3.5507    1.0000 </r>
       <r>    4.2679    1.0000 </r>
       <r>    8.0239    0.0000 </r>
       <r>    9.3440    0.0000 </r>
       <r>    9.9289    0.0000 </r>
       <r>   13.1993    0.0000 </r>
       <r>   14.8251    0.0000 </r>
       <r>   16.3105    0.0000 </r>
       <r>   17.3735    0.0000 </r>
       <r>   17.4827    0.0000 </r>
       <r>   18.3689    0.0000 </r>
       <r>   20.8826    0.0000 </r>
       <r>   24.1549    0.0000 </r>
       <r>   25.4873    0.0000 </r>
       <r>   26.1498    0.0000 </r>
       <r>   26.9210    0.0000 </r>
       <r>   27.7736    0.0000 </r>
       <r>   28.1475    0.0000 </r>
       <r>   30.5483    0.0000 </r>
       <r>   31.8520    0.0000 </r>
       <r>   32.2167    0.0000 </r>
       <r>   33.4150    0.0000 </r>
      </set>
      <set comment="kpoint 10">
       <r>   -3.9566    1.0000 </r>
       <r>   -0.5462    1.0000 </r>
       <r>    3.3690    1.0000 </r>
       <r>    4.5643    1.0000 </r>
       <r>    8.1909    0.0000 </r>
       <r>    9.4519    0.0000 </r>
       <r>    9.6971    0.0000 </r>
       <r>   13.7469    0.0000 </r>
       <r>   13.9241    0.0000 </r>
       <r>   15.0413    0.0000 </r>
       <r>   17.0185    0.0000 </r>
       <r>   18.2802    0.0000 </r>
       <r>   20.0977    0.0000 </r>
       <r>   20.5570    0.0000 </r>
       <r>   22.7149    0.0000 </r>
       <r>   24.4746    0.0000 </r>
       <r>   26.3559    0.0000 </r>
       <r>   28.0117    0.0000 </r>
       <r>   28.2219    0.0000 </r>
       <r>   28.4061    0.0000 </r>
       <r>   30.5575    0.0000 </r>
       <r>   30.9747    0.0000 </r>
       <r>   33.2326    0.0000 </r>
       <r>   33.3781    0.0000 </r>
      </set>
      <set comment="kpoint 11">
       <r>   -4.8799    1.0000 </r>
       <r>    1.2056    1.0000 </r>
       <r>    3.5196    1.0000 </r>
       <r>    5.0555    1.0000 </r>
       <r>    8.5502    0.0000 </r>
       <r>    9.5068    0.0000 </r>
       <r>    9.6848    0.0000 </r>
       <r>   12.1295    0.0000 </r>
       <r>   12.3005    0.0000 </r>
       <r>   15.6760    0.0000 </r>
       <r>   15.9068    0.0000 </r>
       <r>   18.2653    0.0000 </r>
       <r>   19.8178    0.0000 </r>
       <r>   21.2709    0.0000 </r>
       <r>   22.2210    0.0000 </r>
       <r>   23.8884    0.0000 </r>
       <r>   24.6734    0.0000 </r>
       <r>   27.6036    0.0000 </r>
       <r>   27.8168    0.0000 </r>
       <r>   28.7549    0.0000 </r>
       <r>   31.9101    0.0000 </r>
       <r>   32.4031    0.0000 </r>
       <r>   33.2313    0.0000 </r>
       <r>   35.3344    0.0000 </r>
      </set>
      <set comment="kpoint 12">
       <r>   -5.5898    1.0000 </r>
       <r>    3.1468    1.0000 </r>
       <r>    4.2013    1.0000 </r>
       <r>    5.5360    1.0000 </r>
       <r>    8.8746    0.0000 </r>
       <r>    8.9543    0.0000 </r>
       <r>    9.1880    0.0000 </r>
       <r>   11.3820    0.0000 </r>
       <r>   12.1697    0.0000 </r>
       <r>   13.8618    0.0000 </r>
       <r>   15.5919    0.0000 </r>
       <r>   17.0121    0.0000 </r>
       <r>   18.1964    0.0000 </r>
       <r>   20.3097    0.0000 </r>
       <r>   23.5471    0.0000 </r>
       <r>   23.9765    0.0000 </r>
       <r>   26.8162    0.0000 </r>
       <r>   26.9900    0.0000 </r>
       <r>   27.5613    0.0000 </r>
       <r>   28.8936    0.0000 </r>
       <r>   32.3866    0.0000 </r>
       <r>   32.6163    0.0000 </r>
       <r>   34.6434    0.0000 </r>
       <r>   36.3115    0.0000 </r>
      </set>
      <set comment="kpoint 13">
       <r>   -5.0481    1.0000 </r>
       <r>    2.3141    1.0000 </r>
       <r>    3.9403    1.0000 </r>
       <r>    3.9403    1.0000 </r>
       <r>    6.9594    0.0000 </r>
       <r>    8.9617    0.0000 </r>
       <r>   11.5862    0.0000 </r>
       <r>   11.5862    0.0000 </r>
       <r>   13.8983    0.0000 </r>
       <r>   14.7566    0.0000 </r>
       <r>   17.2672    0.0000 </r>
       <r>   18.8429    0.0000 </r>
       <r>   18.8429    0.0000 </r>
       <r>   19.5541    0.0000 </r>
       <r>   23.2510    0.0000 </r>
       <r>   23.2510    0.0000 </r>
       <r>   24.1674    0.0000 </r>
       <r>   26.2137    0.0000 </r>
       <r>   26.7867    0.0000 </r>
       <r>   30.7529    0.0000 </r>
       <r>   32.1439    0.0000 </r>
       <r>   33.1702    0.0000 </r>
       <r>   33.1702    0.0000 </r>
       <r>   35.3471    0.0000 </r>
      </set>
      <set comment="kpoint 14">
       <r>   -4.3380    1.0000 </r>
       <r>    0.8907    1.0000 </r>
       <r>    3.1599    1.0000 </r>
       <r>    3.6224    1.0000 </r>
       <r>    7.1797    0.0000 </r>
       <r>    8.7229    0.0000 </r>
       <r>   11.8277    0.0000 </r>
       <r>   12.0975    0.0000 </r>
       <r>   15.8072    0.0000 </r>
       <r>   16.0178    0.0000 </r>
       <r>   17.4950    0.0000 </r>
       <r>   19.0400    0.0000 </r>
       <r>   19.5983    0.0000 </r>
       <r>   20.6633    0.0000 </r>
       <r>   21.7236    0.0000 </r>
       <r>   22.9473    0.0000 </r>
       <r>   24.2325    0.0000 </r>
       <r>   25.7392    0.0000 </r>
       <r>   27.7173    0.0000 </r>
       <r>   30.0050    0.0000 </r>
       <r>   31.0422    0.0000 </r>
       <r>   32.1809    0.0000 </r>
       <r>   32.2852    0.0000 </r>
       <r>   33.2672    0.0000 </r>
      </set>
      <set comment="kpoint 15">
       <r>   -3.4119    1.0000 </r>
       <r>   -0.5513    1.0000 </r>
       <r>    2.2966    1.0000 </r>
       <r>    3.6256    1.0000 </r>
       <r>    7.3486    0.0000 </r>
       <r>   10.2758    0.0000 </r>
       <r>   11.5762    0.0000 </r>
       <r>   11.7475    0.0000 </r>
       <r>   16.0430    0.0000 </r>
       <r>   16.3660    0.0000 </r>
       <r>   17.9878    0.0000 </r>
       <r>   18.5402    0.0000 </r>
       <r>   18.8716    0.0000 </r>
       <r>   22.6732    0.0000 </r>
       <r>   23.5592    0.0000 </r>
       <r>   24.4612    0.0000 </r>
       <r>   25.1939    0.0000 </r>
       <r>   25.4382    0.0000 </r>
       <r>   25.7692    0.0000 </r>
       <r>   28.7456    0.0000 </r>
       <r>   29.5851    0.0000 </r>
       <r>   31.0339    0.0000 </r>
       <r>   31.4287    0.0000 </r>
       <r>   33.6678    0.0000 </r>
      </set>
      <set comment="kpoint 16">
       <r>   -3.2076    1.0000 </r>
       <r>   -0.8097    1.0000 </r>
       <r>    1.8382    1.0000 </r>
       <r>    3.9439    1.0000 </r>
       <r>    7.6733    0.0000 </r>
       <r>   11.2931    0.0000 </r>
       <r>   11.3090    0.0000 </r>
       <r>   12.7896    0.0000 </r>
       <r>   13.8093    0.0000 </r>
       <r>   13.8500    0.0000 </r>
       <r>   18.4069    0.0000 </r>
       <r>   20.6556    0.0000 </r>
       <r>   20.9784    0.0000 </r>
       <r>   21.8517    0.0000 </r>
       <r>   22.2939    0.0000 </r>
       <r>   24.2229    0.0000 </r>
       <r>   25.2795    0.0000 </r>
       <r>   25.8098    0.0000 </r>
       <r>   27.6572    0.0000 </r>
       <r>   27.9338    0.0000 </r>
       <r>   30.5543    0.0000 </r>
       <r>   31.2199    0.0000 </r>
       <r>   31.6457    0.0000 </r>
       <r>   32.1861    0.0000 </r>
      </set>
      <set comment="kpoint 17">
       <r>   -4.0862    1.0000 </r>
       <r>    0.3511    1.0000 </r>
       <r>    2.0782    1.0000 </r>
       <r>    4.5021    1.0000 </r>
       <r>    8.2794    0.0000 </r>
       <r>   10.6198    0.0000 </r>
       <r>   10.9601    0.0000 </r>
       <r>   11.9795    0.0000 </r>
       <r>   12.2729    0.0000 </r>
       <r>   15.4679    0.0000 </r>
       <r>   18.4504    0.0000 </r>
       <r>   19.0277    0.0000 </r>
       <r>   19.2913    0.0000 </r>
       <r>   22.5064    0.0000 </r>
       <r>   22.8790    0.0000 </r>
       <r>   23.2899    0.0000 </r>
       <r>   24.5369    0.0000 </r>
       <r>   27.0821    0.0000 </r>
       <r>   27.5262    0.0000 </r>
       <r>   29.7731    0.0000 </r>
       <r>   30.6487    0.0000 </r>
       <r>   31.1145    0.0000 </r>
       <r>   32.6526    0.0000 </r>
       <r>   32.9370    0.0000 </r>
      </set>
      <set comment="kpoint 18">
       <r>   -3.7355    1.0000 </r>
       <r>    0.0862    1.0000 </r>
       <r>    3.2243    1.0000 </r>
       <r>    3.2243    1.0000 </r>
       <r>    6.4438    0.0000 </r>
       <r>    7.3678    0.0000 </r>
       <r>   13.8703    0.0000 </r>
       <r>   13.8703    0.0000 </r>
       <r>   16.2608    0.0000 </r>
       <r>   16.5616    0.0000 </r>
       <r>   18.8444    0.0000 </r>
       <r>   18.8444    0.0000 </r>
       <r>   19.4916    0.0000 </r>
       <r>   21.0052    0.0000 </r>
       <r>   21.7937    0.0000 </r>
       <r>   22.6796    0.0000 </r>
       <r>   22.6797    0.0000 </r>
       <r>   24.6771    0.0000 </r>
       <r>   29.2694    0.0000 </r>
       <r>   29.4462    0.0000 </r>
       <r>   29.9213    0.0000 </r>
       <r>   29.9213    0.0000 </r>
       <r>   31.2688    0.0000 </r>
       <r>   33.0260    0.0000 </r>
      </set>
      <set comment="kpoint 19">
       <r>   -2.8381    1.0000 </r>
       <r>   -0.9987    1.0000 </r>
       <r>    2.3952    1.0000 </r>
       <r>    3.1482    1.0000 </r>
       <r>    6.7229    0.0000 </r>
       <r>    7.7956    0.0000 </r>
       <r>   14.0952    0.0000 </r>
       <r>   14.1850    0.0000 </r>
       <r>   16.5943    0.0000 </r>
       <r>   16.6355    0.0000 </r>
       <r>   18.1411    0.0000 </r>
       <r>   18.7163    0.0000 </r>
       <r>   20.7682    0.0000 </r>
       <r>   20.7867    0.0000 </r>
       <r>   21.7696    0.0000 </r>
       <r>   24.5370    0.0000 </r>
       <r>   24.6463    0.0000 </r>
       <r>   25.2598    0.0000 </r>
       <r>   26.6308    0.0000 </r>
       <r>   28.1386    0.0000 </r>
       <r>   28.6035    0.0000 </r>
       <r>   29.3252    0.0000 </r>
       <r>   29.9426    0.0000 </r>
       <r>   31.6844    0.0000 </r>
      </set>
      <set comment="kpoint 20">
       <r>   -2.3992    1.0000 </r>
       <r>   -1.3954    1.0000 </r>
       <r>    1.5292    1.0000 </r>
       <r>    3.4056    1.0000 </r>
       <r>    7.0324    0.0000 </r>
       <r>    9.9565    0.0000 </r>
       <r>   13.2999    0.0000 </r>
       <r>   13.8414    0.0000 </r>
       <r>   14.0694    0.0000 </r>
       <r>   14.3348    0.0000 </r>
       <r>   20.5785    0.0000 </r>
       <r>   20.7160    0.0000 </r>
       <r>   21.3043    0.0000 </r>
       <r>   21.5184    0.0000 </r>
       <r>   21.7334    0.0000 </r>
       <r>   22.9099    0.0000 </r>
       <r>   25.4703    0.0000 </r>
       <r>   25.7900    0.0000 </r>
       <r>   27.3435    0.0000 </r>
       <r>   27.4763    0.0000 </r>
       <r>   28.7376    0.0000 </r>
       <r>   28.8468    0.0000 </r>
       <r>   30.9978    0.0000 </r>
       <r>   31.7653    0.0000 </r>
      </set>
      <set comment="kpoint 21">
       <r>   -1.9854    1.0000 </r>
       <r>   -1.9854    1.0000 </r>
       <r>    2.9788    1.0000 </r>
       <r>    2.9788    1.0000 </r>
       <r>    6.5381    0.0000 </r>
       <r>    6.5381    0.0000 </r>
       <r>   15.9449    0.0000 </r>
       <r>   15.9449    0.0000 </r>
       <r>   16.8015    0.0000 </r>
       <r>   16.8015    0.0000 </r>
       <r>   18.3515    0.0000 </r>
       <r>   18.3515    0.0000 </r>
       <r>   18.8913    0.0000 </r>
       <r>   18.8913    0.0000 </r>
       <r>   24.6821    0.0000 </r>
       <r>   24.6821    0.0000 </r>
       <r>   25.5861    0.0000 </r>
       <r>   25.5862    0.0000 </r>
       <r>   26.0426    0.0000 </r>
       <r>   26.0426    0.0000 </r>
       <r>   27.3659    0.0000 </r>
       <r>   27.3659    0.0000 </r>
       <r>   31.3175    0.0000 </r>
       <r>   31.3175    0.0000 </r>
      </set>
      <set comment="kpoint 22">
       <r>   -4.8007    1.0000 </r>
       <r>    1.5418    1.0000 </r>
       <r>    3.1175    1.0000 </r>
       <r>    4.4023    1.0000 </r>
       <r>    8.2767    0.0000 </r>
       <r>    9.7338    0.0000 </r>
       <r>   10.0211    0.0000 </r>
       <r>   11.3307    0.0000 </r>
       <r>   13.6189    0.0000 </r>
       <r>   16.0849    0.0000 </r>
       <r>   16.9197    0.0000 </r>
       <r>   17.9403    0.0000 </r>
       <r>   19.7016    0.0000 </r>
       <r>   20.9175    0.0000 </r>
       <r>   21.6943    0.0000 </r>
       <r>   24.0530    0.0000 </r>
       <r>   25.1609    0.0000 </r>
       <r>   26.3734    0.0000 </r>
       <r>   27.5601    0.0000 </r>
       <r>   29.2823    0.0000 </r>
       <r>   31.1196    0.0000 </r>
       <r>   31.9116    0.0000 </r>
       <r>   33.7234    0.0000 </r>
       <r>   34.6897    0.0000 </r>
      </set>
      <set comment="kpoint 23">
       <r>   -3.9123    1.0000 </r>
       <r>   -0.0100    1.0000 </r>
       <r>    2.5098    1.0000 </r>
       <r>    3.9010    1.0000 </r>
       <r>    8.7064    0.0000 </r>
       <r>    9.3832    0.0000 </r>
       <r>   10.8483    0.0000 </r>
       <r>   11.7648    0.0000 </r>
       <r>   14.8503    0.0000 </r>
       <r>   15.5632    0.0000 </r>
       <r>   17.8294    0.0000 </r>
       <r>   18.7698    0.0000 </r>
       <r>   20.0714    0.0000 </r>
       <r>   20.9694    0.0000 </r>
       <r>   23.0986    0.0000 </r>
       <r>   24.0780    0.0000 </r>
       <r>   24.8397    0.0000 </r>
       <r>   26.8235    0.0000 </r>
       <r>   27.6728    0.0000 </r>
       <r>   28.6498    0.0000 </r>
       <r>   30.0990    0.0000 </r>
       <r>   31.5592    0.0000 </r>
       <r>   31.8774    0.0000 </r>
       <r>   33.0885    0.0000 </r>
      </set>
      <set comment="kpoint 24">
       <r>   -3.2598    1.0000 </r>
       <r>   -0.9551    1.0000 </r>
       <r>    2.3810    1.0000 </r>
       <r>    3.6714    1.0000 </r>
       <r>    8.8973    0.0000 </r>
       <r>    8.9599    0.0000 </r>
       <r>   11.7403    0.0000 </r>
       <r>   12.9452    0.0000 </r>
       <r>   13.2267    0.0000 </r>
       <r>   16.4107    0.0000 </r>
       <r>   17.5299    0.0000 </r>
       <r>   18.2348    0.0000 </r>
       <r>   21.3787    0.0000 </r>
       <r>   21.4011    0.0000 </r>
       <r>   23.9493    0.0000 </r>
       <r>   24.2924    0.0000 </r>
       <r>   25.3137    0.0000 </r>
       <r>   26.6604    0.0000 </r>
       <r>   26.7991    0.0000 </r>
       <r>   27.8518    0.0000 </r>
       <r>   30.8386    0.0000 </r>
       <r>   31.2124    0.0000 </r>
       <r>   31.3002    0.0000 </r>
       <r>   32.1470    0.0000 </r>
      </set>
      <set comment="kpoint 25">
       <r>   -3.5368    1.0000 </r>
       <r>   -0.1327    1.0000 </r>
       <r>    2.4687    1.0000 </r>
       <r>    3.0715    1.0000 </r>
       <r>    7.7759    0.0000 </r>
       <r>    8.4745    0.0000 </r>
       <r>   11.5836    0.0000 </r>
       <r>   13.8193    0.0000 </r>
       <r>   16.0071    0.0000 </r>
       <r>   16.0522    0.0000 </r>
       <r>   18.7165    0.0000 </r>
       <r>   19.1490    0.0000 </r>
       <r>   20.0537    0.0000 </r>
       <r>   20.4754    0.0000 </r>
       <r>   22.5155    0.0000 </r>
       <r>   22.8947    0.0000 </r>
       <r>   25.3976    0.0000 </r>
       <r>   25.8210    0.0000 </r>
       <r>   27.6695    0.0000 </r>
       <r>   27.7190    0.0000 </r>
       <r>   29.2877    0.0000 </r>
       <r>   30.0853    0.0000 </r>
       <r>   32.1342    0.0000 </r>
       <r>   33.3803    0.0000 </r>
      </set>
      <set comment="kpoint 26">
       <r>   -2.6620    1.0000 </r>
       <r>   -1.1007    1.0000 </r>
       <r>    1.7705    1.0000 </r>
       <r>    2.8708    1.0000 </r>
       <r>    8.2169    0.0000 </r>
       <r>   10.1084    0.0000 </r>
       <r>   11.1070    0.0000 </r>
       <r>   13.2692    0.0000 </r>
       <r>   14.2326    0.0000 </r>
       <r>   16.9139    0.0000 </r>
       <r>   18.0586    0.0000 </r>
       <r>   20.1572    0.0000 </r>
       <r>   21.2007    0.0000 </r>
       <r>   21.8295    0.0000 </r>
       <r>   23.3612    0.0000 </r>
       <r>   24.1996    0.0000 </r>
       <r>   24.5637    0.0000 </r>
       <r>   25.2408    0.0000 </r>
       <r>   26.9238    0.0000 </r>
       <r>   27.5979    0.0000 </r>
       <r>   28.5879    0.0000 </r>
       <r>   29.9968    0.0000 </r>
       <r>   30.8650    0.0000 </r>
       <r>   33.3862    0.0000 </r>
      </set>
      <set comment="kpoint 27">
       <r>   -3.0126    1.0000 </r>
       <r>   -0.7374    1.0000 </r>
       <r>    1.6037    1.0000 </r>
       <r>    3.2466    1.0000 </r>
       <r>    8.6968    0.0000 </r>
       <r>   10.3727    0.0000 </r>
       <r>   11.0440    0.0000 </r>
       <r>   12.8581    0.0000 </r>
       <r>   13.7014    0.0000 </r>
       <r>   15.0772    0.0000 </r>
       <r>   19.9113    0.0000 </r>
       <r>   20.1330    0.0000 </r>
       <r>   20.4506    0.0000 </r>
       <r>   22.1325    0.0000 </r>
       <r>   22.3744    0.0000 </r>
       <r>   24.1939    0.0000 </r>
       <r>   24.9879    0.0000 </r>
       <r>   25.8275    0.0000 </r>
       <r>   26.9683    0.0000 </r>
       <r>   27.9627    0.0000 </r>
       <r>   29.1330    0.0000 </r>
       <r>   30.3681    0.0000 </r>
       <r>   31.7607    0.0000 </r>
       <r>   33.2224    0.0000 </r>
      </set>
      <set comment="kpoint 28">
       <r>   -1.9074    1.0000 </r>
       <r>   -1.9074    1.0000 </r>
       <r>    2.4143    1.0000 </r>
       <r>    2.4143    1.0000 </r>
       <r>    7.7989    0.0000 </r>
       <r>    7.7989    0.0000 </r>
       <r>   13.6762    0.0000 </r>
       <r>   13.6762    0.0000 </r>
       <r>   16.4055    0.0000 </r>
       <r>   16.4055    0.0000 </r>
       <r>   18.7113    0.0000 </r>
       <r>   18.7113    0.0000 </r>
       <r>   21.4164    0.0000 </r>
       <r>   21.4164    0.0000 </r>
       <r>   23.2128    0.0000 </r>
       <r>   23.2128    0.0000 </r>
       <r>   24.9178    0.0000 </r>
       <r>   24.9178    0.0000 </r>
       <r>   27.5346    0.0000 </r>
       <r>   27.5346    0.0000 </r>
       <r>   28.9178    0.0000 </r>
       <r>   28.9178    0.0000 </r>
       <r>   29.8949    0.0000 </r>
       <r>   29.8949    0.0000 </r>
      </set>
      <set comment="kpoint 29">
       <r>   -1.8215    1.0000 </r>
       <r>   -1.8215    1.0000 </r>
       <r>    1.9782    1.0000 </r>
       <r>    1.9782    1.0000 </r>
       <r>   10.0958    0.0000 </r>
       <r>   10.0958    0.0000 </r>
       <r>   10.8341    0.0000 </r>
       <r>   10.8341    0.0000 </r>
       <r>   16.4094    0.0000 </r>
       <r>   16.4094    0.0000 </r>
       <r>   18.8712    0.0000 </r>
       <r>   18.8712    0.0000 </r>
       <r>   22.2731    0.0000 </r>
       <r>   22.2731    0.0000 </r>
       <r>   24.4257    0.0000 </r>
       <r>   24.4257    0.0000 </r>
       <r>   24.7564    0.0000 </r>
       <r>   24.7564    0.0000 </r>
       <r>   25.6416    0.0000 </r>
       <r>   25.6416    0.0000 </r>
       <r>   29.5285    0.0000 </r>
       <r>   29.5285    0.0000 </r>
       <r>   33.3132    0.0000 </r>
       <r>   33.3132    0.0000 </r>
      </set>
     </set>
    </set>
   </array>
  </eigenvalues>
  <separator name="orbital magnetization" >
   <v name="MAGDIPOLOUT">      0.00000000      0.00000000      0.00000000</v>
  </separator>
  <dos>
   <i name="efermi">      6.17606942 </i>
   <total>
    <array>
     <dimension dim="1">gridpoints</dimension>
     <dimension dim="2">spin</dimension>
     <field>energy</field>
     <field>total</field>
     <field>integrated</field>
     <set>
      <set comment="spin 1">
       <r>    -9.3559     0.0000     0.0000 </r>
       <r>    -9.1463     0.0000     0.0000 </r>
       <r>    -8.9368     0.0000     0.0000 </r>
       <r>    -8.7273     0.0000     0.0000 </r>
       <r>    -8.5177     0.0000     0.0000 </r>
       <r>    -8.3082     0.0000     0.0000 </r>
       <r>    -8.0986     0.0000     0.0000 </r>
       <r>    -7.8891     0.0000     0.0000 </r>
       <r>    -7.6796     0.0000     0.0000 </r>
       <r>    -7.4700     0.0000     0.0000 </r>
       <r>    -7.2605     0.0000     0.0000 </r>
       <r>    -7.0510     0.0000     0.0000 </r>
       <r>    -6.8414     0.0000     0.0000 </r>
       <r>    -6.6319     0.0000     0.0000 </r>
       <r>    -6.4223     0.0000     0.0000 </r>
       <r>    -6.2128     0.0002     0.0000 </r>
       <r>    -6.0033     0.0206     0.0044 </r>
       <r>    -5.7937     0.2548     0.0577 </r>
       <r>    -5.5842     0.1300     0.0850 </r>
       <r>    -5.3747     0.4055     0.1700 </r>
       <r>    -5.1651     0.2888     0.2305 </r>
       <r>    -4.9556     0.1185     0.2553 </r>
       <r>    -4.7460     0.8607     0.4357 </r>
       <r>    -4.5365     0.4091     0.5214 </r>
       <r>    -4.3270     0.4933     0.6248 </r>
       <r>    -4.1174     0.2111     0.6690 </r>
       <r>    -3.9079     1.0826     0.8958 </r>
       <r>    -3.6984     0.9018     1.0848 </r>
       <r>    -3.4888     0.5882     1.2080 </r>
       <r>    -3.2793     0.6196     1.3379 </r>
       <r>    -3.0698     0.7788     1.5011 </r>
       <r>    -2.8602     0.5425     1.6147 </r>
       <r>    -2.6507     0.8880     1.8008 </r>
       <r>    -2.4411     0.3618     1.8766 </r>
       <r>    -2.2316     0.1973     1.9180 </r>
       <r>    -2.0221     0.0171     1.9215 </r>
       <r>    -1.8125     0.6749     2.0630 </r>
       <r>    -1.6030     0.0910     2.0820 </r>
       <r>    -1.3935     0.1167     2.1065 </r>
       <r>    -1.1839     0.1226     2.1322 </r>
       <r>    -0.9744     1.4455     2.4351 </r>
       <r>    -0.7648     1.3502     2.7180 </r>
       <r>    -0.5553     0.7769     2.8808 </r>
       <r>    -0.3458     0.5131     2.9883 </r>
       <r>    -0.1362     0.2481     3.0403 </r>
       <r>     0.0733     1.2750     3.3074 </r>
       <r>     0.2828     0.0861     3.3255 </r>
       <r>     0.4924     0.2459     3.3770 </r>
       <r>     0.7019     0.4192     3.4648 </r>
       <r>     0.9115     0.3229     3.5325 </r>
       <r>     1.1210     0.1282     3.5594 </r>
       <r>     1.3305     0.4436     3.6523 </r>
       <r>     1.5401     0.3701     3.7299 </r>
       <r>     1.7496     0.9990     3.9392 </r>
       <r>     1.9591     1.2980     4.2112 </r>
       <r>     2.1687     0.3892     4.2927 </r>
       <r>     2.3782     0.9739     4.4968 </r>
       <r>     2.5877     2.3907     4.9978 </r>
       <r>     2.7973     0.3445     5.0699 </r>
       <r>     3.0068     0.9814     5.2756 </r>
       <r>     3.2164     2.1582     5.7278 </r>
       <r>     3.4259     1.1204     5.9625 </r>
       <r>     3.6354     1.6063     6.2991 </r>
       <r>     3.8450     0.7688     6.4602 </r>
       <r>     4.0545     1.9382     6.8663 </r>
       <r>     4.2640     0.8871     7.0522 </r>
       <r>     4.4736     0.9838     7.2584 </r>
       <r>     4.6831     1.6951     7.6135 </r>
       <r>     4.8927     0.2970     7.6758 </r>
       <r>     5.1022     0.8719     7.8585 </r>
       <r>     5.3117     0.0975     7.8789 </r>
       <r>     5.5213     0.1658     7.9136 </r>
       <r>     5.7308     0.3564     7.9883 </r>
       <r>     5.9403     0.0557     8.0000 </r>
       <r>     6.1499     0.0000     8.0000 </r>
       <r>     6.3594     0.0009     8.0002 </r>
       <r>     6.5690     0.2014     8.0424 </r>
       <r>     6.7785     0.4428     8.1352 </r>
       <r>     6.9880     0.1378     8.1641 </r>
       <r>     7.1976     0.5340     8.2760 </r>
       <r>     7.4071     0.7245     8.4278 </r>
       <r>     7.6166     0.2199     8.4739 </r>
       <r>     7.8262     1.6075     8.8107 </r>
       <r>     8.0357     1.1815     9.0582 </r>
       <r>     8.2452     1.8268     9.4410 </r>
       <r>     8.4548     1.0994     9.6714 </r>
       <r>     8.6643     0.9730     9.8753 </r>
       <r>     8.8739     2.0950    10.3143 </r>
       <r>     9.0834     1.2420    10.5745 </r>
       <r>     9.2929     0.6550    10.7118 </r>
       <r>     9.5025     2.7562    11.2893 </r>
       <r>     9.7120     1.6966    11.6448 </r>
       <r>     9.9215     0.8009    11.8126 </r>
       <r>    10.1311     1.7436    12.1780 </r>
       <r>    10.3406     1.7010    12.5344 </r>
       <r>    10.5502     0.6508    12.6707 </r>
       <r>    10.7597     0.6487    12.8067 </r>
       <r>    10.9692     1.2514    13.0689 </r>
       <r>    11.1788     1.4053    13.3633 </r>
       <r>    11.3883     1.9035    13.7622 </r>
       <r>    11.5978     0.8893    13.9485 </r>
       <r>    11.8074     2.1383    14.3966 </r>
       <r>    12.0169     0.6530    14.5334 </r>
       <r>    12.2265     1.1613    14.7767 </r>
       <r>    12.4360     0.7670    14.9374 </r>
       <r>    12.6455     0.0005    14.9375 </r>
       <r>    12.8551     0.7926    15.1036 </r>
       <r>    13.0646     1.1043    15.3350 </r>
       <r>    13.2741     1.6036    15.6710 </r>
       <r>    13.4837     1.0509    15.8912 </r>
       <r>    13.6932     1.1111    16.1240 </r>
       <r>    13.9027     3.1438    16.7828 </r>
       <r>    14.1123     1.4565    17.0879 </r>
       <r>    14.3218     1.5769    17.4184 </r>
       <r>    14.5314     0.4622    17.5152 </r>
       <r>    14.7409     0.1753    17.5519 </r>
       <r>    14.9504     1.6706    17.9020 </r>
       <r>    15.1600     1.2863    18.1715 </r>
       <r>    15.3695     0.5056    18.2775 </r>
       <r>    15.5790     1.0476    18.4970 </r>
       <r>    15.7886     1.2661    18.7623 </r>
       <r>    15.9981     1.9016    19.1607 </r>
       <r>    16.2077     1.8696    19.5525 </r>
       <r>    16.4172     1.7646    19.9222 </r>
       <r>    16.6267     1.3057    20.1958 </r>
       <r>    16.8363     0.4621    20.2927 </r>
       <r>    17.0458     1.8873    20.6881 </r>
       <r>    17.2553     0.4453    20.7814 </r>
       <r>    17.4649     1.1574    21.0239 </r>
       <r>    17.6744     1.4542    21.3287 </r>
       <r>    17.8840     0.9374    21.5251 </r>
       <r>    18.0935     1.8188    21.9062 </r>
       <r>    18.3030     2.2411    22.3758 </r>
       <r>    18.5126     1.5010    22.6903 </r>
       <r>    18.7221     1.2211    22.9461 </r>
       <r>    18.9316     2.6955    23.5110 </r>
       <r>    19.1412     1.2893    23.7811 </r>
       <r>    19.3507     1.3397    24.0618 </r>
       <r>    19.5602     0.3435    24.1338 </r>
       <r>    19.7698     1.1409    24.3728 </r>
       <r>    19.9793     1.0047    24.5834 </r>
       <r>    20.1889     2.9888    25.2096 </r>
       <r>    20.3984     0.8686    25.3916 </r>
       <r>    20.6079     1.8094    25.7708 </r>
       <r>    20.8175     1.9188    26.1728 </r>
       <r>    21.0270     2.5542    26.7080 </r>
       <r>    21.2365     1.1955    26.9585 </r>
       <r>    21.4461     1.9375    27.3645 </r>
       <r>    21.6556     0.4439    27.4575 </r>
       <r>    21.8652     2.6418    28.0111 </r>
       <r>    22.0747     0.3242    28.0790 </r>
       <r>    22.2842     1.1729    28.3248 </r>
       <r>    22.4938     1.3301    28.6035 </r>
       <r>    22.7033     1.5970    28.9381 </r>
       <r>    22.9128     1.1163    29.1720 </r>
       <r>    23.1224     1.4336    29.4724 </r>
       <r>    23.3319     1.2745    29.7395 </r>
       <r>    23.5415     1.8399    30.1250 </r>
       <r>    23.7510     0.7536    30.2829 </r>
       <r>    23.9605     1.3177    30.5590 </r>
       <r>    24.1701     2.4434    31.0710 </r>
       <r>    24.3796     2.7523    31.6477 </r>
       <r>    24.5891     2.9991    32.2761 </r>
       <r>    24.7987     1.6561    32.6231 </r>
       <r>    25.0082     1.5784    32.9539 </r>
       <r>    25.2177     1.6719    33.3042 </r>
       <r>    25.4273     2.6810    33.8659 </r>
       <r>    25.6368     1.1980    34.1170 </r>
       <r>    25.8464     2.3331    34.6059 </r>
       <r>    26.0559     0.5569    34.7225 </r>
       <r>    26.2654     0.5917    34.8465 </r>
       <r>    26.4750     1.0884    35.0746 </r>
       <r>    26.6845     0.7914    35.2404 </r>
       <r>    26.8940     2.1764    35.6964 </r>
       <r>    27.1036     2.1148    36.1396 </r>
       <r>    27.3131     0.2639    36.1949 </r>
       <r>    27.5227     1.8898    36.5908 </r>
       <r>    27.7322     5.2812    37.6974 </r>
       <r>    27.9417     2.1935    38.1571 </r>
       <r>    28.1513     1.4862    38.4685 </r>
       <r>    28.3608     0.8501    38.6466 </r>
       <r>    28.5703     1.3173    38.9226 </r>
       <r>    28.7799     2.8088    39.5112 </r>
       <r>    28.9894     1.7222    39.8720 </r>
       <r>    29.1990     0.4575    39.9679 </r>
       <r>    29.4085     1.7014    40.3244 </r>
       <r>    29.6180     1.0271    40.5396 </r>
       <r>    29.8276     1.0759    40.7651 </r>
       <r>    30.0371     2.6209    41.3142 </r>
       <r>    30.2466     1.4833    41.6250 </r>
       <r>    30.4562     0.4487    41.7190 </r>
       <r>    30.6657     1.9098    42.1192 </r>
       <r>    30.8752     1.1444    42.3590 </r>
       <r>    31.0848     2.0086    42.7799 </r>
       <r>    31.2943     1.8314    43.1637 </r>
       <r>    31.5039     1.3214    43.4405 </r>
       <r>    31.7134     1.8181    43.8215 </r>
       <r>    31.9229     2.5321    44.3521 </r>
       <r>    32.1325     1.2776    44.6198 </r>
       <r>    32.3420     2.8777    45.2228 </r>
       <r>    32.5515     1.0105    45.4345 </r>
       <r>    32.7611     0.9320    45.6298 </r>
       <r>    32.9706     0.2643    45.6852 </r>
       <r>    33.1802     1.8643    46.0758 </r>
       <r>    33.3897     3.5183    46.8130 </r>
       <r>    33.5992     1.2584    47.0767 </r>
       <r>    33.8088     1.0277    47.2921 </r>
       <r>    34.0183     0.0058    47.2933 </r>
       <r>    34.2278     0.5630    47.4113 </r>
       <r>    34.4374     0.0321    47.4180 </r>
       <r>    34.6469     0.1713    47.4539 </r>
       <r>    34.8565     0.5201    47.5629 </r>
       <r>    35.0660     0.4415    47.6554 </r>
       <r>    35.2755     0.1804    47.6932 </r>
       <r>    35.4851     0.6813    47.8359 </r>
       <r>    35.6946     0.1398    47.8652 </r>
       <r>    35.9041     0.3076    47.9297 </r>
       <r>    36.1137     0.0000    47.9297 </r>
       <r>    36.3232     0.1410    47.9592 </r>
       <r>    36.5327     0.0828    47.9766 </r>
       <r>    36.7423     0.0000    47.9766 </r>
       <r>    36.9518     0.0015    47.9769 </r>
       <r>    37.1614     0.1104    48.0000 </r>
       <r>    37.3709     0.0000    48.0000 </r>
       <r>    37.5804     0.0000    48.0000 </r>
       <r>    37.7900     0.0000    48.0000 </r>
       <r>    37.9995     0.0000    48.0000 </r>
       <r>    38.2090     0.0000    48.0000 </r>
       <r>    38.4186     0.0000    48.0000 </r>
       <r>    38.6281     0.0000    48.0000 </r>
       <r>    38.8377     0.0000    48.0000 </r>
       <r>    39.0472     0.0000    48.0000 </r>
       <r>    39.2567     0.0000    48.0000 </r>
       <r>    39.4663     0.0000    48.0000 </r>
       <r>    39.6758     0.0000    48.0000 </r>
       <r>    39.8853     0.0000    48.0000 </r>
       <r>    40.0949     0.0000    48.0000 </r>
       <r>    40.3044     0.0000    48.0000 </r>
       <r>    40.5140     0.0000    48.0000 </r>
       <r>    40.7235     0.0000    48.0000 </r>
       <r>    40.9330     0.0000    48.0000 </r>
       <r>    41.1426     0.0000    48.0000 </r>
       <r>    41.3521     0.0000    48.0000 </r>
       <r>    41.5616     0.0000    48.0000 </r>
       <r>    41.7712     0.0000    48.0000 </r>
       <r>    41.9807     0.0000    48.0000 </r>
       <r>    42.1902     0.0000    48.0000 </r>
       <r>    42.3998     0.0000    48.0000 </r>
       <r>    42.6093     0.0000    48.0000 </r>
       <r>    42.8189     0.0000    48.0000 </r>
       <r>    43.0284     0.0000    48.0000 </r>
       <r>    43.2379     0.0000    48.0000 </r>
       <r>    43.4475     0.0000    48.0000 </r>
       <r>    43.6570     0.0000    48.0000 </r>
       <r>    43.8665     0.0000    48.0000 </r>
       <r>    44.0761     0.0000    48.0000 </r>
       <r>    44.2856     0.0000    48.0000 </r>
       <r>    44.4952     0.0000    48.0000 </r>
       <r>    44.7047     0.0000    48.0000 </r>
       <r>    44.9142     0.0000    48.0000 </r>
       <r>    45.1238     0.0000    48.0000 </r>
       <r>    45.3333     0.0000    48.0000 </r>
       <r>    45.5428     0.0000    48.0000 </r>
       <r>    45.7524     0.0000    48.0000 </r>
       <r>    45.9619     0.0000    48.0000 </r>
       <r>    46.1715     0.0000    48.0000 </r>
       <r>    46.3810     0.0000    48.0000 </r>
       <r>    46.5905     0.0000    48.0000 </r>
       <r>    46.8001     0.0000    48.0000 </r>
       <r>    47.0096     0.0000    48.0000 </r>
       <r>    47.2191     0.0000    48.0000 </r>
       <r>    47.4287     0.0000    48.0000 </r>
       <r>    47.6382     0.0000    48.0000 </r>
       <r>    47.8477     0.0000    48.0000 </r>
       <r>    48.0573     0.0000    48.0000 </r>
       <r>    48.2668     0.0000    48.0000 </r>
       <r>    48.4764     0.0000    48.0000 </r>
       <r>    48.6859     0.0000    48.0000 </r>
       <r>    48.8954     0.0000    48.0000 </r>
       <r>    49.1050     0.0000    48.0000 </r>
       <r>    49.3145     0.0000    48.0000 </r>
       <r>    49.5240     0.0000    48.0000 </r>
       <r>    49.7336     0.0000    48.0000 </r>
       <r>    49.9431     0.0000    48.0000 </r>
       <r>    50.1527     0.0000    48.0000 </r>
       <r>    50.3622     0.0000    48.0000 </r>
       <r>    50.5717     0.0000    48.0000 </r>
       <r>    50.7813     0.0000    48.0000 </r>
       <r>    50.9908     0.0000    48.0000 </r>
       <r>    51.2003     0.0000    48.0000 </r>
       <r>    51.4099     0.0000    48.0000 </r>
       <r>    51.6194     0.0000    48.0000 </r>
       <r>    51.8290     0.0000    48.0000 </r>
       <r>    52.0385     0.0000    48.0000 </r>
       <r>    52.2480     0.0000    48.0000 </r>
       <r>    52.4576     0.0000    48.0000 </r>
       <r>    52.6671     0.0000    48.0000 </r>
       <r>    52.8766     0.0000    48.0000 </r>
       <r>    53.0862     0.0000    48.0000 </r>
       <r>    53.2957     0.0000    48.0000 </r>
       <r>    53.5052     0.0000    48.0000 </r>
      </set>
     </set>
    </array>
   </total>
   <partial>
    <array>
     <dimension dim="1">gridpoints</dimension>
     <dimension dim="2">spin</dimension>
     <dimension dim="3">ion</dimension>
     <field>energy</field>
     <field>  s</field>
     <field>  p</field>
     <field>  d</field>
     <set>
      <set comment="ion 1">
       <set comment="spin 1">
        <r>    -9.3559     0.0000     0.0000     0.0000 </r>
        <r>    -9.1463     0.0000     0.0000     0.0000 </r>
        <r>    -8.9368     0.0000     0.0000     0.0000 </r>
        <r>    -8.7273     0.0000     0.0000     0.0000 </r>
        <r>    -8.5177     0.0000     0.0000     0.0000 </r>
        <r>    -8.3082     0.0000     0.0000     0.0000 </r>
        <r>    -8.0986     0.0000     0.0000     0.0000 </r>
        <r>    -7.8891     0.0000     0.0000     0.0000 </r>
        <r>    -7.6796     0.0000     0.0000     0.0000 </r>
        <r>    -7.4700     0.0000     0.0000     0.0000 </r>
        <r>    -7.2605     0.0000     0.0000     0.0000 </r>
        <r>    -7.0510     0.0000     0.0000     0.0000 </r>
        <r>    -6.8414     0.0000     0.0000     0.0000 </r>
        <r>    -6.6319     0.0000     0.0000     0.0000 </r>
        <r>    -6.4223     0.0000     0.0000     0.0000 </r>
        <r>    -6.2128     0.0000     0.0000     0.0000 </r>
        <r>    -6.0033     0.0044     0.0000     0.0000 </r>
        <r>    -5.7937     0.0541     0.0006     0.0000 </r>
        <r>    -5.5842     0.0274     0.0007     0.0000 </r>
        <r>    -5.3747     0.0853     0.0030     0.0000 </r>
        <r>    -5.1651     0.0607     0.0023     0.0000 </r>
        <r>    -4.9556     0.0246     0.0014     0.0000 </r>
        <r>    -4.7460     0.1797     0.0113     0.0000 </r>
        <r>    -4.5365     0.0857     0.0061     0.0000 </r>
        <r>    -4.3270     0.1028     0.0084     0.0000 </r>
        <r>    -4.1174     0.0436     0.0040     0.0000 </r>
        <r>    -3.9079     0.2291     0.0207     0.0000 </r>
        <r>    -3.6984     0.1926     0.0175     0.0000 </r>
        <r>    -3.4888     0.1226     0.0141     0.0000 </r>
        <r>    -3.2793     0.1312     0.0150     0.0000 </r>
        <r>    -3.0698     0.1693     0.0179     0.0000 </r>
        <r>    -2.8602     0.1133     0.0160     0.0000 </r>
        <r>    -2.6507     0.1834     0.0291     0.0000 </r>
        <r>    -2.4411     0.0762     0.0115     0.0000 </r>
        <r>    -2.2316     0.0421     0.0065     0.0000 </r>
        <r>    -2.0221     0.0033     0.0008     0.0000 </r>
        <r>    -1.8125     0.1343     0.0296     0.0000 </r>
        <r>    -1.6030     0.0186     0.0038     0.0000 </r>
        <r>    -1.3935     0.0214     0.0065     0.0000 </r>
        <r>    -1.1839     0.0219     0.0071     0.0000 </r>
        <r>    -0.9744     0.2536     0.0896     0.0000 </r>
        <r>    -0.7648     0.1873     0.1068     0.0000 </r>
        <r>    -0.5553     0.1215     0.0573     0.0000 </r>
        <r>    -0.3458     0.0687     0.0431     0.0000 </r>
        <r>    -0.1362     0.0419     0.0181     0.0000 </r>
        <r>     0.0733     0.1904     0.1046     0.0000 </r>
        <r>     0.2828     0.0151     0.0062     0.0000 </r>
        <r>     0.4924     0.0368     0.0211     0.0000 </r>
        <r>     0.7019     0.0488     0.0419     0.0000 </r>
        <r>     0.9115     0.0521     0.0276     0.0000 </r>
        <r>     1.1210     0.0205     0.0110     0.0000 </r>
        <r>     1.3305     0.0509     0.0473     0.0000 </r>
        <r>     1.5401     0.0308     0.0455     0.0000 </r>
        <r>     1.7496     0.0378     0.1413     0.0000 </r>
        <r>     1.9591     0.0285     0.1940     0.0000 </r>
        <r>     2.1687     0.0038     0.0608     0.0000 </r>
        <r>     2.3782     0.0367     0.1466     0.0000 </r>
        <r>     2.5877     0.0551     0.3819     0.0000 </r>
        <r>     2.7973     0.0340     0.0438     0.0000 </r>
        <r>     3.0068     0.0016     0.1761     0.0000 </r>
        <r>     3.2164     0.0336     0.3815     0.0000 </r>
        <r>     3.4259     0.0169     0.2015     0.0000 </r>
        <r>     3.6354     0.0290     0.2915     0.0000 </r>
        <r>     3.8450     0.0007     0.1505     0.0000 </r>
        <r>     4.0545     0.0193     0.3719     0.0000 </r>
        <r>     4.2640     0.0099     0.1717     0.0000 </r>
        <r>     4.4736     0.0081     0.1972     0.0000 </r>
        <r>     4.6831     0.0203     0.3395     0.0000 </r>
        <r>     4.8927     0.0000     0.0644     0.0000 </r>
        <r>     5.1022     0.0000     0.1862     0.0000 </r>
        <r>     5.3117     0.0000     0.0210     0.0000 </r>
        <r>     5.5213     0.0000     0.0359     0.0000 </r>
        <r>     5.7308     0.0000     0.0771     0.0000 </r>
        <r>     5.9403     0.0000     0.0120     0.0000 </r>
        <r>     6.1499     0.0000     0.0000     0.0000 </r>
        <r>     6.3594     0.0000     0.0000     0.0000 </r>
        <r>     6.5690     0.0105     0.0087     0.0000 </r>
        <r>     6.7785     0.0225     0.0181     0.0000 </r>
        <r>     6.9880     0.0063     0.0088     0.0000 </r>
        <r>     7.1976     0.0249     0.0320     0.0000 </r>
        <r>     7.4071     0.0437     0.0355     0.0000 </r>
        <r>     7.6166     0.0315     0.0069     0.0000 </r>
        <r>     7.8262     0.0718     0.1070     0.0000 </r>
        <r>     8.0357     0.0728     0.0972     0.0000 </r>
        <r>     8.2452     0.1210     0.1304     0.0000 </r>
        <r>     8.4548     0.0525     0.0952     0.0000 </r>
        <r>     8.6643     0.0710     0.0674     0.0000 </r>
        <r>     8.8739     0.0839     0.1829     0.0000 </r>
        <r>     9.0834     0.0473     0.1150     0.0000 </r>
        <r>     9.2929     0.0140     0.0715     0.0000 </r>
        <r>     9.5025     0.0945     0.2845     0.0000 </r>
        <r>     9.7120     0.0579     0.2016     0.0000 </r>
        <r>     9.9215     0.0338     0.0774     0.0000 </r>
        <r>    10.1311     0.0152     0.1483     0.0000 </r>
        <r>    10.3406     0.0380     0.1865     0.0000 </r>
        <r>    10.5502     0.0258     0.0669     0.0000 </r>
        <r>    10.7597     0.0223     0.0606     0.0000 </r>
        <r>    10.9692     0.0503     0.1144     0.0000 </r>
        <r>    11.1788     0.0615     0.1391     0.0000 </r>
        <r>    11.3883     0.0466     0.2096     0.0000 </r>
        <r>    11.5978     0.0416     0.1150     0.0000 </r>
        <r>    11.8074     0.0397     0.2620     0.0000 </r>
        <r>    12.0169     0.0288     0.0846     0.0000 </r>
        <r>    12.2265     0.0276     0.1134     0.0000 </r>
        <r>    12.4360     0.0048     0.0095     0.0000 </r>
        <r>    12.6455     0.0000     0.0000     0.0000 </r>
        <r>    12.8551     0.0318     0.0925     0.0000 </r>
        <r>    13.0646     0.0115     0.0650     0.0000 </r>
        <r>    13.2741     0.0263     0.1697     0.0000 </r>
        <r>    13.4837     0.0576     0.1204     0.0000 </r>
        <r>    13.6932     0.0298     0.1002     0.0000 </r>
        <r>    13.9027     0.0586     0.3444     0.0000 </r>
        <r>    14.1123     0.0207     0.1162     0.0000 </r>
        <r>    14.3218     0.0248     0.1997     0.0000 </r>
        <r>    14.5314     0.0014     0.0152     0.0000 </r>
        <r>    14.7409     0.0105     0.0046     0.0000 </r>
        <r>    14.9504     0.0405     0.0995     0.0000 </r>
        <r>    15.1600     0.0230     0.0839     0.0000 </r>
        <r>    15.3695     0.0018     0.0316     0.0000 </r>
        <r>    15.5790     0.0224     0.1271     0.0000 </r>
        <r>    15.7886     0.0506     0.0970     0.0000 </r>
        <r>    15.9981     0.0717     0.1628     0.0000 </r>
        <r>    16.2077     0.0726     0.2156     0.0000 </r>
        <r>    16.4172     0.0001     0.0944     0.0000 </r>
        <r>    16.6267     0.0206     0.1259     0.0000 </r>
        <r>    16.8363     0.0017     0.0302     0.0000 </r>
        <r>    17.0458     0.0270     0.1623     0.0000 </r>
        <r>    17.2553     0.0085     0.0395     0.0000 </r>
        <r>    17.4649     0.0264     0.0922     0.0000 </r>
        <r>    17.6744     0.0137     0.1312     0.0000 </r>
        <r>    17.8840     0.0291     0.0174     0.0000 </r>
        <r>    18.0935     0.0261     0.1141     0.0000 </r>
        <r>    18.3030     0.0415     0.1330     0.0000 </r>
        <r>    18.5126     0.0575     0.0982     0.0000 </r>
        <r>    18.7221     0.0420     0.1672     0.0000 </r>
        <r>    18.9316     0.0857     0.3099     0.0000 </r>
        <r>    19.1412     0.0111     0.0730     0.0000 </r>
        <r>    19.3507     0.0191     0.1039     0.0000 </r>
        <r>    19.5602     0.0020     0.0364     0.0000 </r>
        <r>    19.7698     0.0144     0.0564     0.0000 </r>
        <r>    19.9793     0.0191     0.0561     0.0000 </r>
        <r>    20.1889     0.0114     0.2829     0.0000 </r>
        <r>    20.3984     0.0032     0.0361     0.0000 </r>
        <r>    20.6079     0.0093     0.1953     0.0000 </r>
        <r>    20.8175     0.0129     0.1286     0.0000 </r>
        <r>    21.0270     0.0446     0.2197     0.0000 </r>
        <r>    21.2365     0.0211     0.0792     0.0000 </r>
        <r>    21.4461     0.0183     0.2136     0.0000 </r>
        <r>    21.6556     0.0074     0.0253     0.0000 </r>
        <r>    21.8652     0.0206     0.1756     0.0000 </r>
        <r>    22.0747     0.0038     0.0341     0.0000 </r>
        <r>    22.2842     0.0141     0.0700     0.0000 </r>
        <r>    22.4938     0.0371     0.0488     0.0000 </r>
        <r>    22.7033     0.0293     0.0746     0.0000 </r>
        <r>    22.9128     0.0234     0.0331     0.0000 </r>
        <r>    23.1224     0.0129     0.0629     0.0000 </r>
        <r>    23.3319     0.0044     0.0773     0.0000 </r>
        <r>    23.5415     0.0174     0.0834     0.0000 </r>
        <r>    23.7510     0.0017     0.0323     0.0000 </r>
        <r>    23.9605     0.0149     0.1236     0.0000 </r>
        <r>    24.1701     0.0238     0.1995     0.0000 </r>
        <r>    24.3796     0.0440     0.0931     0.0000 </r>
        <r>    24.5891     0.0156     0.2273     0.0000 </r>
        <r>    24.7987     0.0338     0.0823     0.0000 </r>
        <r>    25.0082     0.0330     0.0495     0.0000 </r>
        <r>    25.2177     0.0180     0.0792     0.0000 </r>
        <r>    25.4273     0.0376     0.1255     0.0000 </r>
        <r>    25.6368     0.0123     0.0433     0.0000 </r>
        <r>    25.8464     0.0450     0.1783     0.0000 </r>
        <r>    26.0559     0.0081     0.0416     0.0000 </r>
        <r>    26.2654     0.0120     0.0313     0.0000 </r>
        <r>    26.4750     0.0006     0.0504     0.0000 </r>
        <r>    26.6845     0.0096     0.0467     0.0000 </r>
        <r>    26.8940     0.0058     0.0991     0.0000 </r>
        <r>    27.1036     0.0166     0.0689     0.0000 </r>
        <r>    27.3131     0.0038     0.0184     0.0000 </r>
        <r>    27.5227     0.0083     0.0948     0.0000 </r>
        <r>    27.7322     0.0332     0.2663     0.0000 </r>
        <r>    27.9417     0.0056     0.0882     0.0000 </r>
        <r>    28.1513     0.0119     0.0602     0.0000 </r>
        <r>    28.3608     0.0010     0.0199     0.0000 </r>
        <r>    28.5703     0.0139     0.0664     0.0000 </r>
        <r>    28.7799     0.0519     0.1019     0.0000 </r>
        <r>    28.9894     0.0253     0.0725     0.0000 </r>
        <r>    29.1990     0.0041     0.0186     0.0000 </r>
        <r>    29.4085     0.0184     0.0398     0.0000 </r>
        <r>    29.6180     0.0070     0.0432     0.0000 </r>
        <r>    29.8276     0.0027     0.0223     0.0000 </r>
        <r>    30.0371     0.0143     0.0532     0.0000 </r>
        <r>    30.2466     0.0373     0.0460     0.0000 </r>
        <r>    30.4562     0.0033     0.0026     0.0000 </r>
        <r>    30.6657     0.0102     0.0745     0.0000 </r>
        <r>    30.8752     0.0101     0.0531     0.0000 </r>
        <r>    31.0848     0.0212     0.0666     0.0000 </r>
        <r>    31.2943     0.0340     0.0517     0.0000 </r>
        <r>    31.5039     0.0197     0.0373     0.0000 </r>
        <r>    31.7134     0.0164     0.0446     0.0000 </r>
        <r>    31.9229     0.0171     0.1101     0.0000 </r>
        <r>    32.1325     0.0191     0.0670     0.0000 </r>
        <r>    32.3420     0.0226     0.1344     0.0000 </r>
        <r>    32.5515     0.0071     0.1052     0.0000 </r>
        <r>    32.7611     0.0058     0.1005     0.0000 </r>
        <r>    32.9706     0.0001     0.0186     0.0000 </r>
        <r>    33.1802     0.0234     0.1345     0.0000 </r>
        <r>    33.3897     0.0414     0.1451     0.0000 </r>
        <r>    33.5992     0.0040     0.0670     0.0000 </r>
        <r>    33.8088     0.0110     0.0373     0.0000 </r>
        <r>    34.0183     0.0000     0.0003     0.0000 </r>
        <r>    34.2278     0.0008     0.0331     0.0000 </r>
        <r>    34.4374     0.0000     0.0020     0.0000 </r>
        <r>    34.6469     0.0004     0.0146     0.0000 </r>
        <r>    34.8565     0.0032     0.0309     0.0000 </r>
        <r>    35.0660     0.0035     0.0147     0.0000 </r>
        <r>    35.2755     0.0006     0.0016     0.0000 </r>
        <r>    35.4851     0.0053     0.0309     0.0000 </r>
        <r>    35.6946     0.0011     0.0084     0.0000 </r>
        <r>    35.9041     0.0023     0.0186     0.0000 </r>
        <r>    36.1137     0.0000     0.0000     0.0000 </r>
        <r>    36.3232     0.0006     0.0042     0.0000 </r>
        <r>    36.5327     0.0004     0.0025     0.0000 </r>
        <r>    36.7423     0.0000     0.0000     0.0000 </r>
        <r>    36.9518     0.0000     0.0000     0.0000 </r>
        <r>    37.1614     0.0000     0.0010     0.0000 </r>
        <r>    37.3709     0.0000     0.0000     0.0000 </r>
        <r>    37.5804     0.0000     0.0000     0.0000 </r>
        <r>    37.7900     0.0000     0.0000     0.0000 </r>
        <r>    37.9995     0.0000     0.0000     0.0000 </r>
        <r>    38.2090     0.0000     0.0000     0.0000 </r>
        <r>    38.4186     0.0000     0.0000     0.0000 </r>
        <r>    38.6281     0.0000     0.0000     0.0000 </r>
        <r>    38.8377     0.0000     0.0000     0.0000 </r>
        <r>    39.0472     0.0000     0.0000     0.0000 </r>
        <r>    39.2567     0.0000     0.0000     0.0000 </r>
        <r>    39.4663     0.0000     0.0000     0.0000 </r>
        <r>    39.6758     0.0000     0.0000     0.0000 </r>
        <r>    39.8853     0.0000     0.0000     0.0000 </r>
        <r>    40.0949     0.0000     0.0000     0.0000 </r>
        <r>    40.3044     0.0000     0.0000     0.0000 </r>
        <r>    40.5140     0.0000     0.0000     0.0000 </r>
        <r>    40.7235     0.0000     0.0000     0.0000 </r>
        <r>    40.9330     0.0000     0.0000     0.0000 </r>
        <r>    41.1426     0.0000     0.0000     0.0000 </r>
        <r>    41.3521     0.0000     0.0000     0.0000 </r>
        <r>    41.5616     0.0000     0.0000     0.0000 </r>
        <r>    41.7712     0.0000     0.0000     0.0000 </r>
        <r>    41.9807     0.0000     0.0000     0.0000 </r>
        <r>    42.1902     0.0000     0.0000     0.0000 </r>
        <r>    42.3998     0.0000     0.0000     0.0000 </r>
        <r>    42.6093     0.0000     0.0000     0.0000 </r>
        <r>    42.8189     0.0000     0.0000     0.0000 </r>
        <r>    43.0284     0.0000     0.0000     0.0000 </r>
[...]
       </set>
       <set comment="band 20">
        <r>  0.0048  0.0471  0.0000 </r>
        <r>  0.0048  0.0471  0.0000 </r>
       </set>
       <set comment="band 21">
        <r>  0.0259  0.0359  0.0000 </r>
        <r>  0.0259  0.0359  0.0000 </r>
       </set>
       <set comment="band 22">
        <r>  0.0157  0.0106  0.0000 </r>
        <r>  0.0157  0.0106  0.0000 </r>
       </set>
       <set comment="band 23">
        <r>  0.0037  0.0482  0.0000 </r>
        <r>  0.0037  0.0482  0.0000 </r>
       </set>
       <set comment="band 24">
        <r>  0.0195  0.0483  0.0000 </r>
        <r>  0.0195  0.0483  0.0000 </r>
       </set>
      </set>
      <set comment="kpoint 24">
       <set comment="band 1">
        <r>  0.2195  0.0216  0.0000 </r>
        <r>  0.2195  0.0216  0.0000 </r>
       </set>
       <set comment="band 2">
        <r>  0.1328  0.0811  0.0000 </r>
        <r>  0.1328  0.0811  0.0000 </r>
       </set>
       <set comment="band 3">
        <r>  0.0384  0.1495  0.0000 </r>
        <r>  0.0384  0.1495  0.0000 </r>
       </set>
       <set comment="band 4">
        <r>  0.0009  0.1922  0.0000 </r>
        <r>  0.0009  0.1922  0.0000 </r>
       </set>
       <set comment="band 5">
        <r>  0.0798  0.0799  0.0000 </r>
        <r>  0.0798  0.0799  0.0000 </r>
       </set>
       <set comment="band 6">
        <r>  0.0078  0.0827  0.0000 </r>
        <r>  0.0078  0.0827  0.0000 </r>
       </set>
       <set comment="band 7">
        <r>  0.0230  0.1186  0.0000 </r>
        <r>  0.0230  0.1186  0.0000 </r>
       </set>
       <set comment="band 8">
        <r>  0.0154  0.0784  0.0000 </r>
        <r>  0.0154  0.0784  0.0000 </r>
       </set>
       <set comment="band 9">
        <r>  0.0197  0.1320  0.0000 </r>
        <r>  0.0197  0.1320  0.0000 </r>
       </set>
       <set comment="band 10">
        <r>  0.0000  0.0465  0.0000 </r>
        <r>  0.0000  0.0465  0.0000 </r>
       </set>
       <set comment="band 11">
        <r>  0.0154  0.1224  0.0000 </r>
        <r>  0.0154  0.1224  0.0000 </r>
       </set>
       <set comment="band 12">
        <r>  0.0435  0.0373  0.0000 </r>
        <r>  0.0435  0.0373  0.0000 </r>
       </set>
       <set comment="band 13">
        <r>  0.0091  0.2154  0.0000 </r>
        <r>  0.0091  0.2154  0.0000 </r>
       </set>
       <set comment="band 14">
        <r>  0.0129  0.0582  0.0000 </r>
        <r>  0.0129  0.0582  0.0000 </r>
       </set>
       <set comment="band 15">
        <r>  0.0001  0.0780  0.0000 </r>
        <r>  0.0001  0.0780  0.0000 </r>
       </set>
       <set comment="band 16">
        <r>  0.0373  0.0043  0.0000 </r>
        <r>  0.0373  0.0043  0.0000 </r>
       </set>
       <set comment="band 17">
        <r>  0.0235  0.0179  0.0000 </r>
        <r>  0.0235  0.0179  0.0000 </r>
       </set>
       <set comment="band 18">
        <r>  0.0021  0.0597  0.0000 </r>
        <r>  0.0021  0.0597  0.0000 </r>
       </set>
       <set comment="band 19">
        <r>  0.0000  0.0424  0.0000 </r>
        <r>  0.0000  0.0424  0.0000 </r>
       </set>
       <set comment="band 20">
        <r>  0.0008  0.0648  0.0000 </r>
        <r>  0.0008  0.0648  0.0000 </r>
       </set>
       <set comment="band 21">
        <r>  0.0075  0.0359  0.0000 </r>
        <r>  0.0075  0.0359  0.0000 </r>
       </set>
       <set comment="band 22">
        <r>  0.0000  0.0143  0.0000 </r>
        <r>  0.0000  0.0143  0.0000 </r>
       </set>
       <set comment="band 23">
        <r>  0.0065  0.0235  0.0000 </r>
        <r>  0.0065  0.0235  0.0000 </r>
       </set>
       <set comment="band 24">
        <r>  0.0394  0.0399  0.0000 </r>
        <r>  0.0394  0.0399  0.0000 </r>
       </set>
      </set>
      <set comment="kpoint 25">
       <set comment="band 1">
        <r>  0.2042  0.0266  0.0000 </r>
        <r>  0.2042  0.0266  0.0000 </r>
       </set>
       <set comment="band 2">
        <r>  0.1818  0.0679  0.0000 </r>
        <r>  0.1818  0.0679  0.0000 </r>
       </set>
       <set comment="band 3">
        <r>  0.0088  0.1674  0.0000 </r>
        <r>  0.0088  0.1674  0.0000 </r>
       </set>
       <set comment="band 4">
        <r>  0.0007  0.1822  0.0000 </r>
        <r>  0.0007  0.1822  0.0000 </r>
       </set>
       <set comment="band 5">
        <r>  0.0371  0.0839  0.0000 </r>
        <r>  0.0371  0.0839  0.0000 </r>
       </set>
       <set comment="band 6">
        <r>  0.0381  0.0525  0.0000 </r>
        <r>  0.0381  0.0525  0.0000 </r>
       </set>
       <set comment="band 7">
        <r>  0.0342  0.1172  0.0000 </r>
        <r>  0.0342  0.1172  0.0000 </r>
       </set>
       <set comment="band 8">
        <r>  0.0024  0.1578  0.0000 </r>
        <r>  0.0024  0.1578  0.0000 </r>
       </set>
       <set comment="band 9">
        <r>  0.0401  0.0697  0.0000 </r>
        <r>  0.0401  0.0697  0.0000 </r>
       </set>
       <set comment="band 10">
        <r>  0.0066  0.1131  0.0000 </r>
        <r>  0.0066  0.1131  0.0000 </r>
       </set>
       <set comment="band 11">
        <r>  0.0235  0.1611  0.0000 </r>
        <r>  0.0235  0.1611  0.0000 </r>
       </set>
       <set comment="band 12">
        <r>  0.0239  0.0278  0.0000 </r>
        <r>  0.0239  0.0278  0.0000 </r>
       </set>
       <set comment="band 13">
        <r>  0.0029  0.1027  0.0000 </r>
        <r>  0.0029  0.1027  0.0000 </r>
       </set>
       <set comment="band 14">
        <r>  0.0003  0.0491  0.0000 </r>
        <r>  0.0003  0.0491  0.0000 </r>
       </set>
       <set comment="band 15">
        <r>  0.0305  0.0486  0.0000 </r>
        <r>  0.0305  0.0486  0.0000 </r>
       </set>
       <set comment="band 16">
        <r>  0.0092  0.0214  0.0000 </r>
        <r>  0.0092  0.0214  0.0000 </r>
       </set>
       <set comment="band 17">
        <r>  0.0007  0.0399  0.0000 </r>
        <r>  0.0007  0.0399  0.0000 </r>
       </set>
       <set comment="band 18">
        <r>  0.0211  0.1005  0.0000 </r>
        <r>  0.0211  0.1005  0.0000 </r>
       </set>
       <set comment="band 19">
        <r>  0.0069  0.0496  0.0000 </r>
        <r>  0.0069  0.0496  0.0000 </r>
       </set>
       <set comment="band 20">
        <r>  0.0073  0.0365  0.0000 </r>
        <r>  0.0073  0.0365  0.0000 </r>
       </set>
       <set comment="band 21">
        <r>  0.0148  0.0157  0.0000 </r>
        <r>  0.0148  0.0157  0.0000 </r>
       </set>
       <set comment="band 22">
        <r>  0.0332  0.0308  0.0000 </r>
        <r>  0.0332  0.0308  0.0000 </r>
       </set>
       <set comment="band 23">
        <r>  0.0069  0.0661  0.0000 </r>
        <r>  0.0069  0.0661  0.0000 </r>
       </set>
       <set comment="band 24">
        <r>  0.0000  0.0075  0.0000 </r>
        <r>  0.0000  0.0075  0.0000 </r>
       </set>
      </set>
      <set comment="kpoint 26">
       <set comment="band 1">
        <r>  0.2103  0.0317  0.0000 </r>
        <r>  0.2103  0.0317  0.0000 </r>
       </set>
       <set comment="band 2">
        <r>  0.1840  0.0581  0.0000 </r>
        <r>  0.1840  0.0581  0.0000 </r>
       </set>
       <set comment="band 3">
        <r>  0.0074  0.1554  0.0000 </r>
        <r>  0.0074  0.1554  0.0000 </r>
       </set>
       <set comment="band 4">
        <r>  0.0018  0.1776  0.0000 </r>
        <r>  0.0018  0.1776  0.0000 </r>
       </set>
       <set comment="band 5">
        <r>  0.0382  0.0715  0.0000 </r>
        <r>  0.0382  0.0715  0.0000 </r>
       </set>
       <set comment="band 6">
        <r>  0.0156  0.0847  0.0000 </r>
        <r>  0.0156  0.0847  0.0000 </r>
       </set>
       <set comment="band 7">
        <r>  0.0450  0.1072  0.0000 </r>
        <r>  0.0450  0.1072  0.0000 </r>
       </set>
       <set comment="band 8">
        <r>  0.0234  0.1180  0.0000 </r>
        <r>  0.0234  0.1180  0.0000 </r>
       </set>
       <set comment="band 9">
        <r>  0.0123  0.1227  0.0000 </r>
        <r>  0.0123  0.1227  0.0000 </r>
       </set>
       <set comment="band 10">
        <r>  0.0068  0.1014  0.0000 </r>
        <r>  0.0068  0.1014  0.0000 </r>
       </set>
       <set comment="band 11">
        <r>  0.0219  0.1084  0.0000 </r>
        <r>  0.0219  0.1084  0.0000 </r>
       </set>
       <set comment="band 12">
        <r>  0.0076  0.0726  0.0000 </r>
        <r>  0.0076  0.0726  0.0000 </r>
       </set>
       <set comment="band 13">
        <r>  0.0132  0.0841  0.0000 </r>
        <r>  0.0132  0.0841  0.0000 </r>
       </set>
       <set comment="band 14">
        <r>  0.0163  0.1086  0.0000 </r>
        <r>  0.0163  0.1086  0.0000 </r>
       </set>
       <set comment="band 15">
        <r>  0.0121  0.0216  0.0000 </r>
        <r>  0.0121  0.0216  0.0000 </r>
       </set>
       <set comment="band 16">
        <r>  0.0241  0.0174  0.0000 </r>
        <r>  0.0241  0.0174  0.0000 </r>
       </set>
       <set comment="band 17">
        <r>  0.0059  0.1002  0.0000 </r>
        <r>  0.0059  0.1002  0.0000 </r>
       </set>
       <set comment="band 18">
        <r>  0.0158  0.0679  0.0000 </r>
        <r>  0.0158  0.0679  0.0000 </r>
       </set>
       <set comment="band 19">
        <r>  0.0085  0.0372  0.0000 </r>
        <r>  0.0085  0.0372  0.0000 </r>
       </set>
       <set comment="band 20">
        <r>  0.0093  0.0646  0.0000 </r>
        <r>  0.0093  0.0646  0.0000 </r>
       </set>
       <set comment="band 21">
        <r>  0.0167  0.0312  0.0000 </r>
        <r>  0.0167  0.0312  0.0000 </r>
       </set>
       <set comment="band 22">
        <r>  0.0040  0.0108  0.0000 </r>
        <r>  0.0040  0.0108  0.0000 </r>
       </set>
       <set comment="band 23">
        <r>  0.0109  0.0643  0.0000 </r>
        <r>  0.0109  0.0643  0.0000 </r>
       </set>
       <set comment="band 24">
        <r>  0.0009  0.0186  0.0000 </r>
        <r>  0.0009  0.0186  0.0000 </r>
       </set>
      </set>
      <set comment="kpoint 27">
       <set comment="band 1">
        <r>  0.2112  0.0280  0.0000 </r>
        <r>  0.2112  0.0280  0.0000 </r>
       </set>
       <set comment="band 2">
        <r>  0.1794  0.0634  0.0000 </r>
        <r>  0.1794  0.0634  0.0000 </r>
       </set>
       <set comment="band 3">
        <r>  0.0063  0.1532  0.0000 </r>
        <r>  0.0063  0.1532  0.0000 </r>
       </set>
       <set comment="band 4">
        <r>  0.0036  0.1813  0.0000 </r>
        <r>  0.0036  0.1813  0.0000 </r>
       </set>
       <set comment="band 5">
        <r>  0.0376  0.0768  0.0000 </r>
        <r>  0.0376  0.0768  0.0000 </r>
       </set>
       <set comment="band 6">
        <r>  0.0177  0.1070  0.0000 </r>
        <r>  0.0177  0.1070  0.0000 </r>
       </set>
       <set comment="band 7">
        <r>  0.0441  0.0813  0.0000 </r>
        <r>  0.0441  0.0813  0.0000 </r>
       </set>
       <set comment="band 8">
        <r>  0.0177  0.0999  0.0000 </r>
        <r>  0.0177  0.0999  0.0000 </r>
       </set>
       <set comment="band 9">
        <r>  0.0138  0.1553  0.0000 </r>
        <r>  0.0138  0.1553  0.0000 </r>
       </set>
       <set comment="band 10">
        <r>  0.0296  0.0815  0.0000 </r>
        <r>  0.0296  0.0815  0.0000 </r>
       </set>
       <set comment="band 11">
        <r>  0.0147  0.0358  0.0000 </r>
        <r>  0.0147  0.0358  0.0000 </r>
       </set>
       <set comment="band 12">
        <r>  0.0032  0.1191  0.0000 </r>
        <r>  0.0032  0.1191  0.0000 </r>
       </set>
       <set comment="band 13">
        <r>  0.0057  0.0780  0.0000 </r>
        <r>  0.0057  0.0780  0.0000 </r>
       </set>
       <set comment="band 14">
        <r>  0.0161  0.1090  0.0000 </r>
        <r>  0.0161  0.1090  0.0000 </r>
       </set>
       <set comment="band 15">
        <r>  0.0348  0.0489  0.0000 </r>
        <r>  0.0348  0.0489  0.0000 </r>
       </set>
       <set comment="band 16">
        <r>  0.0100  0.0683  0.0000 </r>
        <r>  0.0100  0.0683  0.0000 </r>
       </set>
       <set comment="band 17">
        <r>  0.0036  0.0473  0.0000 </r>
        <r>  0.0036  0.0473  0.0000 </r>
       </set>
       <set comment="band 18">
        <r>  0.0085  0.1168  0.0000 </r>
        <r>  0.0085  0.1168  0.0000 </r>
       </set>
       <set comment="band 19">
        <r>  0.0065  0.0228  0.0000 </r>
        <r>  0.0065  0.0228  0.0000 </r>
       </set>
       <set comment="band 20">
        <r>  0.0176  0.0252  0.0000 </r>
        <r>  0.0176  0.0252  0.0000 </r>
       </set>
       <set comment="band 21">
        <r>  0.0085  0.0411  0.0000 </r>
        <r>  0.0085  0.0411  0.0000 </r>
       </set>
       <set comment="band 22">
        <r>  0.0074  0.0055  0.0000 </r>
        <r>  0.0074  0.0055  0.0000 </r>
       </set>
       <set comment="band 23">
        <r>  0.0062  0.0787  0.0000 </r>
        <r>  0.0062  0.0787  0.0000 </r>
       </set>
       <set comment="band 24">
        <r>  0.0376  0.0095  0.0000 </r>
        <r>  0.0376  0.0095  0.0000 </r>
       </set>
      </set>
      <set comment="kpoint 28">
       <set comment="band 1">
        <r>  0.1984  0.0441  0.0000 </r>
        <r>  0.1984  0.0441  0.0000 </r>
       </set>
       <set comment="band 2">
        <r>  0.1984  0.0441  0.0000 </r>
        <r>  0.1984  0.0441  0.0000 </r>
       </set>
       <set comment="band 3">
        <r>  0.0027  0.1721  0.0000 </r>
        <r>  0.0027  0.1721  0.0000 </r>
       </set>
       <set comment="band 4">
        <r>  0.0027  0.1721  0.0000 </r>
        <r>  0.0027  0.1721  0.0000 </r>
       </set>
       <set comment="band 5">
        <r>  0.0396  0.0659  0.0000 </r>
        <r>  0.0396  0.0659  0.0000 </r>
       </set>
       <set comment="band 6">
        <r>  0.0396  0.0659  0.0000 </r>
        <r>  0.0396  0.0659  0.0000 </r>
       </set>
       <set comment="band 7">
        <r>  0.0209  0.1230  0.0000 </r>
        <r>  0.0209  0.1230  0.0000 </r>
       </set>
       <set comment="band 8">
        <r>  0.0209  0.1230  0.0000 </r>
        <r>  0.0209  0.1230  0.0000 </r>
       </set>
       <set comment="band 9">
        <r>  0.0004  0.1233  0.0000 </r>
        <r>  0.0004  0.1233  0.0000 </r>
       </set>
       <set comment="band 10">
        <r>  0.0004  0.1233  0.0000 </r>
        <r>  0.0004  0.1233  0.0000 </r>
       </set>
       <set comment="band 11">
        <r>  0.0244  0.0931  0.0000 </r>
        <r>  0.0244  0.0931  0.0000 </r>
       </set>
       <set comment="band 12">
        <r>  0.0244  0.0931  0.0000 </r>
        <r>  0.0244  0.0931  0.0000 </r>
       </set>
       <set comment="band 13">
        <r>  0.0125  0.1226  0.0000 </r>
        <r>  0.0125  0.1226  0.0000 </r>
       </set>
       <set comment="band 14">
        <r>  0.0125  0.1226  0.0000 </r>
        <r>  0.0125  0.1226  0.0000 </r>
       </set>
       <set comment="band 15">
        <r>  0.0030  0.0180  0.0000 </r>
        <r>  0.0030  0.0180  0.0000 </r>
       </set>
       <set comment="band 16">
        <r>  0.0030  0.0180  0.0000 </r>
        <r>  0.0030  0.0180  0.0000 </r>
       </set>
       <set comment="band 17">
        <r>  0.0328  0.0205  0.0000 </r>
        <r>  0.0328  0.0205  0.0000 </r>
       </set>
       <set comment="band 18">
        <r>  0.0328  0.0205  0.0000 </r>
        <r>  0.0328  0.0205  0.0000 </r>
       </set>
       <set comment="band 19">
        <r>  0.0006  0.0604  0.0000 </r>
        <r>  0.0006  0.0604  0.0000 </r>
       </set>
       <set comment="band 20">
        <r>  0.0006  0.0604  0.0000 </r>
        <r>  0.0006  0.0604  0.0000 </r>
       </set>
       <set comment="band 21">
        <r>  0.0300  0.0522  0.0000 </r>
        <r>  0.0300  0.0522  0.0000 </r>
       </set>
       <set comment="band 22">
        <r>  0.0300  0.0522  0.0000 </r>
        <r>  0.0300  0.0522  0.0000 </r>
       </set>
       <set comment="band 23">
        <r>  0.0003  0.0103  0.0000 </r>
        <r>  0.0003  0.0103  0.0000 </r>
       </set>
       <set comment="band 24">
        <r>  0.0003  0.0103  0.0000 </r>
        <r>  0.0003  0.0103  0.0000 </r>
       </set>
      </set>
      <set comment="kpoint 29">
       <set comment="band 1">
        <r>  0.2048  0.0423  0.0000 </r>
        <r>  0.2048  0.0423  0.0000 </r>
       </set>
       <set comment="band 2">
        <r>  0.2048  0.0423  0.0000 </r>
        <r>  0.2048  0.0423  0.0000 </r>
       </set>
       <set comment="band 3">
        <r>  0.0000  0.1613  0.0000 </r>
        <r>  0.0000  0.1613  0.0000 </r>
       </set>
       <set comment="band 4">
        <r>  0.0000  0.1613  0.0000 </r>
        <r>  0.0000  0.1613  0.0000 </r>
       </set>
       <set comment="band 5">
        <r>  0.0000  0.0863  0.0000 </r>
        <r>  0.0000  0.0863  0.0000 </r>
       </set>
       <set comment="band 6">
        <r>  0.0000  0.0863  0.0000 </r>
        <r>  0.0000  0.0863  0.0000 </r>
       </set>
       <set comment="band 7">
        <r>  0.0614  0.1033  0.0000 </r>
        <r>  0.0614  0.1033  0.0000 </r>
       </set>
       <set comment="band 8">
        <r>  0.0614  0.1033  0.0000 </r>
        <r>  0.0614  0.1033  0.0000 </r>
       </set>
       <set comment="band 9">
        <r>  0.0000  0.1337  0.0000 </r>
        <r>  0.0000  0.1337  0.0000 </r>
       </set>
       <set comment="band 10">
        <r>  0.0000  0.1337  0.0000 </r>
        <r>  0.0000  0.1337  0.0000 </r>
       </set>
       <set comment="band 11">
        <r>  0.0260  0.1056  0.0000 </r>
        <r>  0.0260  0.1056  0.0000 </r>
       </set>
       <set comment="band 12">
        <r>  0.0260  0.1056  0.0000 </r>
        <r>  0.0260  0.1056  0.0000 </r>
       </set>
       <set comment="band 13">
        <r>  0.0000  0.0289  0.0000 </r>
        <r>  0.0000  0.0289  0.0000 </r>
       </set>
       <set comment="band 14">
        <r>  0.0000  0.0289  0.0000 </r>
        <r>  0.0000  0.0289  0.0000 </r>
       </set>
       <set comment="band 15">
        <r>  0.0289  0.0238  0.0000 </r>
        <r>  0.0289  0.0238  0.0000 </r>
       </set>
       <set comment="band 16">
        <r>  0.0289  0.0238  0.0000 </r>
        <r>  0.0289  0.0238  0.0000 </r>
       </set>
       <set comment="band 17">
        <r>  0.0000  0.1425  0.0000 </r>
        <r>  0.0000  0.1425  0.0000 </r>
       </set>
       <set comment="band 18">
        <r>  0.0000  0.1425  0.0000 </r>
        <r>  0.0000  0.1425  0.0000 </r>
       </set>
       <set comment="band 19">
        <r>  0.0248  0.0215  0.0000 </r>
        <r>  0.0248  0.0215  0.0000 </r>
       </set>
       <set comment="band 20">
        <r>  0.0248  0.0215  0.0000 </r>
        <r>  0.0248  0.0215  0.0000 </r>
       </set>
       <set comment="band 21">
        <r>  0.0000  0.0648  0.0000 </r>
        <r>  0.0000  0.0648  0.0000 </r>
       </set>
       <set comment="band 22">
        <r>  0.0000  0.0648  0.0000 </r>
        <r>  0.0000  0.0648  0.0000 </r>
       </set>
       <set comment="band 23">
        <r>  0.0001  0.0000  0.0000 </r>
        <r>  0.0000  0.0002  0.0000 </r>
       </set>
       <set comment="band 24">
        <r>  0.0000  0.0002  0.0000 </r>
        <r>  0.0001  0.0000  0.0000 </r>
       </set>
      </set>
     </set>
    </set>
   </array>
  </projected>
 </calculation>
 <structure name="finalpos" >
  <crystal>
   <varray name="basis" >
    <v>       3.32548900       0.00000000       1.91997200 </v>
    <v>       1.10849600       3.13530100       1.91997200 </v>
    <v>       0.00000000       0.00000000       3.83994300 </v>
   </varray>
   <i name="volume">     40.03681621 </i>
   <varray name="rec_basis" >
    <v>       0.30070766      -0.10631618       0.00000000 </v>
    <v>       0.00000000       0.31894864       0.00000000 </v>
    <v>      -0.15035387      -0.10631626       0.26042053 </v>
   </varray>
  </crystal>
  <varray name="positions" >
   <v>       0.87500000       0.87500000       0.87500000 </v>
   <v>       0.12500000       0.12500000       0.12500000 </v>
  </varray>
 </structure>
</modeling>
