 vasp.6.3.0 20Jan22 (build Mar 07 2022 09:35:52) complex                        
  
 executed on             LinuxIFC date 2025.06.26  16:12:41
 running on   96 total cores
 distrk:  each k-point on   96 cores,    1 groups
 distr:  one band on NCORE=   1 cores,   96 groups


--------------------------------------------------------------------------------------------------------


 INCAR:
   ALGO = Normal
   AMIX = 0.2
   EDIFF = 1e-06
   EDIFFG = -0.05
   ENCUT = 550.0
   IBRION = 2
   ISIF = 2
   ISMEAR = 0
   ISPIN = 1
   ISYM = 2
   LCHARG = True
   LORBIT = 11
   LREAL = False
   LVTOT = True
   LWAVE = True
   NELECT = 377.0
   NELM = 200
   NSW = 0
   SIGMA = 0.05
   SYSTEM = SiO2

 POTCAR:    PAW_PBE Si 05Jan2001                  
 POTCAR:    PAW_PBE O 08Apr2002                   
 WARNING: For LVTOT=.TRUE., VASP.5.x writes the TOTAL local potential to the
     file LOCPOT. If you want only the Hartree contributions, use LVHAR=.TRUE.
     instead. 

 -----------------------------------------------------------------------------
|                                                                             |
|           W    W    AA    RRRRR   N    N  II  N    N   GGGG   !!!           |
|           W    W   A  A   R    R  NN   N  II  NN   N  G    G  !!!           |
|           W    W  A    A  R    R  N N  N  II  N N  N  G       !!!           |
|           W WW W  AAAAAA  RRRRR   N  N N  II  N  N N  G  GGG   !            |
|           WW  WW  A    A  R   R   N   NN  II  N   NN  G    G                |
|           W    W  A    A  R    R  N    N  II  N    N   GGGG   !!!           |
|                                                                             |
|     For optimal performance we recommend to set                             |
|       NCORE = 2 up to number-of-cores-per-socket                            |
|     NCORE specifies how many cores store one orbital (NPAR=cpu/NCORE).      |
|     This setting can greatly improve the performance of VASP for DFT.       |
|     The default, NCORE=1 might be grossly inefficient on modern             |
|     multi-core architectures or massively parallel machines. Do your        |
|     own testing! More info at https://www.vasp.at/wiki/index.php/NCORE      |
|     Unfortunately you need to use the default for GW and RPA                |
|     calculations (for HF NCORE is supported but not extensively tested      |
|     yet).                                                                   |
|                                                                             |
 -----------------------------------------------------------------------------

 POTCAR:    PAW_PBE Si 05Jan2001                  
   VRHFIN =Si: s2p2                                                                                 
   LEXCH  = PE                                                                                      
   EATOM  =   103.0669 eV,    7.5752 Ry                                                             
                                                                                                    
   TITEL  = PAW_PBE Si 05Jan2001                                                                    
   LULTRA =        F    use ultrasoft PP ?                                                          
   IUNSCR =        1    unscreen: 0-lin 1-nonlin 2-no                                               
   RPACOR =    1.500    partial core radius                                                         
   POMASS =   28.085; ZVAL   =    4.000    mass and valenz                                          
   RCORE  =    1.900    outmost cutoff radius                                                       
   RWIGS  =    2.480; RWIGS  =    1.312    wigner-seitz radius (au A)                               
   ENMAX  =  245.345; ENMIN  =  184.009 eV                                                          
   ICORE  =        2    local potential                                                             
   LCOR   =        T    correct aug charges                                                         
   LPAW   =        T    paw PP                                                                      
   EAUG   =  322.069                                                                                
   DEXC   =    0.000                                                                                
   RMAX   =    1.950    core radius for proj-oper                                                   
   RAUG   =    1.300    factor for augmentation sphere                                              
   RDEP   =    1.993    radius for radial grids                                                     
   RDEPT  =    1.837    core radius for aug-charge                                                  
                                                                                                    
   Atomic configuration                                                                             
    6 entries                                                                                       
     n  l   j            E        occ.                                                              
     1  0  0.50     -1785.8828   2.0000                                                             
     2  0  0.50      -139.4969   2.0000                                                             
     2  1  1.50       -95.5546   6.0000                                                             
     3  0  0.50       -10.8127   2.0000                                                             
     3  1  0.50        -4.0811   2.0000                                                             
     3  2  1.50        -4.0817   0.0000                                                             
   Description                                                                                      
     l       E           TYP  RCUT    TYP  RCUT                                                     
     0    -10.8127223     23  1.900                                                                 
     0     -7.6451159     23  1.900                                                                 
     1     -4.0811372     23  1.900                                                                 
     1      2.4879257     23  1.900                                                                 
     2     -4.0817478      7  1.900                                                                 
  local pseudopotential read in
  partial core-charges read in
  partial kinetic energy density read in
  atomic valenz-charges read in
  non local Contribution for L=           0  read in
    real space projection operators read in
  non local Contribution for L=           0  read in
    real space projection operators read in
  non local Contribution for L=           1  read in
    real space projection operators read in
  non local Contribution for L=           1  read in
    real space projection operators read in
    PAW grid and wavefunctions read in
 
   number of l-projection  operators is LMAX  =           4
   number of lm-projection operators is LMMAX =           8
 
 POTCAR:    PAW_PBE O 08Apr2002                   
   VRHFIN =O: s2p4                                                                                  
   LEXCH  = PE                                                                                      
   EATOM  =   432.3788 eV,   31.7789 Ry                                                             
                                                                                                    
   TITEL  = PAW_PBE O 08Apr2002                                                                     
   LULTRA =        F    use ultrasoft PP ?                                                          
   IUNSCR =        1    unscreen: 0-lin 1-nonlin 2-no                                               
   RPACOR =    1.200    partial core radius                                                         
   POMASS =   16.000; ZVAL   =    6.000    mass and valenz                                          
   RCORE  =    1.520    outmost cutoff radius                                                       
   RWIGS  =    1.550; RWIGS  =    0.820    wigner-seitz radius (au A)                               
   ENMAX  =  400.000; ENMIN  =  300.000 eV                                                          
   ICORE  =        2    local potential                                                             
   LCOR   =        T    correct aug charges                                                         
   LPAW   =        T    paw PP                                                                      
   EAUG   =  605.392                                                                                
   DEXC   =    0.000                                                                                
   RMAX   =    1.553    core radius for proj-oper                                                   
   RAUG   =    1.300    factor for augmentation sphere                                              
   RDEP   =    1.550    radius for radial grids                                                     
   RDEPT  =    1.329    core radius for aug-charge                                                  
                                                                                                    
   Atomic configuration                                                                             
    4 entries                                                                                       
     n  l   j            E        occ.                                                              
     1  0  0.50      -514.6923   2.0000                                                             
     2  0  0.50       -23.9615   2.0000                                                             
     2  1  0.50        -9.0305   4.0000                                                             
     3  2  1.50        -9.5241   0.0000                                                             
   Description                                                                                      
     l       E           TYP  RCUT    TYP  RCUT                                                     
     0    -23.9615318     23  1.200                                                                 
     0     -9.5240782     23  1.200                                                                 
     1     -9.0304911     23  1.520                                                                 
     1      8.1634956     23  1.520                                                                 
     2     -9.5240782      7  1.500                                                                 
  local pseudopotential read in
  partial core-charges read in
  partial kinetic energy density read in
  kinetic energy density of atom read in
  atomic valenz-charges read in
  non local Contribution for L=           0  read in
    real space projection operators read in
  non local Contribution for L=           0  read in
    real space projection operators read in
  non local Contribution for L=           1  read in
    real space projection operators read in
  non local Contribution for L=           1  read in
    real space projection operators read in
    PAW grid and wavefunctions read in
 
   number of l-projection  operators is LMAX  =           4
   number of lm-projection operators is LMMAX =           8
 
 -----------------------------------------------------------------------------
|                                                                             |
|               ----> ADVICE to this user running VASP <----                  |
|                                                                             |
|     You have a (more or less) 'large supercell' and for larger cells it     |
|     might be more efficient to use real-space projection operators.         |
|     Therefore, try LREAL= Auto in the INCAR file.                           |
|     Mind: For very accurate calculation, you might also keep the            |
|     reciprocal projection scheme (i.e. LREAL=.FALSE.).                      |
|                                                                             |
 -----------------------------------------------------------------------------

  PAW_PBE Si 05Jan2001                  :
 energy of atom  1       EATOM= -103.0669
 kinetic energy error for atom=    0.0004 (will be added to EATOM!!)
  PAW_PBE O 08Apr2002                   :
 energy of atom  2       EATOM= -432.3788
 kinetic energy error for atom=    0.0194 (will be added to EATOM!!)
 
 
 POSCAR: Si24 O47
  positions in direct lattice
  No initial velocities read in
 exchange correlation table for  LEXCH =        8
   RHO(1)=    0.500       N(1)  =     2000
   RHO(2)=  100.500       N(2)  =     4000

 VTST: version 4.2, (08/11/21)

 CHAIN: initializing optimizer
 
 OPT: Using VASP Conjugate-Gradient optimizer
 CHAIN: Read ICHAIN            0
 
 POSCAR: Si24 O47
  positions in direct lattice
  No initial velocities read in
 


--------------------------------------------------------------------------------------------------------


 ion  position               nearest neighbor table
   1  0.266  0.266  0.000-  65 1.61  32 1.61  48 1.62  25 1.62  14 3.06  19 3.06  17 3.06  10 3.06

   2  0.266  0.266  0.500-  64 1.61  33 1.61  49 1.62  20 3.06  13 3.06   9 3.06  18 3.06
   3  0.266  0.766  0.000-  67 1.61  34 1.61  50 1.62  27 1.62  16 3.06  17 3.06  12 3.06  19 3.06

   4  0.266  0.766  0.500-  66 1.61  35 1.61  51 1.62  26 1.62  15 3.06  18 3.06  11 3.06  20 3.06

   5  0.766  0.266  0.000-  69 1.61  36 1.61  52 1.62  29 1.62  10 3.06  23 3.06  21 3.06  14 3.06

   6  0.766  0.266  0.500-  68 1.61  37 1.61  53 1.62  28 1.62   9 3.06  24 3.06  22 3.06  13 3.06

   7  0.766  0.766  0.000-  71 1.61  38 1.61  54 1.62  31 1.62  12 3.06  21 3.06  16 3.06  23 3.06

   8  0.766  0.766  0.500-  70 1.61  39 1.61  55 1.62  30 1.62  11 3.06  22 3.06  15 3.06  24 3.06

   9  0.000  0.234  0.333-  60 1.61  40 1.62  68 1.62   6 3.06   2 3.06  21 3.06  19 3.06
  10  0.000  0.234  0.833-  25 1.61  61 1.61  41 1.62  69 1.62   5 3.06   1 3.06  20 3.06  22 3.06

  11  0.000  0.734  0.333-  26 1.61  62 1.61  42 1.62  70 1.62   8 3.06   4 3.06  17 3.06  23 3.06

  12  0.000  0.734  0.833-  27 1.61  63 1.61  43 1.62  71 1.62   7 3.06   3 3.06  18 3.06  24 3.06

  13  0.500  0.234  0.333-  28 1.61  56 1.61  44 1.62  64 1.62   2 3.06   6 3.06  17 3.06  23 3.06

  14  0.500  0.234  0.833-  29 1.61  57 1.61  45 1.62  65 1.62   1 3.06   5 3.06  18 3.06  24 3.06

  15  0.500  0.734  0.333-  30 1.61  58 1.61  46 1.62  66 1.62   4 3.06   8 3.06  19 3.06  21 3.06

  16  0.500  0.734  0.833-  31 1.61  59 1.61  47 1.62  67 1.62   3 3.06   7 3.06  20 3.06  22 3.06

  17  0.234  0.000  0.167-  48 1.61  42 1.61  34 1.62  56 1.62   3 3.06   1 3.06  11 3.06  13 3.06

  18  0.234  0.000  0.667-  49 1.61  43 1.61  35 1.62  57 1.62   4 3.06   2 3.06  12 3.06  14 3.06

  19  0.234  0.500  0.167-  50 1.61  40 1.61  32 1.62  58 1.62   1 3.06   3 3.06   9 3.06  15 3.06

  20  0.234  0.500  0.667-  51 1.61  41 1.61  33 1.62  59 1.62   2 3.06   4 3.06  10 3.06  16 3.06

  21  0.734  0.000  0.167-  52 1.61  46 1.61  38 1.62  60 1.62   7 3.06   5 3.06   9 3.06  15 3.06

  22  0.734  0.000  0.667-  53 1.61  47 1.61  39 1.62  61 1.62   8 3.06   6 3.06  10 3.06  16 3.06

  23  0.734  0.500  0.167-  54 1.61  44 1.61  36 1.62  62 1.62   5 3.06   7 3.06  11 3.06  13 3.06

  24  0.734  0.500  0.667-  55 1.61  45 1.61  37 1.62  63 1.62   6 3.06   8 3.06  12 3.06  14 3.06

  25  0.135  0.207  0.892-  10 1.61   1 1.62
  26  0.135  0.707  0.392-  11 1.61   4 1.62
  27  0.135  0.707  0.892-  12 1.61   3 1.62
  28  0.635  0.207  0.392-  13 1.61   6 1.62
  29  0.635  0.207  0.892-  14 1.61   5 1.62
  30  0.635  0.707  0.392-  15 1.61   8 1.62
  31  0.635  0.707  0.892-  16 1.61   7 1.62
  32  0.293  0.428  0.059-   1 1.61  19 1.62
  33  0.293  0.428  0.559-   2 1.61  20 1.62
  34  0.293  0.928  0.059-   3 1.61  17 1.62
  35  0.293  0.928  0.559-   4 1.61  18 1.62
  36  0.793  0.428  0.059-   5 1.61  23 1.62
  37  0.793  0.428  0.559-   6 1.61  24 1.62
  38  0.793  0.928  0.059-   7 1.61  21 1.62
  39  0.793  0.928  0.559-   8 1.61  22 1.62
  40  0.072  0.365  0.226-  19 1.61   9 1.62
  41  0.072  0.365  0.726-  20 1.61  10 1.62
  42  0.072  0.865  0.226-  17 1.61  11 1.62
  43  0.072  0.865  0.726-  18 1.61  12 1.62
  44  0.572  0.365  0.226-  23 1.61  13 1.62
  45  0.572  0.365  0.726-  24 1.61  14 1.62
  46  0.572  0.865  0.226-  21 1.61  15 1.62
  47  0.572  0.865  0.726-  22 1.61  16 1.62
  48  0.207  0.135  0.108-  17 1.61   1 1.62
  49  0.207  0.135  0.608-  18 1.61   2 1.62
  50  0.207  0.635  0.108-  19 1.61   3 1.62
  51  0.207  0.635  0.608-  20 1.61   4 1.62
  52  0.707  0.135  0.108-  21 1.61   5 1.62
  53  0.707  0.135  0.608-  22 1.61   6 1.62
  54  0.707  0.635  0.108-  23 1.61   7 1.62
  55  0.707  0.635  0.608-  24 1.61   8 1.62
  56  0.365  0.072  0.274-  13 1.61  17 1.62
  57  0.365  0.072  0.774-  14 1.61  18 1.62
  58  0.365  0.572  0.274-  15 1.61  19 1.62
  59  0.365  0.572  0.774-  16 1.61  20 1.62
  60  0.865  0.072  0.274-   9 1.61  21 1.62
  61  0.865  0.072  0.774-  10 1.61  22 1.62
  62  0.865  0.572  0.274-  11 1.61  23 1.62
  63  0.865  0.572  0.774-  12 1.61  24 1.62
  64  0.428  0.293  0.441-   2 1.61  13 1.62
  65  0.428  0.293  0.941-   1 1.61  14 1.62
  66  0.428  0.793  0.441-   4 1.61  15 1.62
  67  0.428  0.793  0.941-   3 1.61  16 1.62
  68  0.928  0.293  0.441-   6 1.61   9 1.62
  69  0.928  0.293  0.941-   5 1.61  10 1.62
  70  0.928  0.793  0.441-   8 1.61  11 1.62
  71  0.928  0.793  0.941-   7 1.61  12 1.62
 
  LATTYP: Found a hexagonal cell.
 ALAT       =     9.8299323535
 C/A-ratio  =     1.1050536148
  
  Lattice vectors:
  
 A1 = (   4.9149661767,  -8.5129711356,   0.0000000000)
 A2 = (   4.9149661767,   8.5129711356,   0.0000000000)
 A3 = (   0.0000000000,   0.0000000000,  10.8626022800)


Analysis of symmetry for initial positions (statically):
=====================================================================
 Subroutine PRICEL returns:
 Original cell was already a primitive cell.
 

 Routine SETGRP: Setting up the symmetry group for a 
 hexagonal supercell.


 Subroutine GETGRP returns: Found  1 space group operations
 (whereof  1 operations were pure point group operations)
 out of a pool of 24 trial point group operations.


The static configuration has the point symmetry C_1 .


Analysis of symmetry for dynamics (positions and initial velocities):
=====================================================================
 Subroutine PRICEL returns:
 Original cell was already a primitive cell.
 

 Routine SETGRP: Setting up the symmetry group for a 
 hexagonal supercell.


 Subroutine GETGRP returns: Found  1 space group operations
 (whereof  1 operations were pure point group operations)
 out of a pool of 24 trial point group operations.


The dynamic configuration has the point symmetry C_1 .


 Subroutine INISYM returns: Found  1 space group operations
 (whereof  1 operations are pure point group operations),
 and found     1 'primitive' translations


----------------------------------------------------------------------------------------

                                     Primitive cell                                     

  volume of cell :     909.0035

  direct lattice vectors                    reciprocal lattice vectors
     4.914966177 -8.512971136  0.000000000     0.101730100 -0.058733901  0.000000000
     4.914966177  8.512971136  0.000000000     0.101730100  0.058733901  0.000000000
     0.000000000  0.000000000 10.862602280     0.000000000  0.000000000  0.092058972

  length of vectors
     9.829932353  9.829932353 10.862602280     0.117467801  0.117467801  0.092058972

  position of ions in fractional coordinates (direct lattice)
     0.265544295  0.265544295  0.000000000
     0.265544295  0.265544295  0.500000000
     0.265544295  0.765544295  0.000000000
     0.265544295  0.765544295  0.500000000
     0.765544295  0.265544295  0.000000000
     0.765544295  0.265544295  0.500000000
     0.765544295  0.765544295  0.000000000
     0.765544295  0.765544295  0.500000000
     1.000000000  0.234455705  0.333333333
     1.000000000  0.234455705  0.833333333
     1.000000000  0.734455705  0.333333333
     1.000000000  0.734455705  0.833333333
     0.500000000  0.234455705  0.333333333
     0.500000000  0.234455705  0.833333333
     0.500000000  0.734455705  0.333333333
     0.500000000  0.734455705  0.833333333
     0.234455705  1.000000000  0.166666667
     0.234455705  1.000000000  0.666666667
     0.234455705  0.500000000  0.166666667
     0.234455705  0.500000000  0.666666667
     0.734455705  1.000000000  0.166666667
     0.734455705  1.000000000  0.666666667
     0.734455705  0.500000000  0.166666667
     0.734455705  0.500000000  0.666666667
     0.134611555  0.206697145  0.892445490
     0.134611555  0.706697145  0.392445490
     0.134611555  0.706697145  0.892445490
     0.634611555  0.206697145  0.392445490
     0.634611555  0.206697145  0.892445490
     0.634611555  0.706697145  0.392445490
     0.634611555  0.706697145  0.892445490
     0.293302855  0.427914410  0.059112157
     0.293302855  0.427914410  0.559112157
     0.293302855  0.927914410  0.059112157
     0.293302855  0.927914410  0.559112157
     0.793302855  0.427914410  0.059112157
     0.793302855  0.427914410  0.559112157
     0.793302855  0.927914410  0.059112157
     0.793302855  0.927914410  0.559112157
     0.072085590  0.365388445  0.225778823
     0.072085590  0.365388445  0.725778823
     0.072085590  0.865388445  0.225778823
     0.072085590  0.865388445  0.725778823
     0.572085590  0.365388445  0.225778823
     0.572085590  0.365388445  0.725778823
     0.572085590  0.865388445  0.225778823
     0.572085590  0.865388445  0.725778823
     0.206697145  0.134611555  0.107554510
     0.206697145  0.134611555  0.607554510
     0.206697145  0.634611555  0.107554510
     0.206697145  0.634611555  0.607554510
     0.706697145  0.134611555  0.107554510
     0.706697145  0.134611555  0.607554510
     0.706697145  0.634611555  0.107554510
     0.706697145  0.634611555  0.607554510
     0.365388445  0.072085590  0.274221177
     0.365388445  0.072085590  0.774221177
     0.365388445  0.572085590  0.274221177
     0.365388445  0.572085590  0.774221177
     0.865388445  0.072085590  0.274221177
     0.865388445  0.072085590  0.774221177
     0.865388445  0.572085590  0.274221177
     0.865388445  0.572085590  0.774221177
     0.427914410  0.293302855  0.440887843
     0.427914410  0.293302855  0.940887843
     0.427914410  0.793302855  0.440887843
     0.427914410  0.793302855  0.940887843
     0.927914410  0.293302855  0.440887843
     0.927914410  0.293302855  0.940887843
     0.927914410  0.793302855  0.440887843
     0.927914410  0.793302855  0.940887843

  ion indices of the primitive-cell ions
   primitive index   ion index
                 1           1
                 2           2
                 3           3
                 4           4
                 5           5
                 6           6
                 7           7
                 8           8
                 9           9
                10          10
                11          11
                12          12
                13          13
                14          14
                15          15
                16          16
                17          17
                18          18
                19          19
                20          20
                21          21
                22          22
                23          23
                24          24
                25          25
                26          26
                27          27
                28          28
                29          29
                30          30
                31          31
                32          32
                33          33
                34          34
                35          35
                36          36
                37          37
                38          38
                39          39
                40          40
                41          41
                42          42
                43          43
                44          44
                45          45
                46          46
                47          47
                48          48
                49          49
                50          50
                51          51
                52          52
                53          53
                54          54
                55          55
                56          56
                57          57
                58          58
                59          59
                60          60
                61          61
                62          62
                63          63
                64          64
                65          65
                66          66
                67          67
                68          68
                69          69
                70          70
                71          71

----------------------------------------------------------------------------------------

 
 
 KPOINTS: pymatgen with grid density = 1000 / numb

Automatic generation of k-mesh.
 Grid dimensions read from file:
 generate k-points for:    2    2    2

 Generating k-lattice:

  Cartesian coordinates                     Fractional coordinates (reciprocal lattice)
     0.050865050 -0.029366950  0.000000000     0.500000000 -0.000000000  0.000000000
     0.050865050  0.029366950  0.000000000    -0.000000000  0.500000000  0.000000000
     0.000000000  0.000000000  0.046029486     0.000000000  0.000000000  0.500000000

  Length of vectors
     0.058733901  0.058733901  0.046029486

  Shift w.r.t. Gamma in fractional coordinates (k-lattice)
     0.000000000  0.000000000  0.000000000

 
 Subroutine IBZKPT returns following result:
 ===========================================
 
 Found      8 irreducible k-points:
 
 Following reciprocal coordinates:
            Coordinates               Weight
  0.000000  0.000000  0.000000      1.000000
  0.500000  0.000000  0.000000      1.000000
  0.000000  0.500000  0.000000      1.000000
  0.500000  0.500000  0.000000      1.000000
  0.000000  0.000000  0.500000      1.000000
  0.500000  0.000000  0.500000      1.000000
  0.000000  0.500000  0.500000      1.000000
  0.500000  0.500000  0.500000      1.000000
 
 Following cartesian coordinates:
            Coordinates               Weight
  0.000000  0.000000  0.000000      1.000000
  0.050865 -0.029367  0.000000      1.000000
  0.050865  0.029367  0.000000      1.000000
  0.101730  0.000000  0.000000      1.000000
  0.000000  0.000000  0.046029      1.000000
  0.050865 -0.029367  0.046029      1.000000
  0.050865  0.029367  0.046029      1.000000
  0.101730  0.000000  0.046029      1.000000
 


--------------------------------------------------------------------------------------------------------




 Dimension of arrays:
   k-points           NKPTS =      8   k-points in BZ     NKDIM =      8   number of bands    NBANDS=    288
   number of dos      NEDOS =    301   number of ions     NIONS =     71
   non local maximal  LDIM  =      4   non local SUM 2l+1 LMDIM =      8
   total plane-waves  NPLWV = 200704
   max r-space proj   IRMAX =      1   max aug-charges    IRDMAX=   7581
   dimension x,y,z NGX =    56 NGY =   56 NGZ =   64
   dimension x,y,z NGXF=   112 NGYF=  112 NGZF=  128
   support grid    NGXF=   112 NGYF=  112 NGZF=  128
   ions per type =              24  47
   NGX,Y,Z   is equivalent  to a cutoff of   9.47,  9.47,  9.79 a.u.
   NGXF,Y,Z  is equivalent  to a cutoff of  18.94, 18.94, 19.59 a.u.

 SYSTEM =  SiO2                                    
 POSCAR =  Si24 O47                                

 Startparameter for this run:
   NWRITE =      2    write-flag & timer
   PREC   = normal    normal or accurate (medium, high low for compatibility)
   ISTART =      0    job   : 0-new  1-cont  2-samecut
   ICHARG =      2    charge: 1-file 2-atom 10-const
   ISPIN  =      1    spin polarized calculation?
   LNONCOLLINEAR =      F non collinear calculations
   LSORBIT =      F    spin-orbit coupling
   INIWAV =      1    electr: 0-lowe 1-rand  2-diag
   LASPH  =      F    aspherical Exc in radial PAW
 Electronic Relaxation 1
   ENCUT  =  550.0 eV  40.42 Ry    6.36 a.u.  18.80 18.80 20.77*2*pi/ulx,y,z
   ENINI  =  550.0     initial cutoff
   ENAUG  =  605.4 eV  augmentation charge cutoff
   NELM   =    200;   NELMIN=  2; NELMDL= -5     # of ELM steps 
   EDIFF  = 0.1E-05   stopping-criterion for ELM
   LREAL  =      F    real-space projection
   NLSPLINE    = F    spline interpolate recip. space projectors
   LCOMPAT=      F    compatible to vasp.4.4
   GGA_COMPAT  = T    GGA compatible to vasp.4.4-vasp.4.6
   LMAXPAW     = -100 max onsite density
   LMAXMIX     =    2 max onsite mixed and CHGCAR
   VOSKOWN=      0    Vosko Wilk Nusair interpolation
   ROPT   =    0.00000   0.00000
 Ionic relaxation
   EDIFFG = -.5E-01   stopping-criterion for IOM
   NSW    =      0    number of steps for IOM
   NBLOCK =      1;   KBLOCK =      1    inner block; outer block 
   IBRION =     -1    ionic relax: 0-MD 1-quasi-New 2-CG
   NFREE  =      1    steps in history (QN), initial steepest desc. (CG)
   ISIF   =      2    stress and relaxation
   IWAVPR =     10    prediction:  0-non 1-charg 2-wave 3-comb
   ISYM   =      2    0-nonsym 1-usesym 2-fastsym
   LCORR  =      T    Harris-Foulkes like correction to forces

   POTIM  = 0.5000    time-step for ionic-motion
   TEIN   =    0.0    initial temperature
   TEBEG  =    0.0;   TEEND  =   0.0 temperature during run
   SMASS  =  -3.00    Nose mass-parameter (am)
   estimated Nose-frequenzy (Omega)   =  0.10E-29 period in steps = 0.13E+47 mass=  -0.221E-26a.u.
   SCALEE = 1.0000    scale energy and forces
   NPACO  =    256;   APACO  = 10.0  distance and # of slots for P.C.
   PSTRESS=    0.0 pullay stress

  Mass of Ions in am
   POMASS =  28.09 16.00
  Ionic Valenz
   ZVAL   =   4.00  6.00
  Atomic Wigner-Seitz radii
   RWIGS  =  -1.00 -1.00
  virtual crystal weights 
   VCA    =   1.00  1.00
   NELECT =     377.0000    total number of electrons
   NUPDOWN=      -1.0000    fix difference up-down

 DOS related values:
   EMIN   =  10.00;   EMAX   =-10.00  energy-range for DOS
   EFERMI =   0.00
   ISMEAR =     0;   SIGMA  =   0.05  broadening in eV -4-tet -1-fermi 0-gaus

 Electronic relaxation 2 (details)
   IALGO  =     38    algorithm
   LDIAG  =      T    sub-space diagonalisation (order eigenvalues)
   LSUBROT=      F    optimize rotation matrix (better conditioning)
   TURBO    =      0    0=normal 1=particle mesh
   IRESTART =      0    0=no restart 2=restart with 2 vectors
   NREBOOT  =      0    no. of reboots
   NMIN     =      0    reboot dimension
   EREF     =   0.00    reference energy to select bands
   IMIX   =      4    mixing-type and parameters
     AMIX     =   0.20;   BMIX     =  1.00
     AMIX_MAG =   0.80;   BMIX_MAG =  1.00
     AMIN     =   0.10
     WC   =   100.;   INIMIX=   1;  MIXPRE=   1;  MAXMIX= -45

 Intra band minimization:
   WEIMIN = 0.0000     energy-eigenvalue tresh-hold
   EBREAK =  0.87E-09  absolut break condition
   DEPER  =   0.30     relativ break condition  

   TIME   =   0.40     timestep for ELM

  volume/ion in A,a.u.               =      12.80        86.40
  Fermi-wavevector in a.u.,A,eV,Ry     =   1.220863  2.307096 20.279555  1.490505
  Thomas-Fermi vector in A             =   2.356065
 
 Write flags
   LWAVE        =      T    write WAVECAR
   LDOWNSAMPLE  =      F    k-point downsampling of WAVECAR
   LCHARG       =      T    write CHGCAR
   LVTOT        =      T    write LOCPOT, total local potential
   LVHAR        =      F    write LOCPOT, Hartree potential only
   LELF         =      F    write electronic localiz. function (ELF)
   LORBIT       =     11    0 simple, 1 ext, 2 COOP (PROOUT), +10 PAW based schemes


 Dipole corrections
   LMONO  =      F    monopole corrections only (constant potential shift)
   LDIPOL =      F    correct potential (dipole corrections)
   IDIPOL =      0    1-x, 2-y, 3-z, 4-all directions 
   EPSILON=  1.0000000 bulk dielectric constant

 Exchange correlation treatment:
   GGA     =    --    GGA type
   LEXCH   =     8    internal setting for exchange type
   LIBXC   =     F    Libxc                    
   VOSKOWN =     0    Vosko Wilk Nusair interpolation
   LHFCALC =     F    Hartree Fock is set to
   LHFONE  =     F    Hartree Fock one center treatment
   AEXX    =    0.0000 exact exchange contribution

 Linear response parameters
   LEPSILON=     F    determine dielectric tensor
   LRPA    =     F    only Hartree local field effects (RPA)
   LNABLA  =     F    use nabla operator in PAW spheres
   LVEL    =     F    velocity operator in full k-point grid
   CSHIFT  =0.1000    complex shift for real part using Kramers Kronig
   OMEGAMAX=  -1.0    maximum frequency
   DEG_THRESHOLD= 0.2000000E-02 threshold for treating states as degnerate
   RTIME   =   -0.100 relaxation time in fs
  (WPLASMAI=    0.000 imaginary part of plasma frequency in eV, 0.658/RTIME)
   DFIELD  = 0.0000000 0.0000000 0.0000000 field for delta impulse in time
 
  Optional k-point grid parameters
   LKPOINTS_OPT  =     F    use optional k-point grid
   KPOINTS_OPT_MODE=     1    mode for optional k-point grid
 
 Orbital magnetization related:
   ORBITALMAG=     F  switch on orbital magnetization
   LCHIMAG   =     F  perturbation theory with respect to B field
   DQ        =  0.001000  dq finite difference perturbation B field
   LLRAUG    =     F  two centre corrections for induced B field



--------------------------------------------------------------------------------------------------------


 Static calculation
 charge density and potential will be updated during run
 non-spin polarized calculation
 Variant of blocked Davidson
 Davidson routine will perform the subspace rotation
 perform sub-space diagonalisation
    after iterative eigenvector-optimisation
 modified Broyden-mixing scheme, WC =      100.0
 initial mixing is a Kerker type mixing with AMIX =  0.2000 and BMIX =      1.0000
 Hartree-type preconditioning will be used
 using additional bands           99
 reciprocal scheme for non local part
 use partial core corrections
 calculate Harris-corrections to forces 
   (improved forces if not selfconsistent)
 use gradient corrections 
 use of overlap-Matrix (Vanderbilt PP)
 Gauss-broadening in eV      SIGMA  =   0.05


--------------------------------------------------------------------------------------------------------


  energy-cutoff  :      550.00
  volume of cell :      909.00
      direct lattice vectors                 reciprocal lattice vectors
     4.914966177 -8.512971136  0.000000000     0.101730100 -0.058733901  0.000000000
     4.914966177  8.512971136  0.000000000     0.101730100  0.058733901  0.000000000
     0.000000000  0.000000000 10.862602280     0.000000000  0.000000000  0.092058972

  length of vectors
     9.829932353  9.829932353 10.862602280     0.117467801  0.117467801  0.092058972


 
 k-points in units of 2pi/SCALE and weight: pymatgen with grid density = 1000 / numb
   0.00000000  0.00000000  0.00000000       0.125
   0.05086505 -0.02936695  0.00000000       0.125
   0.05086505  0.02936695  0.00000000       0.125
   0.10173010  0.00000000  0.00000000       0.125
   0.00000000  0.00000000  0.04602949       0.125
   0.05086505 -0.02936695  0.04602949       0.125
   0.05086505  0.02936695  0.04602949       0.125
   0.10173010  0.00000000  0.04602949       0.125
 
 k-points in reciprocal lattice and weights: pymatgen with grid density = 1000 / numb
   0.00000000  0.00000000  0.00000000       0.125
   0.50000000  0.00000000  0.00000000       0.125
   0.00000000  0.50000000  0.00000000       0.125
   0.50000000  0.50000000  0.00000000       0.125
   0.00000000  0.00000000  0.50000000       0.125
   0.50000000  0.00000000  0.50000000       0.125
   0.00000000  0.50000000  0.50000000       0.125
   0.50000000  0.50000000  0.50000000       0.125
 
 position of ions in fractional coordinates (direct lattice) 
   0.26554429  0.26554429  0.00000000
   0.26554429  0.26554429  0.50000000
   0.26554429  0.76554429  0.00000000
   0.26554429  0.76554429  0.50000000
   0.76554429  0.26554429  0.00000000
   0.76554429  0.26554429  0.50000000
   0.76554429  0.76554429  0.00000000
   0.76554429  0.76554429  0.50000000
   0.00000000  0.23445571  0.33333333
   0.00000000  0.23445571  0.83333333
   0.00000000  0.73445571  0.33333333
   0.00000000  0.73445571  0.83333333
   0.50000000  0.23445571  0.33333333
   0.50000000  0.23445571  0.83333333
   0.50000000  0.73445571  0.33333333
   0.50000000  0.73445571  0.83333333
   0.23445571  0.00000000  0.16666667
   0.23445571  0.00000000  0.66666667
   0.23445571  0.50000000  0.16666667
   0.23445571  0.50000000  0.66666667
   0.73445571  0.00000000  0.16666667
   0.73445571  0.00000000  0.66666667
   0.73445571  0.50000000  0.16666667
   0.73445571  0.50000000  0.66666667
   0.13461155  0.20669714  0.89244549
   0.13461155  0.70669714  0.39244549
   0.13461155  0.70669714  0.89244549
   0.63461155  0.20669714  0.39244549
   0.63461155  0.20669714  0.89244549
   0.63461155  0.70669714  0.39244549
   0.63461155  0.70669714  0.89244549
   0.29330286  0.42791441  0.05911216
   0.29330286  0.42791441  0.55911216
   0.29330286  0.92791441  0.05911216
   0.29330286  0.92791441  0.55911216
   0.79330286  0.42791441  0.05911216
   0.79330286  0.42791441  0.55911216
   0.79330286  0.92791441  0.05911216
   0.79330286  0.92791441  0.55911216
   0.07208559  0.36538845  0.22577882
   0.07208559  0.36538845  0.72577882
   0.07208559  0.86538845  0.22577882
   0.07208559  0.86538845  0.72577882
   0.57208559  0.36538845  0.22577882
   0.57208559  0.36538845  0.72577882
   0.57208559  0.86538845  0.22577882
   0.57208559  0.86538845  0.72577882
   0.20669714  0.13461155  0.10755451
   0.20669714  0.13461155  0.60755451
   0.20669714  0.63461155  0.10755451
   0.20669714  0.63461155  0.60755451
   0.70669714  0.13461155  0.10755451
   0.70669714  0.13461155  0.60755451
   0.70669714  0.63461155  0.10755451
   0.70669714  0.63461155  0.60755451
   0.36538845  0.07208559  0.27422118
   0.36538845  0.07208559  0.77422118
   0.36538845  0.57208559  0.27422118
   0.36538845  0.57208559  0.77422118
   0.86538845  0.07208559  0.27422118
   0.86538845  0.07208559  0.77422118
   0.86538845  0.57208559  0.27422118
   0.86538845  0.57208559  0.77422118
   0.42791441  0.29330286  0.44088784
   0.42791441  0.29330286  0.94088784
   0.42791441  0.79330286  0.44088784
   0.42791441  0.79330286  0.94088784
   0.92791441  0.29330286  0.44088784
   0.92791441  0.29330286  0.94088784
   0.92791441  0.79330286  0.44088784
   0.92791441  0.79330286  0.94088784
 
 position of ions in cartesian coordinates  (Angst):
   2.61028246 -0.00000000  0.00000000
   2.61028246 -0.00000000  5.43130114
   5.06776555  4.25648557  0.00000000
   5.06776555  4.25648557  5.43130114
   5.06776555 -4.25648557  0.00000000
   5.06776555 -4.25648557  5.43130114
   7.52524863  0.00000000  0.00000000
   7.52524863  0.00000000  5.43130114
   1.15234186  1.99591465  3.62086743
   1.15234186  1.99591465  9.05216857
   3.60982495  6.25240022  3.62086743
   3.60982495  6.25240022  9.05216857
   3.60982495 -2.26057092  3.62086743
   3.60982495 -2.26057092  9.05216857
   6.06730804  1.99591465  3.62086743
   6.06730804  1.99591465  9.05216857
   1.15234186 -1.99591465  1.81043371
   1.15234186 -1.99591465  7.24173485
   3.60982495  2.26057092  1.81043371
   3.60982495  2.26057092  7.24173485
   3.60982495 -6.25240022  1.81043371
   3.60982495 -6.25240022  7.24173485
   6.06730804 -1.99591465  1.81043371
   6.06730804 -1.99591465  7.24173485
   1.67752072  0.61366255  9.69428041
   4.13500380  4.87014811  4.26297927
   4.13500380  4.87014811  9.69428041
   4.13500380 -3.64282302  4.26297927
   4.13500380 -3.64282302  9.69428041
   6.59248689  0.61366255  4.26297927
   6.59248689  0.61366255  9.69428041
   3.54475846  1.14594428  0.64211185
   3.54475846  1.14594428  6.07341299
   6.00224155  5.40242985  0.64211185
   6.00224155  5.40242985  6.07341299
   6.00224155 -3.11054129  0.64211185
   6.00224155 -3.11054129  6.07341299
   8.45972464  1.14594428  0.64211185
   8.45972464  1.14594428  6.07341299
   2.15017009  2.49687874  2.45254556
   2.15017009  2.49687874  7.88384670
   4.60765317  6.75336431  2.45254556
   4.60765317  6.75336431  7.88384670
   4.60765317 -1.75960683  2.45254556
   4.60765317 -1.75960683  7.88384670
   7.06513626  2.49687874  2.45254556
   7.06513626  2.49687874  7.88384670
   1.67752072 -0.61366255  1.16832187
   1.67752072 -0.61366255  6.59962301
   4.13500380  3.64282302  1.16832187
   4.13500380  3.64282302  6.59962301
   4.13500380 -4.87014811  1.16832187
   4.13500380 -4.87014811  6.59962301
   6.59248689 -0.61366255  1.16832187
   6.59248689 -0.61366255  6.59962301
   2.15017009 -2.49687874  2.97875558
   2.15017009 -2.49687874  8.41005672
   4.60765317  1.75960683  2.97875558
   4.60765317  1.75960683  8.41005672
   4.60765317 -6.75336431  2.97875558
   4.60765317 -6.75336431  8.41005672
   7.06513626 -2.49687874  2.97875558
   7.06513626 -2.49687874  8.41005672
   3.54475846 -1.14594428  4.78918929
   3.54475846 -1.14594428 10.22049043
   6.00224155  3.11054129  4.78918929
   6.00224155  3.11054129 10.22049043
   6.00224155 -5.40242985  4.78918929
   6.00224155 -5.40242985 10.22049043
   8.45972464 -1.14594428  4.78918929
   8.45972464 -1.14594428 10.22049043
 


--------------------------------------------------------------------------------------------------------


 k-point   1 :   0.0000 0.0000 0.0000  plane waves:   26579
 k-point   2 :   0.5000 0.0000 0.0000  plane waves:   26614
 k-point   3 :   0.0000 0.5000 0.0000  plane waves:   26614
 k-point   4 :   0.5000 0.5000 0.0000  plane waves:   26614
 k-point   5 :   0.0000 0.0000 0.5000  plane waves:   26718
 k-point   6 :   0.5000 0.0000 0.5000  plane waves:   26636
 k-point   7 :   0.0000 0.5000 0.5000  plane waves:   26636
 k-point   8 :   0.5000 0.5000 0.5000  plane waves:   26636

 maximum and minimum number of plane-waves per node :     26718    26579

 maximum number of plane-waves:     26718
 maximum index in each direction: 
   IXMAX=   18   IYMAX=   18   IZMAX=   20
   IXMIN=  -19   IYMIN=  -19   IZMIN=  -21


 serial   3D FFT for wavefunctions
 parallel 3D FFT for charge:
    minimum data exchange during FFTs selected (reduces bandwidth)


 total amount of memory used by VASP MPI-rank0   109999. kBytes
=======================================================================

   base      :      30000. kBytes
   nonl-proj :      57853. kBytes
   fftplans  :       1721. kBytes
   grid      :       9701. kBytes
   one-center:        218. kBytes
   wavefun   :      10506. kBytes
 
     INWAV:  cpu time      0.0000: real time      0.0003
 Broyden mixing: mesh for mixing (old mesh)
   NGX = 37   NGY = 37   NGZ = 41
  (NGX  =112   NGY  =112   NGZ  =128)
  gives a total of  56129 points

 initial charge density was supplied:
 charge density of overlapping atoms calculated
 number of electron     378.0000000 magnetization 
 keeping initial charge density in first step


--------------------------------------------------------------------------------------------------------


 Maximum index for augmentation-charges          412 (set IRDMAX)


--------------------------------------------------------------------------------------------------------


 First call to EWALD:  gamma=   0.183
 Maximum number of real-space cells 3x 3x 3
 Maximum number of reciprocal cells 3x 3x 3

    FEWALD:  cpu time      0.0033: real time      0.0033


--------------------------------------- Iteration      1(   1)  ---------------------------------------


    POTLOK:  cpu time      0.0186: real time      0.0193
    SETDIJ:  cpu time      0.0023: real time      0.0024
     EDDAV:  cpu time      4.1859: real time      4.2033
       DOS:  cpu time      0.0018: real time      0.0019
    --------------------------------------------
      LOOP:  cpu time      4.2087: real time      4.2269

 eigenvalue-minimisations  :  4608
 total energy-change (2. order) : 0.1928986E+04  (-0.2031273E+05)
 number of electron     378.0000000 magnetization 
 augmentation part      378.0000000 magnetization 

 Free energy of the ion-electron system (eV)
  ---------------------------------------------------
  alpha Z        PSCENC =       536.62291721
  Ewald energy   TEWEN  =    -14668.27296387
  -Hartree energ DENC   =     -7487.69458478
  -exchange      EXHF   =         0.00000000
  -V(xc)+E(xc)   XCENC  =      1103.28678992
  PAW double counting   =     18402.79660460   -18065.09536210
  entropy T*S    EENTRO =        -0.01027599
  eigenvalues    EBANDS =      -687.13537391
  atomic energy  EATOM  =     22794.48802020
  Solvation  Ediel_sol  =         0.00000000
  ---------------------------------------------------
  free energy    TOTEN  =      1928.98577128 eV

  energy without entropy =     1928.99604727  energy(sigma->0) =     1928.99090927


--------------------------------------------------------------------------------------------------------




--------------------------------------- Iteration      1(   2)  ---------------------------------------


     EDDAV:  cpu time      7.4230: real time      7.4566
       DOS:  cpu time      0.0012: real time      0.0012
    --------------------------------------------
      LOOP:  cpu time      7.4242: real time      7.4578

 eigenvalue-minimisations  :  6720
 total energy-change (2. order) :-0.2448397E+04  (-0.2373762E+04)
 number of electron     378.0000000 magnetization 
 augmentation part      378.0000000 magnetization 

 Free energy of the ion-electron system (eV)
  ---------------------------------------------------
  alpha Z        PSCENC =       536.62291721
  Ewald energy   TEWEN  =    -14668.27296387
  -Hartree energ DENC   =     -7487.69458478
  -exchange      EXHF   =         0.00000000
  -V(xc)+E(xc)   XCENC  =      1103.28678992
  PAW double counting   =     18402.79660460   -18065.09536210
  entropy T*S    EENTRO =        -0.02450521
  eigenvalues    EBANDS =     -3135.51849594
  atomic energy  EATOM  =     22794.48802020
  Solvation  Ediel_sol  =         0.00000000
  ---------------------------------------------------
  free energy    TOTEN  =      -519.41157997 eV

  energy without entropy =     -519.38707476  energy(sigma->0) =     -519.39932737


--------------------------------------------------------------------------------------------------------




--------------------------------------- Iteration      1(   3)  ---------------------------------------


     EDDAV:  cpu time      6.5088: real time      6.5405
       DOS:  cpu time      0.0014: real time      0.0014
    --------------------------------------------
      LOOP:  cpu time      6.5102: real time      6.5420

 eigenvalue-minimisations  :  6144
 total energy-change (2. order) :-0.1140002E+03  (-0.1136482E+03)
 number of electron     378.0000000 magnetization 
 augmentation part      378.0000000 magnetization 

 Free energy of the ion-electron system (eV)
  ---------------------------------------------------
  alpha Z        PSCENC =       536.62291721
  Ewald energy   TEWEN  =    -14668.27296387
  -Hartree energ DENC   =     -7487.69458478
  -exchange      EXHF   =         0.00000000
  -V(xc)+E(xc)   XCENC  =      1103.28678992
  PAW double counting   =     18402.79660460   -18065.09536210
  entropy T*S    EENTRO =        -0.02711538
  eigenvalues    EBANDS =     -3249.51610949
  atomic energy  EATOM  =     22794.48802020
  Solvation  Ediel_sol  =         0.00000000
  ---------------------------------------------------
  free energy    TOTEN  =      -633.41180369 eV

  energy without entropy =     -633.38468832  energy(sigma->0) =     -633.39824600


--------------------------------------------------------------------------------------------------------




--------------------------------------- Iteration      1(   4)  ---------------------------------------


     EDDAV:  cpu time      5.8670: real time      5.8942
       DOS:  cpu time      0.0012: real time      0.0012
    --------------------------------------------
      LOOP:  cpu time      5.8682: real time      5.8954

 eigenvalue-minimisations  :  5280
 total energy-change (2. order) :-0.9792218E+00  (-0.9791188E+00)
 number of electron     378.0000000 magnetization 
 augmentation part      378.0000000 magnetization 

 Free energy of the ion-electron system (eV)
  ---------------------------------------------------
  alpha Z        PSCENC =       536.62291721
  Ewald energy   TEWEN  =    -14668.27296387
  -Hartree energ DENC   =     -7487.69458478
  -exchange      EXHF   =         0.00000000
  -V(xc)+E(xc)   XCENC  =      1103.28678992
  PAW double counting   =     18402.79660460   -18065.09536210
  entropy T*S    EENTRO =        -0.02704228
  eigenvalues    EBANDS =     -3250.49540436
  atomic energy  EATOM  =     22794.48802020
  Solvation  Ediel_sol  =         0.00000000
  ---------------------------------------------------
  free energy    TOTEN  =      -634.39102547 eV

  energy without entropy =     -634.36398318  energy(sigma->0) =     -634.37750433


--------------------------------------------------------------------------------------------------------




--------------------------------------- Iteration      1(   5)  ---------------------------------------


     EDDAV:  cpu time      7.5520: real time      7.5900
       DOS:  cpu time      0.0014: real time      0.0014
    CHARGE:  cpu time      0.0385: real time      0.0391
    MIXING:  cpu time      0.0026: real time      0.0032
    --------------------------------------------
      LOOP:  cpu time      7.5944: real time      7.6337

 eigenvalue-minimisations  :  6624
 total energy-change (2. order) :-0.1108661E-01  (-0.1108638E-01)
 number of electron     377.0000062 magnetization 
 augmentation part       34.8802934 magnetization 

 Broyden mixing:
  rms(total) = 0.71182E+01    rms(broyden)= 0.71173E+01
  rms(prec ) = 0.82334E+01
  weight for this iteration     100.00

 Free energy of the ion-electron system (eV)
  ---------------------------------------------------
  alpha Z        PSCENC =       536.62291721
  Ewald energy   TEWEN  =    -14668.27296387
  -Hartree energ DENC   =     -7487.69458478
  -exchange      EXHF   =         0.00000000
  -V(xc)+E(xc)   XCENC  =      1103.28678992
  PAW double counting   =     18402.79660460   -18065.09536210
  entropy T*S    EENTRO =        -0.02704109
  eigenvalues    EBANDS =     -3250.50649216
  atomic energy  EATOM  =     22794.48802020
  Solvation  Ediel_sol  =         0.00000000
  ---------------------------------------------------
  free energy    TOTEN  =      -634.40211208 eV

  energy without entropy =     -634.37507099  energy(sigma->0) =     -634.38859153


--------------------------------------------------------------------------------------------------------




--------------------------------------- Iteration      1(   6)  ---------------------------------------


    POTLOK:  cpu time      0.0129: real time      0.0130
    SETDIJ:  cpu time      0.0014: real time      0.0014
     EDDAV:  cpu time      6.3564: real time      6.3815
       DOS:  cpu time      0.0023: real time      0.0023
    CHARGE:  cpu time      0.0509: real time      0.0513
    MIXING:  cpu time      0.0008: real time      0.0012
    --------------------------------------------
      LOOP:  cpu time      6.4248: real time      6.4507

 eigenvalue-minimisations  :  6144
 total energy-change (2. order) : 0.5420201E+02  (-0.5896622E+01)
 number of electron     377.0000058 magnetization 
 augmentation part       31.5187291 magnetization 

 Broyden mixing:
  rms(total) = 0.49223E+01    rms(broyden)= 0.49223E+01
  rms(prec ) = 0.54508E+01
  weight for this iteration     100.00

 eigenvalues of (default mixing * dielectric matrix)
  average eigenvalue GAMMA=   2.3168
  2.3168

 Free energy of the ion-electron system (eV)
  ---------------------------------------------------
  alpha Z        PSCENC =       536.62291721
  Ewald energy   TEWEN  =    -14668.27296387
  -Hartree energ DENC   =     -7908.40411382
  -exchange      EXHF   =         0.00000000
  -V(xc)+E(xc)   XCENC  =      1128.17413196
  PAW double counting   =     24299.72417737   -23970.29478399
  entropy T*S    EENTRO =        -0.02618260
  eigenvalues    EBANDS =     -2792.21130067
  atomic energy  EATOM  =     22794.48802020
  Solvation  Ediel_sol  =         0.00000000
  ---------------------------------------------------
  free energy    TOTEN  =      -580.20009820 eV

  energy without entropy =     -580.17391560  energy(sigma->0) =     -580.18700690


--------------------------------------------------------------------------------------------------------




--------------------------------------- Iteration      1(   7)  ---------------------------------------


    POTLOK:  cpu time      0.0142: real time      0.0146
    SETDIJ:  cpu time      0.0016: real time      0.0016
     EDDAV:  cpu time      7.0392: real time      7.0710
       DOS:  cpu time      0.0013: real time      0.0013
    CHARGE:  cpu time      0.0358: real time      0.0360
    MIXING:  cpu time      0.0006: real time      0.0008
    --------------------------------------------
      LOOP:  cpu time      7.0928: real time      7.1254

 eigenvalue-minimisations  :  6144
 total energy-change (2. order) : 0.2072710E+02  (-0.9685579E+01)
 number of electron     377.0000052 magnetization 
 augmentation part       27.2726714 magnetization 

 Broyden mixing:
  rms(total) = 0.21004E+01    rms(broyden)= 0.20997E+01
  rms(prec ) = 0.21928E+01
  weight for this iteration     100.00

 eigenvalues of (default mixing * dielectric matrix)
  average eigenvalue GAMMA=   2.2479
  2.2479  2.2479

 Free energy of the ion-electron system (eV)
  ---------------------------------------------------
  alpha Z        PSCENC =       536.62291721
  Ewald energy   TEWEN  =    -14668.27296387
  -Hartree energ DENC   =     -8460.47001737
  -exchange      EXHF   =         0.00000000
  -V(xc)+E(xc)   XCENC  =      1164.78974387
  PAW double counting   =     42084.82473277   -41765.43477867
  entropy T*S    EENTRO =        -0.02105307
  eigenvalues    EBANDS =     -2245.99960083
  atomic energy  EATOM  =     22794.48802020
  Solvation  Ediel_sol  =         0.00000000
  ---------------------------------------------------
  free energy    TOTEN  =      -559.47299976 eV

  energy without entropy =     -559.45194669  energy(sigma->0) =     -559.46247323


--------------------------------------------------------------------------------------------------------




--------------------------------------- Iteration      1(   8)  ---------------------------------------


    POTLOK:  cpu time      0.0132: real time      0.0136
    SETDIJ:  cpu time      0.0014: real time      0.0014
     EDDAV:  cpu time      4.9414: real time      4.9628
       DOS:  cpu time      0.0021: real time      0.0021
    CHARGE:  cpu time      0.0509: real time      0.0512
    MIXING:  cpu time      0.0007: real time      0.0008
    --------------------------------------------
      LOOP:  cpu time      5.0097: real time      5.0320

 eigenvalue-minimisations  :  5184
 total energy-change (2. order) : 0.7499249E-01  (-0.4421776E+00)
 number of electron     377.0000053 magnetization 
 augmentation part       27.8901710 magnetization 

 Broyden mixing:
  rms(total) = 0.91939E+00    rms(broyden)= 0.91938E+00
  rms(prec ) = 0.10040E+01
  weight for this iteration     100.00

 eigenvalues of (default mixing * dielectric matrix)
  average eigenvalue GAMMA=   2.4602
  4.1041  1.2181  2.0582

 Free energy of the ion-electron system (eV)
  ---------------------------------------------------
  alpha Z        PSCENC =       536.62291721
  Ewald energy   TEWEN  =    -14668.27296387
  -Hartree energ DENC   =     -8417.27739162
  -exchange      EXHF   =         0.00000000
  -V(xc)+E(xc)   XCENC  =      1162.16287144
  PAW double counting   =     51129.09899956   -50807.99409172
  entropy T*S    EENTRO =        -0.02236719
  eigenvalues    EBANDS =     -2288.20400127
  atomic energy  EATOM  =     22794.48802020
  Solvation  Ediel_sol  =         0.00000000
  ---------------------------------------------------
  free energy    TOTEN  =      -559.39800727 eV

  energy without entropy =     -559.37564008  energy(sigma->0) =     -559.38682367


--------------------------------------------------------------------------------------------------------




--------------------------------------- Iteration      1(   9)  ---------------------------------------


    POTLOK:  cpu time      0.0153: real time      0.0157
    SETDIJ:  cpu time      0.0016: real time      0.0016
     EDDAV:  cpu time      7.2658: real time      7.3010
       DOS:  cpu time      0.0016: real time      0.0016
    CHARGE:  cpu time      0.0492: real time      0.0495
    MIXING:  cpu time      0.0008: real time      0.0008
    --------------------------------------------
      LOOP:  cpu time      7.3343: real time      7.3702

 eigenvalue-minimisations  :  6144
 total energy-change (2. order) : 0.6821633E-01  (-0.8156854E-01)
 number of electron     377.0000053 magnetization 
 augmentation part       27.6723281 magnetization 

 Broyden mixing:
  rms(total) = 0.22834E+00    rms(broyden)= 0.22833E+00
  rms(prec ) = 0.25665E+00
  weight for this iteration     100.00

 eigenvalues of (default mixing * dielectric matrix)
  average eigenvalue GAMMA=   2.4107
  5.0089  1.8508  1.8508  0.9321

 Free energy of the ion-electron system (eV)
  ---------------------------------------------------
  alpha Z        PSCENC =       536.62291721
  Ewald energy   TEWEN  =    -14668.27296387
  -Hartree energ DENC   =     -8500.17151645
  -exchange      EXHF   =         0.00000000
  -V(xc)+E(xc)   XCENC  =      1168.02572680
  PAW double counting   =     62132.35879846   -61812.26653887
  entropy T*S    EENTRO =        -0.02251162
  eigenvalues    EBANDS =     -2210.09172280
  atomic energy  EATOM  =     22794.48802020
  Solvation  Ediel_sol  =         0.00000000
  ---------------------------------------------------
  free energy    TOTEN  =      -559.32979094 eV

  energy without entropy =     -559.30727932  energy(sigma->0) =     -559.31853513


--------------------------------------------------------------------------------------------------------




--------------------------------------- Iteration      1(  10)  ---------------------------------------


    POTLOK:  cpu time      0.0151: real time      0.0155
    SETDIJ:  cpu time      0.0015: real time      0.0015
     EDDAV:  cpu time      5.7735: real time      5.8003
       DOS:  cpu time      0.0017: real time      0.0017
    CHARGE:  cpu time      0.0427: real time      0.0430
    MIXING:  cpu time      0.0005: real time      0.0005
    --------------------------------------------
      LOOP:  cpu time      5.8350: real time      5.8625

 eigenvalue-minimisations  :  5664
 total energy-change (2. order) :-0.4746800E-01  (-0.1304664E-01)
 number of electron     377.0000052 magnetization 
 augmentation part       27.5764790 magnetization 

 Broyden mixing:
  rms(total) = 0.23165E+00    rms(broyden)= 0.23164E+00
  rms(prec ) = 0.23956E+00
  weight for this iteration     100.00

 eigenvalues of (default mixing * dielectric matrix)
  average eigenvalue GAMMA=   2.3869
  5.0566  2.8543  2.0634  0.9802  0.9802

 Free energy of the ion-electron system (eV)
  ---------------------------------------------------
  alpha Z        PSCENC =       536.62291721
  Ewald energy   TEWEN  =    -14668.27296387
  -Hartree energ DENC   =     -8527.82981403
  -exchange      EXHF   =         0.00000000
  -V(xc)+E(xc)   XCENC  =      1170.04557211
  PAW double counting   =     64640.70789471   -64321.02008742
  entropy T*S    EENTRO =        -0.02241431
  eigenvalues    EBANDS =     -2184.09638354
  atomic energy  EATOM  =     22794.48802020
  Solvation  Ediel_sol  =         0.00000000
  ---------------------------------------------------
  free energy    TOTEN  =      -559.37725893 eV

  energy without entropy =     -559.35484462  energy(sigma->0) =     -559.36605178


--------------------------------------------------------------------------------------------------------




--------------------------------------- Iteration      1(  11)  ---------------------------------------


    POTLOK:  cpu time      0.0120: real time      0.0124
    SETDIJ:  cpu time      0.0014: real time      0.0014
     EDDAV:  cpu time      6.7495: real time      6.7766
       DOS:  cpu time      0.0015: real time      0.0015
    CHARGE:  cpu time      0.0540: real time      0.0544
    MIXING:  cpu time      0.0008: real time      0.0008
    --------------------------------------------
      LOOP:  cpu time      6.8192: real time      6.8471

 eigenvalue-minimisations  :  6144
 total energy-change (2. order) :-0.9616178E-02  (-0.8986098E-02)
 number of electron     377.0000052 magnetization 
 augmentation part       27.6293204 magnetization 

 Broyden mixing:
  rms(total) = 0.90718E-01    rms(broyden)= 0.90711E-01
  rms(prec ) = 0.95214E-01
  weight for this iteration     100.00

 eigenvalues of (default mixing * dielectric matrix)
  average eigenvalue GAMMA=   2.1950
  5.0495  2.2973  2.2973  0.9391  1.2935  1.2935

 Free energy of the ion-electron system (eV)
  ---------------------------------------------------
  alpha Z        PSCENC =       536.62291721
  Ewald energy   TEWEN  =    -14668.27296387
  -Hartree energ DENC   =     -8525.16680393
  -exchange      EXHF   =         0.00000000
  -V(xc)+E(xc)   XCENC  =      1169.88281953
  PAW double counting   =     62948.51423838   -62628.82261210
  entropy T*S    EENTRO =        -0.02183198
  eigenvalues    EBANDS =     -2186.61065855
  atomic energy  EATOM  =     22794.48802020
  Solvation  Ediel_sol  =         0.00000000
  ---------------------------------------------------
  free energy    TOTEN  =      -559.38687511 eV

  energy without entropy =     -559.36504313  energy(sigma->0) =     -559.37595912


--------------------------------------------------------------------------------------------------------




--------------------------------------- Iteration      1(  12)  ---------------------------------------


    POTLOK:  cpu time      0.0148: real time      0.0153
    SETDIJ:  cpu time      0.0016: real time      0.0016
     EDDAV:  cpu time      6.7625: real time      6.8038
       DOS:  cpu time      0.0016: real time      0.0016
    CHARGE:  cpu time      0.0344: real time      0.0345
    MIXING:  cpu time      0.0006: real time      0.0006
    --------------------------------------------
      LOOP:  cpu time      6.8154: real time      6.8574

 eigenvalue-minimisations  :  6144
 total energy-change (2. order) : 0.2260759E-03  (-0.1527798E-02)
 number of electron     377.0000052 magnetization 
 augmentation part       27.6081237 magnetization 

 Broyden mixing:
  rms(total) = 0.10055E+00    rms(broyden)= 0.10055E+00
  rms(prec ) = 0.10298E+00
  weight for this iteration     100.00

 eigenvalues of (default mixing * dielectric matrix)
  average eigenvalue GAMMA=   2.2972
  5.0600  3.7974  1.9864  1.7507  1.4791  1.0033  1.0033

 Free energy of the ion-electron system (eV)
  ---------------------------------------------------
  alpha Z        PSCENC =       536.62291721
  Ewald energy   TEWEN  =    -14668.27296387
  -Hartree energ DENC   =     -8528.09448359
  -exchange      EXHF   =         0.00000000
  -V(xc)+E(xc)   XCENC  =      1170.06179868
  PAW double counting   =     63091.44478490   -62771.78651017
  entropy T*S    EENTRO =        -0.02196584
  eigenvalues    EBANDS =     -2183.82824656
  atomic energy  EATOM  =     22794.48802020
  Solvation  Ediel_sol  =         0.00000000
  ---------------------------------------------------
  free energy    TOTEN  =      -559.38664904 eV

  energy without entropy =     -559.36468320  energy(sigma->0) =     -559.37566612


--------------------------------------------------------------------------------------------------------




--------------------------------------- Iteration      1(  13)  ---------------------------------------


    POTLOK:  cpu time      0.0122: real time      0.0125
    SETDIJ:  cpu time      0.0014: real time      0.0014
     EDDAV:  cpu time      6.0038: real time      6.0336
       DOS:  cpu time      0.0015: real time      0.0015
    CHARGE:  cpu time      0.0385: real time      0.0388
    MIXING:  cpu time      0.0006: real time      0.0006
    --------------------------------------------
      LOOP:  cpu time      6.0580: real time      6.0884

 eigenvalue-minimisations  :  5664
 total energy-change (2. order) :-0.4475264E-02  (-0.8545781E-03)
 number of electron     377.0000053 magnetization 
 augmentation part       27.6331548 magnetization 

 Broyden mixing:
  rms(total) = 0.17085E-01    rms(broyden)= 0.17078E-01
  rms(prec ) = 0.18966E-01
  weight for this iteration     100.00

 eigenvalues of (default mixing * dielectric matrix)
  average eigenvalue GAMMA=   2.2537
  5.3911  4.6885  1.8902  1.3749  1.3749  1.4495  0.9805  0.8798

 Free energy of the ion-electron system (eV)
  ---------------------------------------------------
  alpha Z        PSCENC =       536.62291721
  Ewald energy   TEWEN  =    -14668.27296387
  -Hartree energ DENC   =     -8526.82908154
  -exchange      EXHF   =         0.00000000
  -V(xc)+E(xc)   XCENC  =      1169.95357269
  PAW double counting   =     62017.84958518   -61698.15438259
  entropy T*S    EENTRO =        -0.02206258
  eigenvalues    EBANDS =     -2185.02672900
  atomic energy  EATOM  =     22794.48802020
  Solvation  Ediel_sol  =         0.00000000
  ---------------------------------------------------
  free energy    TOTEN  =      -559.39112430 eV

  energy without entropy =     -559.36906172  energy(sigma->0) =     -559.38009301


--------------------------------------------------------------------------------------------------------




--------------------------------------- Iteration      1(  14)  ---------------------------------------


    POTLOK:  cpu time      0.0119: real time      0.0123
    SETDIJ:  cpu time      0.0014: real time      0.0014
     EDDAV:  cpu time      6.8437: real time      6.8764
       DOS:  cpu time      0.0020: real time      0.0020
    CHARGE:  cpu time      0.0512: real time      0.0516
    MIXING:  cpu time      0.0007: real time      0.0007
    --------------------------------------------
      LOOP:  cpu time      6.9111: real time      6.9445

 eigenvalue-minimisations  :  6144
 total energy-change (2. order) :-0.7882628E-03  (-0.2139722E-03)
 number of electron     377.0000053 magnetization 
 augmentation part       27.6423504 magnetization 

 Broyden mixing:
  rms(total) = 0.18510E-01    rms(broyden)= 0.18509E-01
  rms(prec ) = 0.19736E-01
  weight for this iteration     100.00

 eigenvalues of (default mixing * dielectric matrix)
  average eigenvalue GAMMA=   2.2364
  5.3628  4.7774  2.0135  2.0135  1.5110  1.5110  0.9756  0.9813  0.9813

 Free energy of the ion-electron system (eV)
  ---------------------------------------------------
  alpha Z        PSCENC =       536.62291721
  Ewald energy   TEWEN  =    -14668.27296387
  -Hartree energ DENC   =     -8526.63731129
  -exchange      EXHF   =         0.00000000
  -V(xc)+E(xc)   XCENC  =      1169.94168782
  PAW double counting   =     61727.83286133   -61408.13128515
  entropy T*S    EENTRO =        -0.02201366
  eigenvalues    EBANDS =     -2185.21382515
  atomic energy  EATOM  =     22794.48802020
  Solvation  Ediel_sol  =         0.00000000
  ---------------------------------------------------
  free energy    TOTEN  =      -559.39191256 eV

  energy without entropy =     -559.36989890  energy(sigma->0) =     -559.38090573


--------------------------------------------------------------------------------------------------------




--------------------------------------- Iteration      1(  15)  ---------------------------------------


    POTLOK:  cpu time      0.0152: real time      0.0157
    SETDIJ:  cpu time      0.0016: real time      0.0016
     EDDAV:  cpu time      6.3606: real time      6.3884
       DOS:  cpu time      0.0015: real time      0.0016
    CHARGE:  cpu time      0.0363: real time      0.0365
    MIXING:  cpu time      0.0008: real time      0.0008
    --------------------------------------------
      LOOP:  cpu time      6.4160: real time      6.4445

 eigenvalue-minimisations  :  6144
 total energy-change (2. order) :-0.3353456E-04  (-0.7054061E-04)
 number of electron     377.0000053 magnetization 
 augmentation part       27.6372242 magnetization 

 Broyden mixing:
  rms(total) = 0.10113E-01    rms(broyden)= 0.10113E-01
  rms(prec ) = 0.10365E-01
  weight for this iteration     100.00

 eigenvalues of (default mixing * dielectric matrix)
  average eigenvalue GAMMA=   2.2159
  5.4557  4.8633  2.7687  2.1141  1.4972  1.4972  0.9747  0.9083  1.0398  1.0398

 Free energy of the ion-electron system (eV)
  ---------------------------------------------------
  alpha Z        PSCENC =       536.62291721
  Ewald energy   TEWEN  =    -14668.27296387
  -Hartree energ DENC   =     -8527.28943833
  -exchange      EXHF   =         0.00000000
  -V(xc)+E(xc)   XCENC  =      1169.98073116
  PAW double counting   =     61800.90889238   -61481.19807583
  entropy T*S    EENTRO =        -0.02201927
  eigenvalues    EBANDS =     -2184.61000975
  atomic energy  EATOM  =     22794.48802020
  Solvation  Ediel_sol  =         0.00000000
  ---------------------------------------------------
  free energy    TOTEN  =      -559.39194610 eV

  energy without entropy =     -559.36992683  energy(sigma->0) =     -559.38093646


--------------------------------------------------------------------------------------------------------




--------------------------------------- Iteration      1(  16)  ---------------------------------------


    POTLOK:  cpu time      0.0122: real time      0.0125
    SETDIJ:  cpu time      0.0014: real time      0.0014
     EDDAV:  cpu time      6.7238: real time      6.7536
       DOS:  cpu time      0.0021: real time      0.0021
    CHARGE:  cpu time      0.0468: real time      0.0472
    MIXING:  cpu time      0.0009: real time      0.0009
    --------------------------------------------
      LOOP:  cpu time      6.7872: real time      6.8177

 eigenvalue-minimisations  :  6144
 total energy-change (2. order) :-0.6649478E-04  (-0.6481866E-05)
 number of electron     377.0000053 magnetization 
 augmentation part       27.6368846 magnetization 

 Broyden mixing:
  rms(total) = 0.62563E-02    rms(broyden)= 0.62562E-02
  rms(prec ) = 0.64395E-02
  weight for this iteration     100.00

 eigenvalues of (default mixing * dielectric matrix)
  average eigenvalue GAMMA=   2.2626
  5.6411  4.9013  3.4778  2.1286  1.4455  1.4455  1.6052  1.2892  0.9469  1.0035
  1.0035

 Free energy of the ion-electron system (eV)
  ---------------------------------------------------
  alpha Z        PSCENC =       536.62291721
  Ewald energy   TEWEN  =    -14668.27296387
  -Hartree energ DENC   =     -8527.37401641
  -exchange      EXHF   =         0.00000000
  -V(xc)+E(xc)   XCENC  =      1169.98574565
  PAW double counting   =     61836.61280762   -61516.89183274
  entropy T*S    EENTRO =        -0.02202386
  eigenvalues    EBANDS =     -2184.54066639
  atomic energy  EATOM  =     22794.48802020
  Solvation  Ediel_sol  =         0.00000000
  ---------------------------------------------------
  free energy    TOTEN  =      -559.39201259 eV

  energy without entropy =     -559.36998873  energy(sigma->0) =     -559.38100066


--------------------------------------------------------------------------------------------------------




--------------------------------------- Iteration      1(  17)  ---------------------------------------


    POTLOK:  cpu time      0.0147: real time      0.0152
    SETDIJ:  cpu time      0.0015: real time      0.0015
     EDDAV:  cpu time      6.3912: real time      6.4189
       DOS:  cpu time      0.0011: real time      0.0011
    CHARGE:  cpu time      0.0342: real time      0.0344
    MIXING:  cpu time      0.0007: real time      0.0007
    --------------------------------------------
      LOOP:  cpu time      6.4434: real time      6.4718

 eigenvalue-minimisations  :  6144
 total energy-change (2. order) :-0.2384307E-04  (-0.3973271E-05)
 number of electron     377.0000053 magnetization 
 augmentation part       27.6358725 magnetization 

 Broyden mixing:
  rms(total) = 0.21760E-02    rms(broyden)= 0.21759E-02
  rms(prec ) = 0.22623E-02
  weight for this iteration     100.00

 eigenvalues of (default mixing * dielectric matrix)
  average eigenvalue GAMMA=   2.2584
  5.7121  5.0059  4.1807  2.1450  2.0831  1.4161  1.4161  1.1502  1.0457  1.0457
  0.9499  0.9499

 Free energy of the ion-electron system (eV)
  ---------------------------------------------------
  alpha Z        PSCENC =       536.62291721
  Ewald energy   TEWEN  =    -14668.27296387
  -Hartree energ DENC   =     -8527.55700751
  -exchange      EXHF   =         0.00000000
  -V(xc)+E(xc)   XCENC  =      1169.99767926
  PAW double counting   =     61879.61240187   -61559.88650142
  entropy T*S    EENTRO =        -0.02203058
  eigenvalues    EBANDS =     -2184.37455159
  atomic energy  EATOM  =     22794.48802020
  Solvation  Ediel_sol  =         0.00000000
  ---------------------------------------------------
  free energy    TOTEN  =      -559.39203644 eV

  energy without entropy =     -559.37000585  energy(sigma->0) =     -559.38102114


--------------------------------------------------------------------------------------------------------




--------------------------------------- Iteration      1(  18)  ---------------------------------------


    POTLOK:  cpu time      0.0111: real time      0.0114
    SETDIJ:  cpu time      0.0014: real time      0.0014
     EDDAV:  cpu time      7.1231: real time      7.1559
       DOS:  cpu time      0.0016: real time      0.0016
    CHARGE:  cpu time      0.0466: real time      0.0469
    MIXING:  cpu time      0.0010: real time      0.0010
    --------------------------------------------
      LOOP:  cpu time      7.1848: real time      7.2182

 eigenvalue-minimisations  :  6144
 total energy-change (2. order) :-0.4087946E-05  (-0.7607172E-06)
 number of electron     377.0000053 magnetization 
 augmentation part       27.6352524 magnetization 

 Broyden mixing:
  rms(total) = 0.48890E-03    rms(broyden)= 0.48880E-03
  rms(prec ) = 0.56466E-03
  weight for this iteration     100.00

 eigenvalues of (default mixing * dielectric matrix)
  average eigenvalue GAMMA=   2.1967
  5.7474  5.0448  4.1233  2.1958  2.0008  1.4076  1.4076  1.5810  1.0986  1.0986
  0.9781  0.9781  0.8957

 Free energy of the ion-electron system (eV)
  ---------------------------------------------------
  alpha Z        PSCENC =       536.62291721
  Ewald energy   TEWEN  =    -14668.27296387
  -Hartree energ DENC   =     -8527.64815169
  -exchange      EXHF   =         0.00000000
  -V(xc)+E(xc)   XCENC  =      1170.00374062
  PAW double counting   =     61900.17337033   -61580.44668808
  entropy T*S    EENTRO =        -0.02202838
  eigenvalues    EBANDS =     -2184.29025687
  atomic energy  EATOM  =     22794.48802020
  Solvation  Ediel_sol  =         0.00000000
  ---------------------------------------------------
  free energy    TOTEN  =      -559.39204052 eV

  energy without entropy =     -559.37001215  energy(sigma->0) =     -559.38102633


--------------------------------------------------------------------------------------------------------




--------------------------------------- Iteration      1(  19)  ---------------------------------------


    POTLOK:  cpu time      0.0146: real time      0.0151
    SETDIJ:  cpu time      0.0015: real time      0.0015
     EDDAV:  cpu time      6.7563: real time      6.7884
       DOS:  cpu time      0.0014: real time      0.0014
    CHARGE:  cpu time      0.0399: real time      0.0401
    MIXING:  cpu time      0.0008: real time      0.0008
    --------------------------------------------
      LOOP:  cpu time      6.8145: real time      6.8473

 eigenvalue-minimisations  :  6144
 total energy-change (2. order) :-0.1033051E-05  (-0.1264630E-06)
 number of electron     377.0000053 magnetization 
 augmentation part       27.6351598 magnetization 

 Broyden mixing:
  rms(total) = 0.30120E-03    rms(broyden)= 0.30115E-03
  rms(prec ) = 0.35034E-03
  weight for this iteration     100.00

 eigenvalues of (default mixing * dielectric matrix)
  average eigenvalue GAMMA=   2.2491
  5.8754  5.0729  4.0664  3.3979  2.0552  2.0552  1.4099  1.4099  1.1160  1.1160
  1.0227  1.0227  0.9335  0.9335

 Free energy of the ion-electron system (eV)
  ---------------------------------------------------
  alpha Z        PSCENC =       536.62291721
  Ewald energy   TEWEN  =    -14668.27296387
  -Hartree energ DENC   =     -8527.66356375
  -exchange      EXHF   =         0.00000000
  -V(xc)+E(xc)   XCENC  =      1170.00454676
  PAW double counting   =     61900.28517092   -61580.55898797
  entropy T*S    EENTRO =        -0.02202760
  eigenvalues    EBANDS =     -2184.27515346
  atomic energy  EATOM  =     22794.48802020
  Solvation  Ediel_sol  =         0.00000000
  ---------------------------------------------------
  free energy    TOTEN  =      -559.39204156 eV

  energy without entropy =     -559.37001396  energy(sigma->0) =     -559.38102776


--------------------------------------------------------------------------------------------------------




--------------------------------------- Iteration      1(  20)  ---------------------------------------


    POTLOK:  cpu time      0.0125: real time      0.0128
    SETDIJ:  cpu time      0.0014: real time      0.0014
     EDDAV:  cpu time      6.4338: real time      6.4582
       DOS:  cpu time      0.0022: real time      0.0022
    CHARGE:  cpu time      0.0468: real time      0.0471
    MIXING:  cpu time      0.0023: real time      0.0023
    --------------------------------------------
      LOOP:  cpu time      6.4991: real time      6.5242

 eigenvalue-minimisations  :  6048
 total energy-change (2. order) :-0.1002383E-05  (-0.5708345E-07)
 number of electron     377.0000053 magnetization 
 augmentation part       27.6352349 magnetization 

 Broyden mixing:
  rms(total) = 0.12696E-03    rms(broyden)= 0.12695E-03
  rms(prec ) = 0.15448E-03
  weight for this iteration     100.00

 eigenvalues of (default mixing * dielectric matrix)
  average eigenvalue GAMMA=   2.2748
  6.0124  5.2766  4.7385  3.7347  2.0524  1.3933  1.3933  1.7726  1.6415  1.1098
  1.1098  0.9651  0.9651  0.9388  1.0187

 Free energy of the ion-electron system (eV)
  ---------------------------------------------------
  alpha Z        PSCENC =       536.62291721
  Ewald energy   TEWEN  =    -14668.27296387
  -Hartree energ DENC   =     -8527.67540802
  -exchange      EXHF   =         0.00000000
  -V(xc)+E(xc)   XCENC  =      1170.00499461
  PAW double counting   =     61901.01492814   -61581.28923594
  entropy T*S    EENTRO =        -0.02202789
  eigenvalues    EBANDS =     -2184.26326699
  atomic energy  EATOM  =     22794.48802020
[...]
   -.359E+00 0.503E+01 0.548E+01   0.137E+00 -.485E+01 -.517E+01   0.247E-01 -.151E+00 -.905E-01   0.250E-04 0.167E-04 -.243E-04
   -.690E+01 -.461E+01 -.339E+01   0.687E+01 0.472E+01 0.334E+01   -.114E+00 -.200E+00 -.739E-02   0.328E-04 0.722E-04 -.618E-05
   -.570E+00 0.888E+00 0.262E+01   0.467E+00 -.663E+00 -.229E+01   -.112E-01 -.209E+00 -.156E+00   -.291E-04 -.499E-04 -.322E-04
   0.125E+02 -.153E+02 -.710E+01   -.121E+02 0.144E+02 0.512E+01   -.264E+00 0.974E-01 0.771E+00   -.304E-04 0.115E-03 0.107E-03
   0.304E+01 -.397E+00 0.308E+01   -.263E+01 0.532E+00 -.277E+01   -.196E+00 -.203E+00 -.818E-01   0.349E-04 0.374E-04 -.740E-04
   0.632E+01 0.498E+01 -.243E+01   -.585E+01 -.471E+01 0.279E+01   -.300E+00 -.236E+00 -.230E+00   -.224E-04 -.223E-04 -.417E-04
   0.272E+01 0.256E+01 0.242E+01   -.197E+01 -.246E+01 -.210E+01   -.378E+00 -.153E+00 -.153E+00   -.181E-05 0.270E-04 0.131E-04
   -.216E+01 -.170E+02 -.167E+02   0.187E+01 0.165E+02 0.163E+02   0.549E-01 0.196E+00 0.711E-01   0.408E-04 0.825E-04 0.669E-04
   -.197E+01 -.142E+02 0.149E+02   0.990E+00 0.120E+02 -.138E+02   0.305E+00 0.995E+00 -.490E+00   0.337E-04 0.267E-04 -.566E-04
   0.151E+02 0.803E+01 -.188E+02   -.130E+02 -.840E+01 0.176E+02   -.810E+00 0.312E+00 0.490E+00   -.119E-03 -.568E-05 0.877E-04
   0.959E+01 0.671E+01 0.162E+02   -.932E+01 -.524E+01 -.147E+02   -.204E+00 -.431E+00 -.588E+00   -.300E-04 -.595E-04 -.749E-04
   -.927E+01 0.323E+01 -.125E+02   0.792E+01 -.318E+01 0.105E+02   0.584E+00 0.510E-01 0.888E+00   0.253E-04 0.262E-04 -.745E-05
   -.563E+01 0.158E+01 0.994E+01   0.562E+01 -.191E+01 -.951E+01   -.141E+00 0.281E+00 -.129E+00   0.310E-04 -.242E-04 -.325E-04
   0.311E+01 -.271E+01 -.636E+01   -.256E+01 0.256E+01 0.593E+01   -.325E+00 0.223E+00 0.167E+00   -.430E-05 -.564E-04 0.222E-04
   0.268E+01 -.243E+01 0.626E+01   -.224E+01 0.240E+01 -.572E+01   -.224E+00 0.776E-01 -.199E+00   -.564E-04 -.119E-05 -.374E-04
   0.424E+02 0.574E+02 0.324E+02   -.510E+02 -.736E+02 -.428E+02   0.854E+01 0.160E+02 0.103E+02   0.683E-04 -.246E-04 -.269E-04
   0.426E+02 0.575E+02 0.322E+02   -.510E+02 -.736E+02 -.428E+02   0.828E+01 0.159E+02 0.104E+02   -.526E-04 0.933E-04 -.321E-05
   0.424E+02 0.575E+02 0.323E+02   -.510E+02 -.736E+02 -.428E+02   0.850E+01 0.159E+02 0.104E+02   0.517E-05 -.610E-04 -.560E-04
   0.422E+02 0.574E+02 0.322E+02   -.510E+02 -.736E+02 -.428E+02   0.883E+01 0.161E+02 0.105E+02   0.100E-03 0.994E-04 0.257E-04
   0.426E+02 0.574E+02 0.322E+02   -.510E+02 -.736E+02 -.428E+02   0.823E+01 0.161E+02 0.104E+02   0.186E-04 0.186E-04 -.422E-04
   0.427E+02 0.573E+02 0.322E+02   -.510E+02 -.736E+02 -.428E+02   0.821E+01 0.161E+02 0.104E+02   0.323E-04 -.446E-04 0.130E-03
   0.426E+02 0.573E+02 0.323E+02   -.510E+02 -.736E+02 -.428E+02   0.825E+01 0.162E+02 0.103E+02   -.243E-05 -.143E-04 -.754E-04
   -.599E+02 0.110E+02 0.111E+02   0.787E+02 -.104E+02 -.221E+02   -.186E+02 -.494E+00 0.111E+02   -.359E-04 0.197E-03 0.297E-03
   -.227E+02 0.211E+02 0.814E+02   0.426E+02 -.207E+02 -.909E+02   -.201E+02 -.960E+00 0.845E+01   -.150E-03 -.263E-03 -.251E-04
   -.717E+02 0.177E+01 0.221E+02   0.900E+02 -.108E+01 -.329E+02   -.180E+02 -.640E+00 0.108E+02   0.642E-04 0.337E-04 0.486E-05
   -.732E+02 -.832E+01 0.453E+02   0.913E+02 0.852E+01 -.556E+02   -.177E+02 0.299E-01 0.102E+02   0.561E-04 0.263E-03 0.353E-04
   -.704E+02 0.106E+02 0.244E+02   0.889E+02 -.965E+01 -.352E+02   -.183E+02 -.100E+01 0.108E+02   0.638E-04 -.571E-04 0.664E-04
   -.701E+02 0.135E+02 0.414E+02   0.885E+02 -.124E+02 -.514E+02   -.183E+02 -.140E+01 0.961E+01   -.177E-03 -.116E-03 -.188E-03
   -.799E+02 0.968E+01 0.189E+02   0.980E+02 -.901E+01 -.300E+02   -.177E+02 -.523E+00 0.112E+02   0.555E-04 0.201E-03 0.141E-03
   -.971E+02 0.128E+02 0.522E+02   0.115E+03 -.120E+02 -.622E+02   -.173E+02 -.750E+00 0.976E+01   0.123E-03 -.941E-04 -.164E-03
   0.399E+02 -.174E+02 -.167E+02   -.500E+02 0.339E+02 0.537E+01   0.947E+01 -.169E+02 0.120E+02   -.159E-03 -.673E-04 0.185E-03
   0.310E+02 -.543E+02 0.536E+02   -.409E+02 0.703E+02 -.635E+02   0.998E+01 -.159E+02 0.944E+01   0.198E-03 -.597E-05 -.259E-03
   0.113E+02 -.857E+02 0.123E+02   -.215E+02 0.101E+03 -.233E+02   0.102E+02 -.148E+02 0.109E+02   0.538E-04 0.146E-03 0.279E-03
   0.223E+02 -.724E+02 0.454E+02   -.325E+02 0.877E+02 -.556E+02   0.104E+02 -.150E+02 0.983E+01   0.153E-03 -.497E-04 -.215E-03
   0.415E+02 -.754E+02 0.188E+02   -.510E+02 0.907E+02 -.300E+02   0.914E+01 -.151E+02 0.114E+02   -.244E-03 -.875E-04 0.316E-03
   0.339E+02 -.694E+02 0.426E+02   -.433E+02 0.848E+02 -.526E+02   0.929E+01 -.151E+02 0.976E+01   -.600E-04 0.804E-04 -.160E-03
   0.242E+02 -.623E+02 0.233E+02   -.343E+02 0.779E+02 -.341E+02   0.102E+02 -.154E+02 0.108E+02   0.731E-04 0.231E-04 -.387E-04
   0.268E+02 -.640E+02 0.400E+02   -.365E+02 0.795E+02 -.504E+02   0.963E+01 -.153E+02 0.101E+02   -.218E-04 -.257E-04 -.987E-05
   0.423E+02 -.726E+02 -.713E+02   -.510E+02 0.883E+02 0.809E+02   0.854E+01 -.154E+02 -.912E+01   0.165E-04 0.151E-03 0.347E-03
   0.433E+02 -.893E+02 0.325E+02   -.510E+02 0.105E+03 -.196E+02   0.778E+01 -.147E+02 -.137E+02   0.274E-03 0.103E-03 -.294E-03
   0.478E+02 -.519E+02 -.441E+02   -.558E+02 0.683E+02 0.542E+02   0.760E+01 -.165E+02 -.975E+01   -.147E-03 -.216E-03 0.202E-03
   0.497E+02 -.490E+02 -.192E+02   -.581E+02 0.657E+02 0.301E+02   0.814E+01 -.167E+02 -.108E+02   -.162E-03 -.156E-03 0.453E-04
   0.373E+02 -.518E+02 -.443E+02   -.463E+02 0.683E+02 0.542E+02   0.877E+01 -.166E+02 -.945E+01   0.229E-04 -.595E-04 0.159E-03
   0.352E+02 -.493E+02 -.190E+02   -.440E+02 0.657E+02 0.301E+02   0.882E+01 -.161E+02 -.112E+02   0.236E-03 0.157E-03 -.252E-03
   0.426E+02 -.591E+02 -.415E+02   -.510E+02 0.753E+02 0.519E+02   0.830E+01 -.160E+02 -.101E+02   -.908E-05 -.635E-04 0.957E-04
   0.427E+02 -.597E+02 -.223E+02   -.510E+02 0.759E+02 0.331E+02   0.812E+01 -.160E+02 -.108E+02   -.745E-04 0.339E-04 -.110E-03
   0.329E+02 0.329E+02 -.494E+02   -.429E+02 -.491E+02 0.593E+02   0.100E+02 0.162E+02 -.943E+01   0.211E-03 0.286E-03 0.245E-03
   0.292E+02 0.586E+02 -.228E+02   -.391E+02 -.745E+02 0.337E+02   0.973E+01 0.159E+02 -.111E+02   -.733E-04 0.386E-04 -.192E-03
   0.592E+02 0.776E+02 -.492E+02   -.682E+02 -.930E+02 0.593E+02   0.850E+01 0.151E+02 -.996E+01   -.329E-03 -.228E-04 -.239E-04
   0.346E+02 0.683E+02 -.225E+02   -.443E+02 -.835E+02 0.337E+02   0.933E+01 0.149E+02 -.114E+02   -.240E-03 -.115E-04 -.202E-03
   -.242E+02 0.968E+02 -.686E+02   0.128E+02 -.110E+03 0.784E+02   0.124E+02 0.129E+02 -.874E+01   0.400E-03 0.642E-04 0.234E-03
   0.215E+02 0.694E+02 -.195E+02   -.315E+02 -.849E+02 0.303E+02   0.997E+01 0.153E+02 -.108E+02   -.337E-04 -.309E-05 -.918E-04
   0.266E+02 0.669E+02 -.389E+02   -.363E+02 -.822E+02 0.492E+02   0.959E+01 0.150E+02 -.101E+02   0.203E-04 -.434E-04 0.819E-04
   0.278E+02 0.659E+02 -.266E+02   -.376E+02 -.814E+02 0.373E+02   0.965E+01 0.153E+02 -.107E+02   -.126E-03 -.216E-04 -.354E-04
   -.217E+02 -.542E+02 -.165E+02   0.411E+02 0.526E+02 0.279E+02   -.198E+02 0.250E+01 -.112E+02   -.130E-03 0.712E-04 0.689E-04
   -.668E+02 -.119E+02 -.368E+02   0.853E+02 0.111E+02 0.473E+02   -.183E+02 0.890E+00 -.103E+02   0.144E-04 -.428E-04 -.592E-04
   -.661E+02 -.535E+01 -.292E+02   0.845E+02 0.464E+01 0.398E+02   -.182E+02 0.698E+00 -.105E+02   -.979E-04 -.742E-04 -.418E-04
   -.698E+02 -.753E+01 -.347E+02   0.883E+02 0.680E+01 0.452E+02   -.183E+02 0.723E+00 -.103E+02   0.864E-04 -.115E-04 0.372E-04
   -.859E+02 0.585E+02 -.179E+02   0.104E+03 -.570E+02 0.279E+02   -.177E+02 -.261E+01 -.103E+02   -.409E-04 -.977E-04 -.251E-03
   -.722E+02 -.269E+01 -.370E+02   0.905E+02 0.209E+01 0.473E+02   -.180E+02 0.572E+00 -.102E+02   0.475E-04 0.332E-04 0.114E-03
   -.971E+02 -.233E+02 -.260E+02   0.115E+03 0.222E+02 0.367E+02   -.174E+02 0.119E+01 -.105E+02   0.131E-03 0.908E-04 -.103E-03
   -.747E+02 -.103E+02 -.356E+02   0.930E+02 0.952E+01 0.461E+02   -.180E+02 0.827E+00 -.104E+02   -.296E-04 -.101E-03 0.203E-04
 -----------------------------------------------------------------------------------------------
   0.108E+02 0.234E+02 0.135E+02   0.199E-12 0.197E-12 -.355E-13   -.108E+02 -.234E+02 -.135E+02   0.202E-03 0.494E-03 0.199E-03
 
 
 POSITION                                       TOTAL-FORCE (eV/Angst)
 -----------------------------------------------------------------------------------
      2.61028     -0.00000      0.00000         0.088016     -0.091947     -0.325065
      2.61028     -0.00000      5.43130         0.376598      0.007980      0.808048
      5.06777      4.25649      0.00000         0.010253      0.133792     -0.228484
      5.06777      4.25649      5.43130         0.024598      0.010378     -0.084914
      5.06777     -4.25649      0.00000         0.090757      0.172946     -0.262905
      5.06777     -4.25649      5.43130        -0.545047      0.658666      0.917150
      7.52525      0.00000      0.00000        -0.072648     -0.150198     -0.129436
      7.52525      0.00000      5.43130        -0.169567     -0.065434      0.115751
      1.15234      1.99591      3.62087        -0.287683      0.746588     -0.077238
      1.15234      1.99591      9.05217        -0.197327      0.026088      0.221310
      3.60982      6.25240      3.62087        -0.138879     -0.087890     -0.055815
      3.60982      6.25240      9.05217        -0.115135      0.015812      0.170374
      3.60982     -2.26057      3.62087         0.166754     -0.755591     -1.201734
      3.60982     -2.26057      9.05217         0.213024     -0.068359      0.234618
      6.06731      1.99591      3.62087         0.176391      0.033397      0.131974
      6.06731      1.99591      9.05217         0.367861     -0.051875      0.168844
      1.15234     -1.99591      1.81043        -0.231884     -0.314408     -0.418269
      1.15234     -1.99591      7.24173        -0.673219     -1.111676      0.601715
      3.60982      2.26057      1.81043         1.249302     -0.053455     -0.779844
      3.60982      2.26057      7.24173         0.064513      1.037548      0.974704
      3.60982     -6.25240      1.81043        -0.763530      0.097739     -1.041933
      3.60982     -6.25240      7.24173        -0.155266     -0.044305      0.304152
      6.06731     -1.99591      1.81043         0.228803      0.071434     -0.269317
      6.06731     -1.99591      7.24173         0.211517      0.047221      0.336310
      1.67752      0.61366      9.69428        -0.096902     -0.215026     -0.142719
      4.13500      4.87015      4.26298        -0.144997     -0.235414     -0.117738
      4.13500      4.87015      9.69428        -0.097051     -0.245802     -0.113330
      4.13500     -3.64282      4.26298        -0.062788     -0.166576     -0.056365
      4.13500     -3.64282      9.69428        -0.177029     -0.200448     -0.135848
      6.59249      0.61366      4.26298        -0.177963     -0.175386     -0.171429
      6.59249      0.61366      9.69428        -0.183510     -0.131963     -0.163202
      3.54476      1.14594      0.64211         0.139817      0.123263      0.128755
      3.54476      1.14594      6.07341        -0.180009     -0.585573     -1.110901
      6.00224      5.40243      0.64211         0.290636      0.050616     -0.008112
      6.00224      5.40243      6.07341         0.360181      0.223344     -0.130628
      6.00224     -3.11054      0.64211         0.202692     -0.063838     -0.042270
      6.00224     -3.11054      6.07341         0.141598     -0.276824     -0.440099
      8.45972      1.14594      0.64211         0.391590      0.146812      0.124697
      8.45972      1.14594      6.07341         0.398484     -0.031938     -0.274795
      2.15017      2.49688      2.45255        -0.667617     -0.346025      0.688789
      2.15017      2.49688      7.88385         0.088242      0.111245     -0.443289
      4.60765      6.75336      2.45255         0.026226      0.345215     -0.054837
      4.60765      6.75336      7.88385         0.161236      0.317825     -0.363614
      4.60765     -1.75961      2.45255        -0.393126      0.244011      0.209475
      4.60765     -1.75961      7.88385        -0.181679      0.262749     -0.283373
      7.06514      2.49688      2.45255         0.079557      0.209902     -0.074827
      7.06514      2.49688      7.88385        -0.114307      0.223481     -0.211355
      1.67752     -0.61366      1.16832        -0.162430      0.308931      0.441560
      1.67752     -0.61366      6.59962         0.067969      1.219448     -0.881263
      4.13500      3.64282      1.16832        -0.394505     -0.007423      0.405651
      4.13500      3.64282      6.59962        -0.247037     -0.029905      0.103086
      4.13500     -4.87015      1.16832        -0.138746     -0.000422      0.470556
      4.13500     -4.87015      6.59962         0.051401      0.257520     -0.150748
      6.59249     -0.61366      1.16832        -0.176559      0.184300      0.224850
      6.59249     -0.61366      6.59962        -0.182406      0.230053      0.040198
      2.15017     -2.49688      2.97876         0.065821     -0.029014      0.467446
      2.15017     -2.49688      8.41006        -0.219405      0.000012     -0.152174
      4.60765      1.75961      2.97876        -0.457292     -0.259834      0.159422
      4.60765      1.75961      8.41006        -0.419018     -0.328847     -0.198857
      4.60765     -6.75336      2.97876         0.924556     -0.740485      1.125574
      4.60765     -6.75336      8.41006        -0.051806     -0.213086      0.043190
      7.06514     -2.49688      2.97876        -0.109866     -0.275690      0.215656
      7.06514     -2.49688      8.41006        -0.154243     -0.222465      0.031910
      3.54476     -1.14594      4.78919        -0.425835      0.992019      0.202262
      3.54476     -1.14594     10.22049         0.175020      0.071075      0.162535
      6.00224      3.11054      4.78919         0.212408     -0.010205      0.117451
      6.00224      3.11054     10.22049         0.175117     -0.003369      0.132783
      6.00224     -5.40243      4.78919         0.808564     -1.095828     -0.321740
      6.00224     -5.40243     10.22049         0.271962     -0.027175      0.173559
      8.45972     -1.14594      4.78919         0.399351      0.099009      0.126792
      8.45972     -1.14594     10.22049         0.265495      0.033282      0.137315
 -----------------------------------------------------------------------------------
    total drift:                                0.012040      0.000441     -0.000913


--------------------------------------------------------------------------------------------------------



  FREE ENERGIE OF THE ION-ELECTRON SYSTEM (eV)
  ---------------------------------------------------
  free  energy   TOTEN  =      -559.39204277 eV

  energy  without entropy=     -559.37001499  energy(sigma->0) =     -559.38102888
 


--------------------------------------------------------------------------------------------------------


    POTLOK:  cpu time      0.0157: real time      0.0157


--------------------------------------------------------------------------------------------------------


 stress matrix after NEB project (eV)
     22.16111      1.77753     -2.37883
      1.77753     20.76420      3.22179
     -2.37883      3.22179     20.20132
  FORCES: max atom, RMS     1.634025    0.662642
  FORCE total and by dimension    5.583521    1.249302
  Stress total and by dimension   36.996718   22.161115
 writing wavefunctions
     LOOP+:  cpu time    147.8347: real time    148.6029
    4ORBIT:  cpu time      0.0000: real time      0.0000



 total charge

# of ion       s       p       d       tot
------------------------------------------
    1        0.646   1.005   0.000   1.650
    2        0.667   0.919   0.000   1.586
    3        0.645   1.004   0.000   1.649
    4        0.645   1.004   0.000   1.650
    5        0.645   1.004   0.000   1.650
    6        0.645   1.003   0.000   1.648
    7        0.645   1.004   0.000   1.649
    8        0.646   1.005   0.000   1.651
    9        0.664   0.915   0.000   1.579
   10        0.646   1.004   0.000   1.650
   11        0.646   1.005   0.000   1.651
   12        0.645   1.004   0.000   1.649
   13        0.646   1.005   0.000   1.651
   14        0.646   1.004   0.000   1.650
   15        0.645   1.004   0.000   1.650
   16        0.645   1.004   0.000   1.649
   17        0.646   1.005   0.000   1.651
   18        0.646   1.004   0.000   1.649
   19        0.646   1.005   0.000   1.651
   20        0.646   1.004   0.000   1.650
   21        0.645   1.002   0.000   1.647
   22        0.646   1.004   0.000   1.650
   23        0.645   1.004   0.000   1.650
   24        0.645   1.004   0.000   1.649
   25        1.548   3.701   0.000   5.250
   26        1.548   3.702   0.000   5.250
   27        1.548   3.702   0.000   5.250
   28        1.549   3.696   0.000   5.245
   29        1.548   3.701   0.000   5.249
   30        1.548   3.702   0.000   5.250
   31        1.548   3.701   0.000   5.249
   32        1.549   3.699   0.000   5.248
   33        1.556   3.669   0.000   5.225
   34        1.548   3.701   0.000   5.249
   35        1.547   3.703   0.000   5.250
   36        1.548   3.701   0.000   5.249
   37        1.548   3.701   0.000   5.249
   38        1.548   3.701   0.000   5.249
   39        1.548   3.704   0.000   5.251
   40        1.558   3.665   0.000   5.223
   41        1.548   3.701   0.000   5.249
   42        1.548   3.701   0.000   5.250
   43        1.548   3.702   0.000   5.250
   44        1.548   3.701   0.000   5.249
   45        1.548   3.703   0.000   5.251
   46        1.549   3.698   0.000   5.247
   47        1.548   3.702   0.000   5.249
   48        1.548   3.702   0.000   5.250
   49        1.554   3.675   0.000   5.228
   50        1.548   3.700   0.000   5.248
   51        1.549   3.700   0.000   5.248
   52        1.549   3.699   0.000   5.248
   53        1.549   3.700   0.000   5.248
   54        1.548   3.702   0.000   5.250
   55        1.548   3.702   0.000   5.250
   56        1.549   3.700   0.000   5.249
   57        1.550   3.696   0.000   5.245
   58        1.547   3.703   0.000   5.251
   59        1.549   3.695   0.000   5.244
   60        1.550   3.683   0.000   5.233
   61        1.548   3.701   0.000   5.249
   62        1.548   3.703   0.000   5.251
   63        1.548   3.702   0.000   5.249
   64        1.557   3.666   0.000   5.223
   65        1.548   3.701   0.000   5.249
   66        1.548   3.702   0.000   5.250
   67        1.549   3.699   0.000   5.248
   68        1.552   3.678   0.000   5.230
   69        1.548   3.702   0.000   5.250
   70        1.548   3.703   0.000   5.251
   71        1.548   3.702   0.000   5.250
--------------------------------------------------
tot         88.333 197.701   0.000 286.034
 

 total amount of memory used by VASP MPI-rank0   109999. kBytes
=======================================================================

   base      :      30000. kBytes
   nonl-proj :      57853. kBytes
   fftplans  :       1721. kBytes
   grid      :       9701. kBytes
   one-center:        218. kBytes
   wavefun   :      10506. kBytes
 
  
  
 General timing and accounting informations for this job:
 ========================================================
  
                  Total CPU time used (sec):      159.377
                            User time (sec):      155.744
                          System time (sec):        3.633
                         Elapsed time (sec):      161.184
  
                   Maximum memory used (kb):      383576.
                   Average memory used (kb):          N/A
  
                          Minor page faults:       164780
                          Major page faults:           54
                 Voluntary context switches:         4030
