 vasp.6.3.0 20Jan22 (build Mar 07 2022 09:35:52) complex                        
  
 executed on             LinuxIFC date 2025.10.02  15:45:36
 running on   64 total cores
 distrk:  each k-point on   64 cores,    1 groups
 distr:  one band on NCORE=   1 cores,   64 groups


--------------------------------------------------------------------------------------------------------


 INCAR:
   ALGO = Normal
   AMIX = 0.2
   EDIFF = 1e-05
   EDIFFG = -0.05
   ENCUT = 550
   IBRION = 2
   ISIF = 2
   ISMEAR = 0
   ISPIN = 1
   ISYM = 2
   LCHARG = .FALSE.
   LORBIT = 11
   LREAL = .FALSE.
   LVTOT = True
   LWAVE = .FALSE.
   NELECT = 384.0
   NELM = 200
   NSW = 100
   SIGMA = 0.05
   SYSTEM = SiO2

 POTCAR:    PAW_PBE Si 05Jan2001                  
 POTCAR:    PAW_PBE P 06Sep2000                   
 POTCAR:    PAW_PBE O 08Apr2002                   
 WARNING: For LVTOT=.TRUE., VASP.5.x writes the TOTAL local potential to the
     file LOCPOT. If you want only the Hartree contributions, use LVHAR=.TRUE.
     instead. 

 -----------------------------------------------------------------------------
|                                                                             |
|           W    W    AA    RRRRR   N    N  II  N    N   GGGG   !!!           |
|           W    W   A  A   R    R  NN   N  II  NN   N  G    G  !!!           |
|           W    W  A    A  R    R  N N  N  II  N N  N  G       !!!           |
|           W WW W  AAAAAA  RRRRR   N  N N  II  N  N N  G  GGG   !            |
|           WW  WW  A    A  R   R   N   NN  II  N   NN  G    G                |
|           W    W  A    A  R    R  N    N  II  N    N   GGGG   !!!           |
|                                                                             |
|     For optimal performance we recommend to set                             |
|       NCORE = 2 up to number-of-cores-per-socket                            |
|     NCORE specifies how many cores store one orbital (NPAR=cpu/NCORE).      |
|     This setting can greatly improve the performance of VASP for DFT.       |
|     The default, NCORE=1 might be grossly inefficient on modern             |
|     multi-core architectures or massively parallel machines. Do your        |
|     own testing! More info at https://www.vasp.at/wiki/index.php/NCORE      |
|     Unfortunately you need to use the default for GW and RPA                |
|     calculations (for HF NCORE is supported but not extensively tested      |
|     yet).                                                                   |
|                                                                             |
 -----------------------------------------------------------------------------

 POTCAR:    PAW_PBE Si 05Jan2001                  
   VRHFIN =Si: s2p2                                                                                 
   LEXCH  = PE                                                                                      
   EATOM  =   103.0669 eV,    7.5752 Ry                                                             
                                                                                                    
   TITEL  = PAW_PBE Si 05Jan2001                                                                    
   LULTRA =        F    use ultrasoft PP ?                                                          
   IUNSCR =        1    unscreen: 0-lin 1-nonlin 2-no                                               
   RPACOR =    1.500    partial core radius                                                         
   POMASS =   28.085; ZVAL   =    4.000    mass and valenz                                          
   RCORE  =    1.900    outmost cutoff radius                                                       
   RWIGS  =    2.480; RWIGS  =    1.312    wigner-seitz radius (au A)                               
   ENMAX  =  245.345; ENMIN  =  184.009 eV                                                          
   ICORE  =        2    local potential                                                             
   LCOR   =        T    correct aug charges                                                         
   LPAW   =        T    paw PP                                                                      
   EAUG   =  322.069                                                                                
   DEXC   =    0.000                                                                                
   RMAX   =    1.950    core radius for proj-oper                                                   
   RAUG   =    1.300    factor for augmentation sphere                                              
   RDEP   =    1.993    radius for radial grids                                                     
   RDEPT  =    1.837    core radius for aug-charge                                                  
                                                                                                    
   Atomic configuration                                                                             
    6 entries                                                                                       
     n  l   j            E        occ.                                                              
     1  0  0.50     -1785.8828   2.0000                                                             
     2  0  0.50      -139.4969   2.0000                                                             
     2  1  1.50       -95.5546   6.0000                                                             
     3  0  0.50       -10.8127   2.0000                                                             
     3  1  0.50        -4.0811   2.0000                                                             
     3  2  1.50        -4.0817   0.0000                                                             
   Description                                                                                      
     l       E           TYP  RCUT    TYP  RCUT                                                     
     0    -10.8127223     23  1.900                                                                 
     0     -7.6451159     23  1.900                                                                 
     1     -4.0811372     23  1.900                                                                 
     1      2.4879257     23  1.900                                                                 
     2     -4.0817478      7  1.900                                                                 
  local pseudopotential read in
  partial core-charges read in
  partial kinetic energy density read in
  atomic valenz-charges read in
  non local Contribution for L=           0  read in
    real space projection operators read in
  non local Contribution for L=           0  read in
    real space projection operators read in
  non local Contribution for L=           1  read in
    real space projection operators read in
  non local Contribution for L=           1  read in
    real space projection operators read in
    PAW grid and wavefunctions read in
 
   number of l-projection  operators is LMAX  =           4
   number of lm-projection operators is LMMAX =           8
 
 POTCAR:    PAW_PBE P 06Sep2000                   
   VRHFIN =P : s2p3                                                                                 
   LEXCH  = PE                                                                                      
   EATOM  =   176.0430 eV,   12.9388 Ry                                                             
                                                                                                    
   TITEL  = PAW_PBE P 06Sep2000                                                                     
   LULTRA =        F    use ultrasoft PP ?                                                          
   IUNSCR =        1    unscreen: 0-lin 1-nonlin 2-no                                               
   RPACOR =    1.500    partial core radius                                                         
   POMASS =   30.974; ZVAL   =    5.000    mass and valenz                                          
   RCORE  =    1.900    outmost cutoff radius                                                       
   RWIGS  =    2.330; RWIGS  =    1.233    wigner-seitz radius (au A)                               
   ENMAX  =  255.040; ENMIN  =  191.280 eV                                                          
   ICORE  =        2    local potential                                                             
   LCOR   =        T    correct aug charges                                                         
   LPAW   =        T    paw PP                                                                      
   EAUG   =  342.924                                                                                
   DEXC   =    0.000                                                                                
   RMAX   =    1.935    core radius for proj-oper                                                   
   RAUG   =    1.300    factor for augmentation sphere                                              
   RDEP   =    1.931    radius for radial grids                                                     
   RDEPT  =    1.794    core radius for aug-charge                                                  
                                                                                                    
   Atomic configuration                                                                             
    6 entries                                                                                       
     n  l   j            E        occ.                                                              
     1  0  0.50     -2084.0982   2.0000                                                             
     2  0  0.50      -173.9859   2.0000                                                             
     2  1  1.50      -124.4865   6.0000                                                             
     3  0  0.50       -13.9692   2.0000                                                             
     3  1  0.50        -5.5067   3.0000                                                             
     3  2  1.50        -5.4423   0.0000                                                             
   Description                                                                                      
     l       E           TYP  RCUT    TYP  RCUT                                                     
     0    -13.9691527     23  1.900                                                                 
     0    -11.7794650     23  1.900                                                                 
     1     -5.5066937     23  1.900                                                                 
     1     -0.2556953     23  1.900                                                                 
     2     -5.4423304     23  1.900                                                                 
  local pseudopotential read in
  partial core-charges read in
  partial kinetic energy density read in
  atomic valenz-charges read in
  non local Contribution for L=           0  read in
    real space projection operators read in
  non local Contribution for L=           0  read in
    real space projection operators read in
  non local Contribution for L=           1  read in
    real space projection operators read in
  non local Contribution for L=           1  read in
    real space projection operators read in
    PAW grid and wavefunctions read in
 
   number of l-projection  operators is LMAX  =           4
   number of lm-projection operators is LMMAX =           8
 
 POTCAR:    PAW_PBE O 08Apr2002                   
   VRHFIN =O: s2p4                                                                                  
   LEXCH  = PE                                                                                      
   EATOM  =   432.3788 eV,   31.7789 Ry                                                             
                                                                                                    
   TITEL  = PAW_PBE O 08Apr2002                                                                     
   LULTRA =        F    use ultrasoft PP ?                                                          
   IUNSCR =        1    unscreen: 0-lin 1-nonlin 2-no                                               
   RPACOR =    1.200    partial core radius                                                         
   POMASS =   16.000; ZVAL   =    6.000    mass and valenz                                          
   RCORE  =    1.520    outmost cutoff radius                                                       
   RWIGS  =    1.550; RWIGS  =    0.820    wigner-seitz radius (au A)                               
   ENMAX  =  400.000; ENMIN  =  300.000 eV                                                          
   ICORE  =        2    local potential                                                             
   LCOR   =        T    correct aug charges                                                         
   LPAW   =        T    paw PP                                                                      
   EAUG   =  605.392                                                                                
   DEXC   =    0.000                                                                                
   RMAX   =    1.553    core radius for proj-oper                                                   
   RAUG   =    1.300    factor for augmentation sphere                                              
   RDEP   =    1.550    radius for radial grids                                                     
   RDEPT  =    1.329    core radius for aug-charge                                                  
                                                                                                    
   Atomic configuration                                                                             
    4 entries                                                                                       
     n  l   j            E        occ.                                                              
     1  0  0.50      -514.6923   2.0000                                                             
     2  0  0.50       -23.9615   2.0000                                                             
     2  1  0.50        -9.0305   4.0000                                                             
     3  2  1.50        -9.5241   0.0000                                                             
   Description                                                                                      
     l       E           TYP  RCUT    TYP  RCUT                                                     
     0    -23.9615318     23  1.200                                                                 
     0     -9.5240782     23  1.200                                                                 
     1     -9.0304911     23  1.520                                                                 
     1      8.1634956     23  1.520                                                                 
     2     -9.5240782      7  1.500                                                                 
  local pseudopotential read in
  partial core-charges read in
  partial kinetic energy density read in
  kinetic energy density of atom read in
  atomic valenz-charges read in
  non local Contribution for L=           0  read in
    real space projection operators read in
  non local Contribution for L=           0  read in
    real space projection operators read in
  non local Contribution for L=           1  read in
    real space projection operators read in
  non local Contribution for L=           1  read in
    real space projection operators read in
    PAW grid and wavefunctions read in
 
   number of l-projection  operators is LMAX  =           4
   number of lm-projection operators is LMMAX =           8
 
 -----------------------------------------------------------------------------
|                                                                             |
|               ----> ADVICE to this user running VASP <----                  |
|                                                                             |
|     You have a (more or less) 'large supercell' and for larger cells it     |
|     might be more efficient to use real-space projection operators.         |
|     Therefore, try LREAL= Auto in the INCAR file.                           |
|     Mind: For very accurate calculation, you might also keep the            |
|     reciprocal projection scheme (i.e. LREAL=.FALSE.).                      |
|                                                                             |
 -----------------------------------------------------------------------------

  PAW_PBE Si 05Jan2001                  :
 energy of atom  1       EATOM= -103.0669
 kinetic energy error for atom=    0.0004 (will be added to EATOM!!)
  PAW_PBE P 06Sep2000                   :
 energy of atom  2       EATOM= -176.0430
 kinetic energy error for atom=    0.0008 (will be added to EATOM!!)
  PAW_PBE O 08Apr2002                   :
 energy of atom  3       EATOM= -432.3788
 kinetic energy error for atom=    0.0194 (will be added to EATOM!!)
 
 
 POSCAR: Si23 P1 O48
  positions in direct lattice
  velocities in cartesian coordinates
 exchange correlation table for  LEXCH =        8
   RHO(1)=    0.500       N(1)  =     2000
   RHO(2)=  100.500       N(2)  =     4000

 VTST: version 4.2, (08/11/21)

 CHAIN: initializing optimizer
 
 OPT: Using VASP Conjugate-Gradient optimizer
 CHAIN: Read ICHAIN            0
 
 POSCAR: Si23 P1 O48
  positions in direct lattice
  velocities in cartesian coordinates
 


--------------------------------------------------------------------------------------------------------


 ion  position               nearest neighbor table
   1  0.266  0.266  0.500-  65 1.61  34 1.61  50 1.62  25 1.62  12 3.06  19 3.06  17 3.06   8 3.06

   2  0.266  0.766  0.000-  68 1.61  35 1.61  51 1.62  28 1.62  15 3.06  16 3.06  11 3.06  18 3.06

   3  0.266  0.766  0.500-  67 1.61  36 1.61  52 1.62  27 1.62  14 3.06  17 3.06  10 3.06  19 3.06

   4  0.766  0.266  0.000-  70 1.61  37 1.61  53 1.62  30 1.62   9 3.06  22 3.06  20 3.06  13 3.06

   5  0.766  0.266  0.500-  69 1.61  38 1.61  54 1.62  29 1.62   8 3.06  23 3.06  21 3.06  12 3.06

   6  0.766  0.766  0.000-  72 1.61  39 1.61  55 1.62  32 1.62  11 3.06  20 3.06  15 3.06  22 3.06

   7  0.766  0.766  0.500-  71 1.61  40 1.61  56 1.62  31 1.62  10 3.06  21 3.06  14 3.06  23 3.06

   8  0.000  0.234  0.333-  25 1.61  61 1.61  41 1.62  69 1.62   5 3.06   1 3.06  18 3.06  20 3.06

   9  0.000  0.234  0.833-  26 1.61  62 1.61  42 1.62  70 1.62   4 3.06  19 3.06  21 3.06
  10  0.000  0.734  0.333-  27 1.61  63 1.61  43 1.62  71 1.62   7 3.06   3 3.06  16 3.06  22 3.06

  11  0.000  0.734  0.833-  28 1.61  64 1.61  44 1.62  72 1.62   6 3.06   2 3.06  17 3.06  23 3.06

  12  0.500  0.234  0.333-  29 1.61  57 1.61  45 1.62  65 1.62   1 3.06   5 3.06  16 3.06  22 3.06

  13  0.500  0.234  0.833-  30 1.61  58 1.61  46 1.62  66 1.62   4 3.06  17 3.06  23 3.06
  14  0.500  0.734  0.333-  31 1.61  59 1.61  47 1.62  67 1.62   3 3.06   7 3.06  18 3.06  20 3.06

  15  0.500  0.734  0.833-  32 1.61  60 1.61  48 1.62  68 1.62   2 3.06   6 3.06  19 3.06  21 3.06

  16  0.234  0.000  0.167-  49 1.61  43 1.61  35 1.62  57 1.62   2 3.06  10 3.06  12 3.06
  17  0.234  0.000  0.667-  50 1.61  44 1.61  36 1.62  58 1.62   3 3.06   1 3.06  11 3.06  13 3.06

  18  0.234  0.500  0.167-  51 1.61  41 1.61  33 1.62  59 1.62   2 3.06   8 3.06  14 3.06
  19  0.234  0.500  0.667-  52 1.61  42 1.61  34 1.62  60 1.62   1 3.06   3 3.06   9 3.06  15 3.06

  20  0.734  0.000  0.167-  53 1.61  47 1.61  39 1.62  61 1.62   6 3.06   4 3.06   8 3.06  14 3.06

  21  0.734  0.000  0.667-  54 1.61  48 1.61  40 1.62  62 1.62   7 3.06   5 3.06   9 3.06  15 3.06

  22  0.734  0.500  0.167-  55 1.61  45 1.61  37 1.62  63 1.62   4 3.06   6 3.06  10 3.06  12 3.06

  23  0.734  0.500  0.667-  56 1.61  46 1.61  38 1.62  64 1.62   5 3.06   7 3.06  11 3.06  13 3.06

  24  0.266  0.266  0.000-  66 1.61  33 1.61  49 1.62  26 1.62
  25  0.135  0.207  0.392-   8 1.61   1 1.62
  26  0.135  0.207  0.892-   9 1.61  24 1.62
  27  0.135  0.707  0.392-  10 1.61   3 1.62
  28  0.135  0.707  0.892-  11 1.61   2 1.62
  29  0.635  0.207  0.392-  12 1.61   5 1.62
  30  0.635  0.207  0.892-  13 1.61   4 1.62
  31  0.635  0.707  0.392-  14 1.61   7 1.62
  32  0.635  0.707  0.892-  15 1.61   6 1.62
  33  0.293  0.428  0.059-  24 1.61  18 1.62
  34  0.293  0.428  0.559-   1 1.61  19 1.62
  35  0.293  0.928  0.059-   2 1.61  16 1.62
  36  0.293  0.928  0.559-   3 1.61  17 1.62
  37  0.793  0.428  0.059-   4 1.61  22 1.62
  38  0.793  0.428  0.559-   5 1.61  23 1.62
  39  0.793  0.928  0.059-   6 1.61  20 1.62
  40  0.793  0.928  0.559-   7 1.61  21 1.62
  41  0.072  0.365  0.226-  18 1.61   8 1.62
  42  0.072  0.365  0.726-  19 1.61   9 1.62
  43  0.072  0.865  0.226-  16 1.61  10 1.62
  44  0.072  0.865  0.726-  17 1.61  11 1.62
  45  0.572  0.365  0.226-  22 1.61  12 1.62
  46  0.572  0.365  0.726-  23 1.61  13 1.62
  47  0.572  0.865  0.226-  20 1.61  14 1.62
  48  0.572  0.865  0.726-  21 1.61  15 1.62
  49  0.207  0.135  0.108-  16 1.61  24 1.62
  50  0.207  0.135  0.608-  17 1.61   1 1.62
  51  0.207  0.635  0.108-  18 1.61   2 1.62
  52  0.207  0.635  0.608-  19 1.61   3 1.62
  53  0.707  0.135  0.108-  20 1.61   4 1.62
  54  0.707  0.135  0.608-  21 1.61   5 1.62
  55  0.707  0.635  0.108-  22 1.61   6 1.62
  56  0.707  0.635  0.608-  23 1.61   7 1.62
  57  0.365  0.072  0.274-  12 1.61  16 1.62
  58  0.365  0.072  0.774-  13 1.61  17 1.62
  59  0.365  0.572  0.274-  14 1.61  18 1.62
  60  0.365  0.572  0.774-  15 1.61  19 1.62
  61  0.865  0.072  0.274-   8 1.61  20 1.62
  62  0.865  0.072  0.774-   9 1.61  21 1.62
  63  0.865  0.572  0.274-  10 1.61  22 1.62
  64  0.865  0.572  0.774-  11 1.61  23 1.62
  65  0.428  0.293  0.441-   1 1.61  12 1.62
  66  0.428  0.293  0.941-  24 1.61  13 1.62
  67  0.428  0.793  0.441-   3 1.61  14 1.62
  68  0.428  0.793  0.941-   2 1.61  15 1.62
  69  0.928  0.293  0.441-   5 1.61   8 1.62
  70  0.928  0.293  0.941-   4 1.61   9 1.62
  71  0.928  0.793  0.441-   7 1.61  10 1.62
  72  0.928  0.793  0.941-   6 1.61  11 1.62
 
  LATTYP: Found a hexagonal cell.
 ALAT       =     9.8299323535
 C/A-ratio  =     1.1050536148
  
  Lattice vectors:
  
 A1 = (   4.9149661767,  -8.5129711356,   0.0000000000)
 A2 = (   4.9149661767,   8.5129711356,   0.0000000000)
 A3 = (   0.0000000000,   0.0000000000,  10.8626022800)


Analysis of symmetry for initial positions (statically):
=====================================================================
 Subroutine PRICEL returns:
 Original cell was already a primitive cell.
 

 Routine SETGRP: Setting up the symmetry group for a 
 hexagonal supercell.


 Subroutine GETGRP returns: Found  2 space group operations
 (whereof  2 operations were pure point group operations)
 out of a pool of 24 trial point group operations.


The static configuration has the point symmetry C_2 .


Analysis of symmetry for dynamics (positions and initial velocities):
=====================================================================
 Subroutine PRICEL returns:
 Original cell was already a primitive cell.
 

 Routine SETGRP: Setting up the symmetry group for a 
 hexagonal supercell.


 Subroutine GETGRP returns: Found  2 space group operations
 (whereof  2 operations were pure point group operations)
 out of a pool of 24 trial point group operations.


The dynamic configuration has the point symmetry C_2 .


 Subroutine INISYM returns: Found  2 space group operations
 (whereof  2 operations are pure point group operations),
 and found     1 'primitive' translations


----------------------------------------------------------------------------------------

                                     Primitive cell                                     

  volume of cell :     909.0035

  direct lattice vectors                    reciprocal lattice vectors
     4.914966177 -8.512971136  0.000000000     0.101730100 -0.058733901  0.000000000
     4.914966177  8.512971136  0.000000000     0.101730100  0.058733901  0.000000000
     0.000000000  0.000000000 10.862602280     0.000000000  0.000000000  0.092058972

  length of vectors
     9.829932353  9.829932353 10.862602280     0.117467801  0.117467801  0.092058972

  position of ions in fractional coordinates (direct lattice)
     0.265544295  0.265544295  0.500000000
     0.265544295  0.765544295  0.000000000
     0.265544295  0.765544295  0.500000000
     0.765544295  0.265544295  0.000000000
     0.765544295  0.265544295  0.500000000
     0.765544295  0.765544295  0.000000000
     0.765544295  0.765544295  0.500000000
     1.000000000  0.234455705  0.333333333
     1.000000000  0.234455705  0.833333333
     1.000000000  0.734455705  0.333333333
     1.000000000  0.734455705  0.833333333
     0.500000000  0.234455705  0.333333333
     0.500000000  0.234455705  0.833333333
     0.500000000  0.734455705  0.333333333
     0.500000000  0.734455705  0.833333333
     0.234455705  1.000000000  0.166666667
     0.234455705  1.000000000  0.666666667
     0.234455705  0.500000000  0.166666667
     0.234455705  0.500000000  0.666666667
     0.734455705  1.000000000  0.166666667
     0.734455705  1.000000000  0.666666667
     0.734455705  0.500000000  0.166666667
     0.734455705  0.500000000  0.666666667
     0.265544295  0.265544295  0.000000000
     0.134611555  0.206697145  0.392445490
     0.134611555  0.206697145  0.892445490
     0.134611555  0.706697145  0.392445490
     0.134611555  0.706697145  0.892445490
     0.634611555  0.206697145  0.392445490
     0.634611555  0.206697145  0.892445490
     0.634611555  0.706697145  0.392445490
     0.634611555  0.706697145  0.892445490
     0.293302855  0.427914410  0.059112157
     0.293302855  0.427914410  0.559112157
     0.293302855  0.927914410  0.059112157
     0.293302855  0.927914410  0.559112157
     0.793302855  0.427914410  0.059112157
     0.793302855  0.427914410  0.559112157
     0.793302855  0.927914410  0.059112157
     0.793302855  0.927914410  0.559112157
     0.072085590  0.365388445  0.225778823
     0.072085590  0.365388445  0.725778823
     0.072085590  0.865388445  0.225778823
     0.072085590  0.865388445  0.725778823
     0.572085590  0.365388445  0.225778823
     0.572085590  0.365388445  0.725778823
     0.572085590  0.865388445  0.225778823
     0.572085590  0.865388445  0.725778823
     0.206697145  0.134611555  0.107554510
     0.206697145  0.134611555  0.607554510
     0.206697145  0.634611555  0.107554510
     0.206697145  0.634611555  0.607554510
     0.706697145  0.134611555  0.107554510
     0.706697145  0.134611555  0.607554510
     0.706697145  0.634611555  0.107554510
     0.706697145  0.634611555  0.607554510
     0.365388445  0.072085590  0.274221177
     0.365388445  0.072085590  0.774221177
     0.365388445  0.572085590  0.274221177
     0.365388445  0.572085590  0.774221177
     0.865388445  0.072085590  0.274221177
     0.865388445  0.072085590  0.774221177
     0.865388445  0.572085590  0.274221177
     0.865388445  0.572085590  0.774221177
     0.427914410  0.293302855  0.440887843
     0.427914410  0.293302855  0.940887843
     0.427914410  0.793302855  0.440887843
     0.427914410  0.793302855  0.940887843
     0.927914410  0.293302855  0.440887843
     0.927914410  0.293302855  0.940887843
     0.927914410  0.793302855  0.440887843
     0.927914410  0.793302855  0.940887843

  ion indices of the primitive-cell ions
   primitive index   ion index
                 1           1
                 2           2
                 3           3
                 4           4
                 5           5
                 6           6
                 7           7
                 8           8
                 9           9
                10          10
                11          11
                12          12
                13          13
                14          14
                15          15
                16          16
                17          17
                18          18
                19          19
                20          20
                21          21
                22          22
                23          23
                24          24
                25          25
                26          26
                27          27
                28          28
                29          29
                30          30
                31          31
                32          32
                33          33
                34          34
                35          35
                36          36
                37          37
                38          38
                39          39
                40          40
                41          41
                42          42
                43          43
                44          44
                45          45
                46          46
                47          47
                48          48
                49          49
                50          50
                51          51
                52          52
                53          53
                54          54
                55          55
                56          56
                57          57
                58          58
                59          59
                60          60
                61          61
                62          62
                63          63
                64          64
                65          65
                66          66
                67          67
                68          68
                69          69
                70          70
                71          71
                72          72

----------------------------------------------------------------------------------------

 
 
 KPOINTS: pymatgen with grid density = 1000 / numb

Automatic generation of k-mesh.
 Grid dimensions read from file:
 generate k-points for:    2    2    2

 Generating k-lattice:

  Cartesian coordinates                     Fractional coordinates (reciprocal lattice)
     0.050865050 -0.029366950  0.000000000     0.500000000 -0.000000000  0.000000000
     0.050865050  0.029366950  0.000000000    -0.000000000  0.500000000  0.000000000
     0.000000000  0.000000000  0.046029486     0.000000000  0.000000000  0.500000000

  Length of vectors
     0.058733901  0.058733901  0.046029486

  Shift w.r.t. Gamma in fractional coordinates (k-lattice)
     0.000000000  0.000000000  0.000000000

 
 Subroutine IBZKPT returns following result:
 ===========================================
 
 Found      6 irreducible k-points:
 
 Following reciprocal coordinates:
            Coordinates               Weight
  0.000000  0.000000  0.000000      1.000000
  0.500000  0.000000  0.000000      2.000000
  0.500000  0.500000  0.000000      1.000000
  0.000000  0.000000  0.500000      1.000000
  0.500000  0.000000  0.500000      2.000000
  0.500000  0.500000  0.500000      1.000000
 
 Following cartesian coordinates:
            Coordinates               Weight
  0.000000  0.000000  0.000000      1.000000
  0.050865 -0.029367  0.000000      2.000000
  0.101730  0.000000  0.000000      1.000000
  0.000000  0.000000  0.046029      1.000000
  0.050865 -0.029367  0.046029      2.000000
  0.101730  0.000000  0.046029      1.000000
 


--------------------------------------------------------------------------------------------------------




 Dimension of arrays:
   k-points           NKPTS =      6   k-points in BZ     NKDIM =      6   number of bands    NBANDS=    256
   number of dos      NEDOS =    301   number of ions     NIONS =     72
   non local maximal  LDIM  =      4   non local SUM 2l+1 LMDIM =      8
   total plane-waves  NPLWV = 200704
   max r-space proj   IRMAX =      1   max aug-charges    IRDMAX=   7581
   dimension x,y,z NGX =    56 NGY =   56 NGZ =   64
   dimension x,y,z NGXF=   112 NGYF=  112 NGZF=  128
   support grid    NGXF=   112 NGYF=  112 NGZF=  128
   ions per type =              23   1  48
   NGX,Y,Z   is equivalent  to a cutoff of   9.47,  9.47,  9.79 a.u.
   NGXF,Y,Z  is equivalent  to a cutoff of  18.94, 18.94, 19.59 a.u.

 SYSTEM =  SiO2                                    
 POSCAR =  Si23 P1 O48                             

 Startparameter for this run:
   NWRITE =      2    write-flag & timer
   PREC   = normal    normal or accurate (medium, high low for compatibility)
   ISTART =      0    job   : 0-new  1-cont  2-samecut
   ICHARG =      2    charge: 1-file 2-atom 10-const
   ISPIN  =      1    spin polarized calculation?
   LNONCOLLINEAR =      F non collinear calculations
   LSORBIT =      F    spin-orbit coupling
   INIWAV =      1    electr: 0-lowe 1-rand  2-diag
   LASPH  =      F    aspherical Exc in radial PAW
 Electronic Relaxation 1
   ENCUT  =  550.0 eV  40.42 Ry    6.36 a.u.  18.80 18.80 20.77*2*pi/ulx,y,z
   ENINI  =  550.0     initial cutoff
   ENAUG  =  605.4 eV  augmentation charge cutoff
   NELM   =    200;   NELMIN=  2; NELMDL= -5     # of ELM steps 
   EDIFF  = 0.1E-04   stopping-criterion for ELM
   LREAL  =      F    real-space projection
   NLSPLINE    = F    spline interpolate recip. space projectors
   LCOMPAT=      F    compatible to vasp.4.4
   GGA_COMPAT  = T    GGA compatible to vasp.4.4-vasp.4.6
   LMAXPAW     = -100 max onsite density
   LMAXMIX     =    2 max onsite mixed and CHGCAR
   VOSKOWN=      0    Vosko Wilk Nusair interpolation
   ROPT   =    0.00000   0.00000   0.00000
 Ionic relaxation
   EDIFFG = -.5E-01   stopping-criterion for IOM
   NSW    =    100    number of steps for IOM
   NBLOCK =      1;   KBLOCK =    100    inner block; outer block 
   IBRION =      2    ionic relax: 0-MD 1-quasi-New 2-CG
   NFREE  =      1    steps in history (QN), initial steepest desc. (CG)
   ISIF   =      2    stress and relaxation
   IWAVPR =     11    prediction:  0-non 1-charg 2-wave 3-comb
   ISYM   =      2    0-nonsym 1-usesym 2-fastsym
   LCORR  =      T    Harris-Foulkes like correction to forces

   POTIM  = 0.5000    time-step for ionic-motion
   TEIN   =    0.0    initial temperature
   TEBEG  =    0.0;   TEEND  =   0.0 temperature during run
   SMASS  =  -3.00    Nose mass-parameter (am)
   estimated Nose-frequenzy (Omega)   =  0.10E-29 period in steps = 0.13E+47 mass=  -0.221E-26a.u.
   SCALEE = 1.0000    scale energy and forces
   NPACO  =    256;   APACO  = 10.0  distance and # of slots for P.C.
   PSTRESS=    0.0 pullay stress

  Mass of Ions in am
   POMASS =  28.09 30.97 16.00
  Ionic Valenz
   ZVAL   =   4.00  5.00  6.00
  Atomic Wigner-Seitz radii
   RWIGS  =  -1.00 -1.00 -1.00
  virtual crystal weights 
   VCA    =   1.00  1.00  1.00
   NELECT =     384.0000    total number of electrons
   NUPDOWN=      -1.0000    fix difference up-down

 DOS related values:
   EMIN   =  10.00;   EMAX   =-10.00  energy-range for DOS
   EFERMI =   0.00
   ISMEAR =     0;   SIGMA  =   0.05  broadening in eV -4-tet -1-fermi 0-gaus

 Electronic relaxation 2 (details)
   IALGO  =     38    algorithm
   LDIAG  =      T    sub-space diagonalisation (order eigenvalues)
   LSUBROT=      F    optimize rotation matrix (better conditioning)
   TURBO    =      0    0=normal 1=particle mesh
   IRESTART =      0    0=no restart 2=restart with 2 vectors
   NREBOOT  =      0    no. of reboots
   NMIN     =      0    reboot dimension
   EREF     =   0.00    reference energy to select bands
   IMIX   =      4    mixing-type and parameters
     AMIX     =   0.20;   BMIX     =  1.00
     AMIX_MAG =   0.80;   BMIX_MAG =  1.00
     AMIN     =   0.10
     WC   =   100.;   INIMIX=   1;  MIXPRE=   1;  MAXMIX= -45

 Intra band minimization:
   WEIMIN = 0.0010     energy-eigenvalue tresh-hold
   EBREAK =  0.98E-08  absolut break condition
   DEPER  =   0.30     relativ break condition  

   TIME   =   0.40     timestep for ELM

  volume/ion in A,a.u.               =      12.63        85.20
  Fermi-wavevector in a.u.,A,eV,Ry     =   1.228372  2.321287 20.529814  1.508899
  Thomas-Fermi vector in A             =   2.363300
 
 Write flags
   LWAVE        =      F    write WAVECAR
   LDOWNSAMPLE  =      F    k-point downsampling of WAVECAR
   LCHARG       =      F    write CHGCAR
   LVTOT        =      T    write LOCPOT, total local potential
   LVHAR        =      F    write LOCPOT, Hartree potential only
   LELF         =      F    write electronic localiz. function (ELF)
   LORBIT       =     11    0 simple, 1 ext, 2 COOP (PROOUT), +10 PAW based schemes


 Dipole corrections
   LMONO  =      F    monopole corrections only (constant potential shift)
   LDIPOL =      F    correct potential (dipole corrections)
   IDIPOL =      0    1-x, 2-y, 3-z, 4-all directions 
   EPSILON=  1.0000000 bulk dielectric constant

 Exchange correlation treatment:
   GGA     =    --    GGA type
   LEXCH   =     8    internal setting for exchange type
   LIBXC   =     F    Libxc                    
   VOSKOWN =     0    Vosko Wilk Nusair interpolation
   LHFCALC =     F    Hartree Fock is set to
   LHFONE  =     F    Hartree Fock one center treatment
   AEXX    =    0.0000 exact exchange contribution

 Linear response parameters
   LEPSILON=     F    determine dielectric tensor
   LRPA    =     F    only Hartree local field effects (RPA)
   LNABLA  =     F    use nabla operator in PAW spheres
   LVEL    =     F    velocity operator in full k-point grid
   CSHIFT  =0.1000    complex shift for real part using Kramers Kronig
   OMEGAMAX=  -1.0    maximum frequency
   DEG_THRESHOLD= 0.2000000E-02 threshold for treating states as degnerate
   RTIME   =   -0.100 relaxation time in fs
  (WPLASMAI=    0.000 imaginary part of plasma frequency in eV, 0.658/RTIME)
   DFIELD  = 0.0000000 0.0000000 0.0000000 field for delta impulse in time
 
  Optional k-point grid parameters
   LKPOINTS_OPT  =     F    use optional k-point grid
   KPOINTS_OPT_MODE=     1    mode for optional k-point grid
 
 Orbital magnetization related:
   ORBITALMAG=     F  switch on orbital magnetization
   LCHIMAG   =     F  perturbation theory with respect to B field
   DQ        =  0.001000  dq finite difference perturbation B field
   LLRAUG    =     F  two centre corrections for induced B field



--------------------------------------------------------------------------------------------------------


 conjugate gradient relaxation of ions
 charge density and potential will be updated during run
 non-spin polarized calculation
 Variant of blocked Davidson
 Davidson routine will perform the subspace rotation
 perform sub-space diagonalisation
    after iterative eigenvector-optimisation
 modified Broyden-mixing scheme, WC =      100.0
 initial mixing is a Kerker type mixing with AMIX =  0.2000 and BMIX =      1.0000
 Hartree-type preconditioning will be used
 using additional bands           64
 reciprocal scheme for non local part
 use partial core corrections
 calculate Harris-corrections to forces 
   (improved forces if not selfconsistent)
 use gradient corrections 
 use of overlap-Matrix (Vanderbilt PP)
 Gauss-broadening in eV      SIGMA  =   0.05


--------------------------------------------------------------------------------------------------------


  energy-cutoff  :      550.00
  volume of cell :      909.00
      direct lattice vectors                 reciprocal lattice vectors
     4.914966177 -8.512971136  0.000000000     0.101730100 -0.058733901  0.000000000
     4.914966177  8.512971136  0.000000000     0.101730100  0.058733901  0.000000000
     0.000000000  0.000000000 10.862602280     0.000000000  0.000000000  0.092058972

  length of vectors
     9.829932353  9.829932353 10.862602280     0.117467801  0.117467801  0.092058972


 
 k-points in units of 2pi/SCALE and weight: pymatgen with grid density = 1000 / numb
   0.00000000  0.00000000  0.00000000       0.125
   0.05086505 -0.02936695  0.00000000       0.250
   0.10173010  0.00000000  0.00000000       0.125
   0.00000000  0.00000000  0.04602949       0.125
   0.05086505 -0.02936695  0.04602949       0.250
   0.10173010  0.00000000  0.04602949       0.125
 
 k-points in reciprocal lattice and weights: pymatgen with grid density = 1000 / numb
   0.00000000  0.00000000  0.00000000       0.125
   0.50000000  0.00000000  0.00000000       0.250
   0.50000000  0.50000000  0.00000000       0.125
   0.00000000  0.00000000  0.50000000       0.125
   0.50000000  0.00000000  0.50000000       0.250
   0.50000000  0.50000000  0.50000000       0.125
 
 position of ions in fractional coordinates (direct lattice) 
   0.26554429  0.26554429  0.50000000
   0.26554429  0.76554429  0.00000000
   0.26554429  0.76554429  0.50000000
   0.76554429  0.26554429  0.00000000
   0.76554429  0.26554429  0.50000000
   0.76554429  0.76554429  0.00000000
   0.76554429  0.76554429  0.50000000
   0.00000000  0.23445571  0.33333333
   0.00000000  0.23445571  0.83333333
   0.00000000  0.73445571  0.33333333
   0.00000000  0.73445571  0.83333333
   0.50000000  0.23445571  0.33333333
   0.50000000  0.23445571  0.83333333
   0.50000000  0.73445571  0.33333333
   0.50000000  0.73445571  0.83333333
   0.23445571  0.00000000  0.16666667
   0.23445571  0.00000000  0.66666667
   0.23445571  0.50000000  0.16666667
   0.23445571  0.50000000  0.66666667
   0.73445571  0.00000000  0.16666667
   0.73445571  0.00000000  0.66666667
   0.73445571  0.50000000  0.16666667
   0.73445571  0.50000000  0.66666667
   0.26554429  0.26554429  0.00000000
   0.13461155  0.20669714  0.39244549
   0.13461155  0.20669714  0.89244549
   0.13461155  0.70669714  0.39244549
   0.13461155  0.70669714  0.89244549
   0.63461155  0.20669714  0.39244549
   0.63461155  0.20669714  0.89244549
   0.63461155  0.70669714  0.39244549
   0.63461155  0.70669714  0.89244549
   0.29330286  0.42791441  0.05911216
   0.29330286  0.42791441  0.55911216
   0.29330286  0.92791441  0.05911216
   0.29330286  0.92791441  0.55911216
   0.79330286  0.42791441  0.05911216
   0.79330286  0.42791441  0.55911216
   0.79330286  0.92791441  0.05911216
   0.79330286  0.92791441  0.55911216
   0.07208559  0.36538845  0.22577882
   0.07208559  0.36538845  0.72577882
   0.07208559  0.86538845  0.22577882
   0.07208559  0.86538845  0.72577882
   0.57208559  0.36538845  0.22577882
   0.57208559  0.36538845  0.72577882
   0.57208559  0.86538845  0.22577882
   0.57208559  0.86538845  0.72577882
   0.20669714  0.13461155  0.10755451
   0.20669714  0.13461155  0.60755451
   0.20669714  0.63461155  0.10755451
   0.20669714  0.63461155  0.60755451
   0.70669714  0.13461155  0.10755451
   0.70669714  0.13461155  0.60755451
   0.70669714  0.63461155  0.10755451
   0.70669714  0.63461155  0.60755451
   0.36538845  0.07208559  0.27422118
   0.36538845  0.07208559  0.77422118
   0.36538845  0.57208559  0.27422118
   0.36538845  0.57208559  0.77422118
   0.86538845  0.07208559  0.27422118
   0.86538845  0.07208559  0.77422118
   0.86538845  0.57208559  0.27422118
   0.86538845  0.57208559  0.77422118
   0.42791441  0.29330286  0.44088784
   0.42791441  0.29330286  0.94088784
   0.42791441  0.79330286  0.44088784
   0.42791441  0.79330286  0.94088784
   0.92791441  0.29330286  0.44088784
   0.92791441  0.29330286  0.94088784
   0.92791441  0.79330286  0.44088784
   0.92791441  0.79330286  0.94088784
 
 position of ions in cartesian coordinates  (Angst):
   2.61028246 -0.00000000  5.43130114
   5.06776555  4.25648557  0.00000000
   5.06776555  4.25648557  5.43130114
   5.06776555 -4.25648557  0.00000000
   5.06776555 -4.25648557  5.43130114
   7.52524863  0.00000000  0.00000000
   7.52524863  0.00000000  5.43130114
   1.15234186  1.99591465  3.62086743
   1.15234186  1.99591465  9.05216857
   3.60982495  6.25240022  3.62086743
   3.60982495  6.25240022  9.05216857
   3.60982495 -2.26057092  3.62086743
   3.60982495 -2.26057092  9.05216857
   6.06730804  1.99591465  3.62086743
   6.06730804  1.99591465  9.05216857
   1.15234186 -1.99591465  1.81043371
   1.15234186 -1.99591465  7.24173485
   3.60982495  2.26057092  1.81043371
   3.60982495  2.26057092  7.24173485
   3.60982495 -6.25240022  1.81043371
   3.60982495 -6.25240022  7.24173485
   6.06730804 -1.99591465  1.81043371
   6.06730804 -1.99591465  7.24173485
   2.61028246 -0.00000000  0.00000000
   1.67752072  0.61366255  4.26297927
   1.67752072  0.61366255  9.69428041
   4.13500380  4.87014811  4.26297927
   4.13500380  4.87014811  9.69428041
   4.13500380 -3.64282302  4.26297927
   4.13500380 -3.64282302  9.69428041
   6.59248689  0.61366255  4.26297927
   6.59248689  0.61366255  9.69428041
   3.54475846  1.14594428  0.64211185
   3.54475846  1.14594428  6.07341299
   6.00224155  5.40242985  0.64211185
   6.00224155  5.40242985  6.07341299
   6.00224155 -3.11054129  0.64211185
   6.00224155 -3.11054129  6.07341299
   8.45972464  1.14594428  0.64211185
   8.45972464  1.14594428  6.07341299
   2.15017009  2.49687874  2.45254556
   2.15017009  2.49687874  7.88384670
   4.60765317  6.75336431  2.45254556
   4.60765317  6.75336431  7.88384670
   4.60765317 -1.75960683  2.45254556
   4.60765317 -1.75960683  7.88384670
   7.06513626  2.49687874  2.45254556
   7.06513626  2.49687874  7.88384670
   1.67752072 -0.61366255  1.16832187
   1.67752072 -0.61366255  6.59962301
   4.13500380  3.64282302  1.16832187
   4.13500380  3.64282302  6.59962301
   4.13500380 -4.87014811  1.16832187
   4.13500380 -4.87014811  6.59962301
   6.59248689 -0.61366255  1.16832187
   6.59248689 -0.61366255  6.59962301
   2.15017009 -2.49687874  2.97875558
   2.15017009 -2.49687874  8.41005672
   4.60765317  1.75960683  2.97875558
   4.60765317  1.75960683  8.41005672
   4.60765317 -6.75336431  2.97875558
   4.60765317 -6.75336431  8.41005672
   7.06513626 -2.49687874  2.97875558
   7.06513626 -2.49687874  8.41005672
   3.54475846 -1.14594428  4.78918929
   3.54475846 -1.14594428 10.22049043
   6.00224155  3.11054129  4.78918929
   6.00224155  3.11054129 10.22049043
   6.00224155 -5.40242985  4.78918929
   6.00224155 -5.40242985 10.22049043
   8.45972464 -1.14594428  4.78918929
   8.45972464 -1.14594428 10.22049043
 


--------------------------------------------------------------------------------------------------------


 k-point   1 :   0.0000 0.0000 0.0000  plane waves:   26579
 k-point   2 :   0.5000 0.0000 0.0000  plane waves:   26614
 k-point   3 :   0.5000 0.5000 0.0000  plane waves:   26614
 k-point   4 :   0.0000 0.0000 0.5000  plane waves:   26718
 k-point   5 :   0.5000 0.0000 0.5000  plane waves:   26636
 k-point   6 :   0.5000 0.5000 0.5000  plane waves:   26636

 maximum and minimum number of plane-waves per node :     26718    26579

 maximum number of plane-waves:     26718
 maximum index in each direction: 
   IXMAX=   18   IYMAX=   18   IZMAX=   20
   IXMIN=  -19   IYMIN=  -19   IZMIN=  -21


 serial   3D FFT for wavefunctions
 parallel 3D FFT for charge:
    minimum data exchange during FFTs selected (reduces bandwidth)


 total amount of memory used by VASP MPI-rank0   114071. kBytes
=======================================================================

   base      :      30000. kBytes
   nonl-proj :      61636. kBytes
   fftplans  :       1787. kBytes
   grid      :       9934. kBytes
   one-center:        221. kBytes
   wavefun   :      10493. kBytes
 
     INWAV:  cpu time      0.0000: real time      0.0001
 Broyden mixing: mesh for mixing (old mesh)
   NGX = 37   NGY = 37   NGZ = 41
  (NGX  =112   NGY  =112   NGZ  =128)
  gives a total of  56129 points

 initial charge density was supplied:
 charge density of overlapping atoms calculated
 number of electron     385.0000000 magnetization 
 keeping initial charge density in first step


--------------------------------------------------------------------------------------------------------


 Maximum index for augmentation-charges          412 (set IRDMAX)


--------------------------------------------------------------------------------------------------------


 First call to EWALD:  gamma=   0.183
 Maximum number of real-space cells 3x 3x 3
 Maximum number of reciprocal cells 3x 3x 3

    FEWALD:  cpu time      0.0017: real time      0.0018


--------------------------------------- Iteration      1(   1)  ---------------------------------------


    POTLOK:  cpu time      0.0239: real time      0.0249
    SETDIJ:  cpu time      0.0028: real time      0.0032
     EDDAV:  cpu time      3.7115: real time      3.7414
       DOS:  cpu time      0.0014: real time      0.0018
    --------------------------------------------
      LOOP:  cpu time      3.7397: real time      3.7712

 eigenvalue-minimisations  :  3072
 total energy-change (2. order) : 0.2294261E+04  (-0.2097990E+05)
 number of electron     385.0000000 magnetization 
 augmentation part      385.0000000 magnetization 

 Free energy of the ion-electron system (eV)
  ---------------------------------------------------
  alpha Z        PSCENC =       561.29760740
  Ewald energy   TEWEN  =    -15179.19602506
  -Hartree energ DENC   =     -7505.73190397
  -exchange      EXHF   =         0.00000000
  -V(xc)+E(xc)   XCENC  =      1145.24165978
  PAW double counting   =     18800.98231178   -18474.51157198
  entropy T*S    EENTRO =        -0.02156644
  eigenvalues    EBANDS =      -353.62292478
  atomic energy  EATOM  =     23299.82317458
  Solvation  Ediel_sol  =         0.00000000
  ---------------------------------------------------
  free energy    TOTEN  =      2294.26076130 eV

  energy without entropy =     2294.28232774  energy(sigma->0) =     2294.27154452


--------------------------------------------------------------------------------------------------------




--------------------------------------- Iteration      1(   2)  ---------------------------------------


     EDDAV:  cpu time      4.8931: real time      4.9332
       DOS:  cpu time      0.0004: real time      0.0004
    --------------------------------------------
      LOOP:  cpu time      4.8935: real time      4.9336

 eigenvalue-minimisations  :  4224
 total energy-change (2. order) :-0.2798123E+04  (-0.2728099E+04)
 number of electron     385.0000000 magnetization 
 augmentation part      385.0000000 magnetization 

 Free energy of the ion-electron system (eV)
  ---------------------------------------------------
  alpha Z        PSCENC =       561.29760740
  Ewald energy   TEWEN  =    -15179.19602506
  -Hartree energ DENC   =     -7505.73190397
  -exchange      EXHF   =         0.00000000
  -V(xc)+E(xc)   XCENC  =      1145.24165978
  PAW double counting   =     18800.98231178   -18474.51157198
  entropy T*S    EENTRO =        -0.00000000
  eigenvalues    EBANDS =     -3151.76765287
  atomic energy  EATOM  =     23299.82317458
  Solvation  Ediel_sol  =         0.00000000
  ---------------------------------------------------
  free energy    TOTEN  =      -503.86240036 eV

  energy without entropy =     -503.86240036  energy(sigma->0) =     -503.86240036


--------------------------------------------------------------------------------------------------------




--------------------------------------- Iteration      1(   3)  ---------------------------------------


     EDDAV:  cpu time      4.5083: real time      4.5417
       DOS:  cpu time      0.0003: real time      0.0003
    --------------------------------------------
      LOOP:  cpu time      4.5086: real time      4.5421

 eigenvalue-minimisations  :  3840
 total energy-change (2. order) :-0.1388730E+03  (-0.1383976E+03)
 number of electron     385.0000000 magnetization 
 augmentation part      385.0000000 magnetization 

 Free energy of the ion-electron system (eV)
  ---------------------------------------------------
  alpha Z        PSCENC =       561.29760740
  Ewald energy   TEWEN  =    -15179.19602506
  -Hartree energ DENC   =     -7505.73190397
  -exchange      EXHF   =         0.00000000
  -V(xc)+E(xc)   XCENC  =      1145.24165978
  PAW double counting   =     18800.98231178   -18474.51157198
  entropy T*S    EENTRO =        -0.00000000
  eigenvalues    EBANDS =     -3290.64061674
  atomic energy  EATOM  =     23299.82317458
  Solvation  Ediel_sol  =         0.00000000
  ---------------------------------------------------
  free energy    TOTEN  =      -642.73536422 eV

  energy without entropy =     -642.73536422  energy(sigma->0) =     -642.73536422


--------------------------------------------------------------------------------------------------------




--------------------------------------- Iteration      1(   4)  ---------------------------------------


     EDDAV:  cpu time      4.5329: real time      4.5671
       DOS:  cpu time      0.0004: real time      0.0004
    --------------------------------------------
      LOOP:  cpu time      4.5333: real time      4.5675

 eigenvalue-minimisations  :  3840
 total energy-change (2. order) :-0.1520329E+01  (-0.1518729E+01)
 number of electron     385.0000000 magnetization 
 augmentation part      385.0000000 magnetization 

 Free energy of the ion-electron system (eV)
  ---------------------------------------------------
  alpha Z        PSCENC =       561.29760740
  Ewald energy   TEWEN  =    -15179.19602506
  -Hartree energ DENC   =     -7505.73190397
  -exchange      EXHF   =         0.00000000
  -V(xc)+E(xc)   XCENC  =      1145.24165978
  PAW double counting   =     18800.98231178   -18474.51157198
  entropy T*S    EENTRO =        -0.00000000
  eigenvalues    EBANDS =     -3292.16094542
  atomic energy  EATOM  =     23299.82317458
  Solvation  Ediel_sol  =         0.00000000
  ---------------------------------------------------
  free energy    TOTEN  =      -644.25569290 eV

  energy without entropy =     -644.25569290  energy(sigma->0) =     -644.25569290


--------------------------------------------------------------------------------------------------------




--------------------------------------- Iteration      1(   5)  ---------------------------------------


     EDDAV:  cpu time      4.4450: real time      4.4874
       DOS:  cpu time      0.0003: real time      0.0003
    CHARGE:  cpu time      0.0504: real time      0.0509
    MIXING:  cpu time      0.0027: real time      0.0032
    --------------------------------------------
      LOOP:  cpu time      4.4984: real time      4.5418

 eigenvalue-minimisations  :  3712
 total energy-change (2. order) :-0.2386090E-01  (-0.2385694E-01)
 number of electron     384.0000061 magnetization 
 augmentation part       35.4344164 magnetization 

 Broyden mixing:
  rms(total) = 0.72487E+01    rms(broyden)= 0.72478E+01
  rms(prec ) = 0.83455E+01
  weight for this iteration     100.00

 Free energy of the ion-electron system (eV)
  ---------------------------------------------------
  alpha Z        PSCENC =       561.29760740
  Ewald energy   TEWEN  =    -15179.19602506
  -Hartree energ DENC   =     -7505.73190397
  -exchange      EXHF   =         0.00000000
  -V(xc)+E(xc)   XCENC  =      1145.24165978
  PAW double counting   =     18800.98231178   -18474.51157198
  entropy T*S    EENTRO =        -0.00000000
  eigenvalues    EBANDS =     -3292.18480632
  atomic energy  EATOM  =     23299.82317458
  Solvation  Ediel_sol  =         0.00000000
  ---------------------------------------------------
  free energy    TOTEN  =      -644.27955380 eV

  energy without entropy =     -644.27955380  energy(sigma->0) =     -644.27955380


--------------------------------------------------------------------------------------------------------




--------------------------------------- Iteration      1(   6)  ---------------------------------------


    POTLOK:  cpu time      0.0123: real time      0.0124
    SETDIJ:  cpu time      0.0020: real time      0.0020
     EDDAV:  cpu time      4.4784: real time      4.5097
       DOS:  cpu time      0.0005: real time      0.0005
    CHARGE:  cpu time      0.0512: real time      0.0517
    MIXING:  cpu time      0.0010: real time      0.0010
    --------------------------------------------
      LOOP:  cpu time      4.5453: real time      4.5773

 eigenvalue-minimisations  :  3840
 total energy-change (2. order) : 0.5425575E+02  (-0.7291005E+01)
 number of electron     384.0000057 magnetization 
 augmentation part       31.9983898 magnetization 

 Broyden mixing:
  rms(total) = 0.49453E+01    rms(broyden)= 0.49453E+01
  rms(prec ) = 0.54755E+01
  weight for this iteration     100.00

 eigenvalues of (default mixing * dielectric matrix)
  average eigenvalue GAMMA=   2.3654
  2.3654

 Free energy of the ion-electron system (eV)
  ---------------------------------------------------
  alpha Z        PSCENC =       561.29760740
  Ewald energy   TEWEN  =    -15179.19602506
  -Hartree energ DENC   =     -7921.14809818
  -exchange      EXHF   =         0.00000000
  -V(xc)+E(xc)   XCENC  =      1170.24666460
  PAW double counting   =     24843.17682675   -24525.05941940
  entropy T*S    EENTRO =        -0.00000000
  eigenvalues    EBANDS =     -2839.16453038
  atomic energy  EATOM  =     23299.82317458
  Solvation  Ediel_sol  =         0.00000000
  ---------------------------------------------------
  free energy    TOTEN  =      -590.02379970 eV

  energy without entropy =     -590.02379970  energy(sigma->0) =     -590.02379970


--------------------------------------------------------------------------------------------------------




--------------------------------------- Iteration      1(   7)  ---------------------------------------


    POTLOK:  cpu time      0.0130: real time      0.0134
    SETDIJ:  cpu time      0.0020: real time      0.0020
     EDDAV:  cpu time      4.4707: real time      4.5032
       DOS:  cpu time      0.0004: real time      0.0003
    CHARGE:  cpu time      0.0507: real time      0.0511
    MIXING:  cpu time      0.0007: real time      0.0007
    --------------------------------------------
      LOOP:  cpu time      4.5374: real time      4.5706

 eigenvalue-minimisations  :  3840
 total energy-change (2. order) : 0.2097565E+02  (-0.1198176E+02)
 number of electron     384.0000051 magnetization 
 augmentation part       27.6383294 magnetization 

 Broyden mixing:
  rms(total) = 0.21346E+01    rms(broyden)= 0.21339E+01
  rms(prec ) = 0.22289E+01
  weight for this iteration     100.00

 eigenvalues of (default mixing * dielectric matrix)
  average eigenvalue GAMMA=   2.4638
  2.4638  2.4638

 Free energy of the ion-electron system (eV)
  ---------------------------------------------------
  alpha Z        PSCENC =       561.29760740
  Ewald energy   TEWEN  =    -15179.19602506
  -Hartree energ DENC   =     -8475.41041333
  -exchange      EXHF   =         0.00000000
  -V(xc)+E(xc)   XCENC  =      1207.75631187
  PAW double counting   =     42924.60401888   -42616.71487823
  entropy T*S    EENTRO =        -0.00000000
  eigenvalues    EBANDS =     -2291.20794632
  atomic energy  EATOM  =     23299.82317458
  Solvation  Ediel_sol  =         0.00000000
  ---------------------------------------------------
  free energy    TOTEN  =      -569.04815022 eV

  energy without entropy =     -569.04815022  energy(sigma->0) =     -569.04815022


--------------------------------------------------------------------------------------------------------




--------------------------------------- Iteration      1(   8)  ---------------------------------------


    POTLOK:  cpu time      0.0142: real time      0.0146
    SETDIJ:  cpu time      0.0020: real time      0.0020
     EDDAV:  cpu time      4.4497: real time      4.4816
       DOS:  cpu time      0.0008: real time      0.0008
    CHARGE:  cpu time      0.0510: real time      0.0519
    MIXING:  cpu time      0.0007: real time      0.0008
    --------------------------------------------
      LOOP:  cpu time      4.5184: real time      4.5517

 eigenvalue-minimisations  :  3840
 total energy-change (2. order) : 0.4619464E-01  (-0.6840730E+00)
 number of electron     384.0000052 magnetization 
 augmentation part       28.4461896 magnetization 

 Broyden mixing:
  rms(total) = 0.75382E+00    rms(broyden)= 0.75381E+00
  rms(prec ) = 0.84148E+00
  weight for this iteration     100.00

 eigenvalues of (default mixing * dielectric matrix)
  average eigenvalue GAMMA=   2.3593
  1.1441  3.8213  2.1126

 Free energy of the ion-electron system (eV)
  ---------------------------------------------------
  alpha Z        PSCENC =       561.29760740
  Ewald energy   TEWEN  =    -15179.19602506
  -Hartree energ DENC   =     -8427.25870559
  -exchange      EXHF   =         0.00000000
  -V(xc)+E(xc)   XCENC  =      1204.93634539
  PAW double counting   =     54270.64240060   -53960.62235145
  entropy T*S    EENTRO =        -0.00000000
  eigenvalues    EBANDS =     -2338.62440145
  atomic energy  EATOM  =     23299.82317458
  Solvation  Ediel_sol  =         0.00000000
  ---------------------------------------------------
  free energy    TOTEN  =      -569.00195558 eV

  energy without entropy =     -569.00195558  energy(sigma->0) =     -569.00195558


--------------------------------------------------------------------------------------------------------




--------------------------------------- Iteration      1(   9)  ---------------------------------------


    POTLOK:  cpu time      0.0120: real time      0.0124
    SETDIJ:  cpu time      0.0020: real time      0.0020
     EDDAV:  cpu time      4.4943: real time      4.5246
       DOS:  cpu time      0.0011: real time      0.0011
    CHARGE:  cpu time      0.0513: real time      0.0518
    MIXING:  cpu time      0.0006: real time      0.0006
    --------------------------------------------
      LOOP:  cpu time      4.5613: real time      4.5923

 eigenvalue-minimisations  :  3840
 total energy-change (2. order) : 0.1500446E+00  (-0.8084455E-01)
 number of electron     384.0000052 magnetization 
 augmentation part       28.1509458 magnetization 

 Broyden mixing:
  rms(total) = 0.27669E+00    rms(broyden)= 0.27668E+00
  rms(prec ) = 0.30606E+00
  weight for this iteration     100.00

 eigenvalues of (default mixing * dielectric matrix)
  average eigenvalue GAMMA=   2.5487
  5.1191  0.9963  2.0396  2.0396

 Free energy of the ion-electron system (eV)
  ---------------------------------------------------
  alpha Z        PSCENC =       561.29760740
  Ewald energy   TEWEN  =    -15179.19602506
  -Hartree energ DENC   =     -8502.61504630
  -exchange      EXHF   =         0.00000000
  -V(xc)+E(xc)   XCENC  =      1210.36551713
  PAW double counting   =     62450.94688845   -62142.09567968
  entropy T*S    EENTRO =        -0.00000000
  eigenvalues    EBANDS =     -2267.37834748
  atomic energy  EATOM  =     23299.82317458
  Solvation  Ediel_sol  =         0.00000000
  ---------------------------------------------------
  free energy    TOTEN  =      -568.85191097 eV

  energy without entropy =     -568.85191097  energy(sigma->0) =     -568.85191097


--------------------------------------------------------------------------------------------------------




--------------------------------------- Iteration      1(  10)  ---------------------------------------


    POTLOK:  cpu time      0.0124: real time      0.0127
    SETDIJ:  cpu time      0.0020: real time      0.0020
     EDDAV:  cpu time      4.8114: real time      4.8441
       DOS:  cpu time      0.0011: real time      0.0011
    CHARGE:  cpu time      0.0515: real time      0.0519
    MIXING:  cpu time      0.0009: real time      0.0009
    --------------------------------------------
      LOOP:  cpu time      4.8792: real time      4.9127

 eigenvalue-minimisations  :  3840
 total energy-change (2. order) :-0.5534998E-01  (-0.1954156E-01)
 number of electron     384.0000051 magnetization 
 augmentation part       28.0379859 magnetization 

 Broyden mixing:
  rms(total) = 0.23729E+00    rms(broyden)= 0.23729E+00
  rms(prec ) = 0.24195E+00
  weight for this iteration     100.00

 eigenvalues of (default mixing * dielectric matrix)
  average eigenvalue GAMMA=   2.5235
  4.9793  3.5943  2.0143  1.0264  1.0034

 Free energy of the ion-electron system (eV)
  ---------------------------------------------------
  alpha Z        PSCENC =       561.29760740
  Ewald energy   TEWEN  =    -15179.19602506
  -Hartree energ DENC   =     -8537.95688949
  -exchange      EXHF   =         0.00000000
  -V(xc)+E(xc)   XCENC  =      1212.98331109
  PAW double counting   =     65816.25580591   -65507.99022989
  entropy T*S    EENTRO =        -0.00000000
  eigenvalues    EBANDS =     -2234.12401548
  atomic energy  EATOM  =     23299.82317458
  Solvation  Ediel_sol  =         0.00000000
  ---------------------------------------------------
  free energy    TOTEN  =      -568.90726094 eV

  energy without entropy =     -568.90726094  energy(sigma->0) =     -568.90726094


--------------------------------------------------------------------------------------------------------




--------------------------------------- Iteration      1(  11)  ---------------------------------------


    POTLOK:  cpu time      0.0125: real time      0.0129
    SETDIJ:  cpu time      0.0022: real time      0.0022
     EDDAV:  cpu time      4.4426: real time      4.4744
       DOS:  cpu time      0.0007: real time      0.0007
    CHARGE:  cpu time      0.0523: real time      0.0527
    MIXING:  cpu time      0.0007: real time      0.0007
    --------------------------------------------
      LOOP:  cpu time      4.5110: real time      4.5437

 eigenvalue-minimisations  :  3840
 total energy-change (2. order) :-0.3708627E-02  (-0.2768183E-02)
 number of electron     384.0000051 magnetization 
 augmentation part       28.0962687 magnetization 

 Broyden mixing:
  rms(total) = 0.67872E-01    rms(broyden)= 0.67870E-01
  rms(prec ) = 0.70157E-01
  weight for this iteration     100.00

 eigenvalues of (default mixing * dielectric matrix)
  average eigenvalue GAMMA=   2.5559
  5.2248  4.5644  1.9991  1.4753  1.0359  1.0359

 Free energy of the ion-electron system (eV)
  ---------------------------------------------------
  alpha Z        PSCENC =       561.29760740
  Ewald energy   TEWEN  =    -15179.19602506
  -Hartree energ DENC   =     -8532.63716872
  -exchange      EXHF   =         0.00000000
  -V(xc)+E(xc)   XCENC  =      1212.56925068
  PAW double counting   =     63896.34712563   -63588.10404078
  entropy T*S    EENTRO =        -0.00000000
  eigenvalues    EBANDS =     -2239.01089330
  atomic energy  EATOM  =     23299.82317458
  Solvation  Ediel_sol  =         0.00000000
  ---------------------------------------------------
  free energy    TOTEN  =      -568.91096957 eV

  energy without entropy =     -568.91096957  energy(sigma->0) =     -568.91096957


--------------------------------------------------------------------------------------------------------




--------------------------------------- Iteration      1(  12)  ---------------------------------------


    POTLOK:  cpu time      0.0122: real time      0.0126
    SETDIJ:  cpu time      0.0023: real time      0.0023
     EDDAV:  cpu time      4.4721: real time      4.5205
       DOS:  cpu time      0.0005: real time      0.0005
    CHARGE:  cpu time      0.0518: real time      0.0522
    MIXING:  cpu time      0.0009: real time      0.0009
    --------------------------------------------
      LOOP:  cpu time      4.5398: real time      4.5889

 eigenvalue-minimisations  :  3840
 total energy-change (2. order) :-0.4162789E-02  (-0.5307704E-03)
 number of electron     384.0000051 magnetization 
 augmentation part       28.1055515 magnetization 

 Broyden mixing:
  rms(total) = 0.21537E-01    rms(broyden)= 0.21536E-01
  rms(prec ) = 0.24029E-01
  weight for this iteration     100.00

 eigenvalues of (default mixing * dielectric matrix)
  average eigenvalue GAMMA=   2.4463
  5.2317  4.5864  2.3815  1.9948  1.1186  0.9056  0.9056

 Free energy of the ion-electron system (eV)
  ---------------------------------------------------
  alpha Z        PSCENC =       561.29760740
  Ewald energy   TEWEN  =    -15179.19602506
  -Hartree energ DENC   =     -8533.73293676
  -exchange      EXHF   =         0.00000000
  -V(xc)+E(xc)   XCENC  =      1212.62540364
  PAW double counting   =     63116.27080341   -62808.08727329
  entropy T*S    EENTRO =        -0.00000000
  eigenvalues    EBANDS =     -2237.91588628
  atomic energy  EATOM  =     23299.82317458
  Solvation  Ediel_sol  =         0.00000000
  ---------------------------------------------------
  free energy    TOTEN  =      -568.91513236 eV

  energy without entropy =     -568.91513236  energy(sigma->0) =     -568.91513236


--------------------------------------------------------------------------------------------------------




--------------------------------------- Iteration      1(  13)  ---------------------------------------


    POTLOK:  cpu time      0.0125: real time      0.0131
    SETDIJ:  cpu time      0.0020: real time      0.0020
     EDDAV:  cpu time      4.5308: real time      4.5615
       DOS:  cpu time      0.0006: real time      0.0006
    CHARGE:  cpu time      0.0508: real time      0.0512
    MIXING:  cpu time      0.0008: real time      0.0007
    --------------------------------------------
      LOOP:  cpu time      4.5975: real time      4.6291

 eigenvalue-minimisations  :  3840
 total energy-change (2. order) :-0.8974235E-04  (-0.1455107E-03)
 number of electron     384.0000051 magnetization 
 augmentation part       28.1037102 magnetization 

 Broyden mixing:
  rms(total) = 0.13566E-01    rms(broyden)= 0.13565E-01
  rms(prec ) = 0.14402E-01
  weight for this iteration     100.00

 eigenvalues of (default mixing * dielectric matrix)
  average eigenvalue GAMMA=   2.3005
  5.0797  4.6875  2.1788  2.1632  1.1717  1.1717  0.8933  1.0585

 Free energy of the ion-electron system (eV)
  ---------------------------------------------------
  alpha Z        PSCENC =       561.29760740
  Ewald energy   TEWEN  =    -15179.19602506
  -Hartree energ DENC   =     -8534.29392073
  -exchange      EXHF   =         0.00000000
  -V(xc)+E(xc)   XCENC  =      1212.66299731
  PAW double counting   =     63153.72791534   -62845.52834195
  entropy T*S    EENTRO =        -0.00000000
  eigenvalues    EBANDS =     -2237.40862899
  atomic energy  EATOM  =     23299.82317458
  Solvation  Ediel_sol  =         0.00000000
  ---------------------------------------------------
  free energy    TOTEN  =      -568.91522210 eV

  energy without entropy =     -568.91522210  energy(sigma->0) =     -568.91522210


--------------------------------------------------------------------------------------------------------




--------------------------------------- Iteration      1(  14)  ---------------------------------------


    POTLOK:  cpu time      0.0125: real time      0.0129
    SETDIJ:  cpu time      0.0025: real time      0.0025
     EDDAV:  cpu time      4.4468: real time      4.4769
       DOS:  cpu time      0.0007: real time      0.0007
    CHARGE:  cpu time      0.0510: real time      0.0514
    MIXING:  cpu time      0.0008: real time      0.0008
    --------------------------------------------
      LOOP:  cpu time      4.5143: real time      4.5452

 eigenvalue-minimisations  :  3840
 total energy-change (2. order) :-0.1809507E-03  (-0.3914263E-04)
 number of electron     384.0000051 magnetization 
 augmentation part       28.1083378 magnetization 

 Broyden mixing:
  rms(total) = 0.10851E-01    rms(broyden)= 0.10850E-01
  rms(prec ) = 0.11537E-01
  weight for this iteration     100.00

 eigenvalues of (default mixing * dielectric matrix)
  average eigenvalue GAMMA=   2.3769
  5.3338  4.5747  2.5915  2.5915  1.9948  1.3649  1.0962  0.9225  0.9225

 Free energy of the ion-electron system (eV)
  ---------------------------------------------------
  alpha Z        PSCENC =       561.29760740
  Ewald energy   TEWEN  =    -15179.19602506
  -Hartree energ DENC   =     -8533.75734881
  -exchange      EXHF   =         0.00000000
  -V(xc)+E(xc)   XCENC  =      1212.62535820
  PAW double counting   =     63132.50269913   -62824.27992007
  entropy T*S    EENTRO =        -0.00000000
  eigenvalues    EBANDS =     -2237.93094842
  atomic energy  EATOM  =     23299.82317458
  Solvation  Ediel_sol  =         0.00000000
  ---------------------------------------------------
  free energy    TOTEN  =      -568.91540305 eV

  energy without entropy =     -568.91540305  energy(sigma->0) =     -568.91540305


--------------------------------------------------------------------------------------------------------




--------------------------------------- Iteration      1(  15)  ---------------------------------------


    POTLOK:  cpu time      0.0120: real time      0.0125
    SETDIJ:  cpu time      0.0020: real time      0.0020
     EDDAV:  cpu time      4.5515: real time      4.5826
       DOS:  cpu time      0.0005: real time      0.0004
    CHARGE:  cpu time      0.0521: real time      0.0525
    MIXING:  cpu time      0.0008: real time      0.0008
    --------------------------------------------
      LOOP:  cpu time      4.6189: real time      4.6508

 eigenvalue-minimisations  :  3840
 total energy-change (2. order) :-0.1538724E-03  (-0.1903331E-04)
 number of electron     384.0000051 magnetization 
 augmentation part       28.1054716 magnetization 

 Broyden mixing:
  rms(total) = 0.42269E-02    rms(broyden)= 0.42268E-02
  rms(prec ) = 0.44824E-02
  weight for this iteration     100.00

 eigenvalues of (default mixing * dielectric matrix)
  average eigenvalue GAMMA=   2.3887
  5.5722  4.9104  3.8071  2.1764  1.9057  1.5903  0.9666  0.9666  0.9958  0.9958

 Free energy of the ion-electron system (eV)
  ---------------------------------------------------
  alpha Z        PSCENC =       561.29760740
  Ewald energy   TEWEN  =    -15179.19602506
  -Hartree energ DENC   =     -8534.34476007
  -exchange      EXHF   =         0.00000000
  -V(xc)+E(xc)   XCENC  =      1212.66564685
  PAW double counting   =     63167.44147907   -62859.21016032
  entropy T*S    EENTRO =        -0.00000000
  eigenvalues    EBANDS =     -2237.39251937
  atomic energy  EATOM  =     23299.82317458
  Solvation  Ediel_sol  =         0.00000000
  ---------------------------------------------------
  free energy    TOTEN  =      -568.91555692 eV

  energy without entropy =     -568.91555692  energy(sigma->0) =     -568.91555692


--------------------------------------------------------------------------------------------------------




--------------------------------------- Iteration      1(  16)  ---------------------------------------


    POTLOK:  cpu time      0.0127: real time      0.0131
    SETDIJ:  cpu time      0.0020: real time      0.0020
     EDDAV:  cpu time      4.4332: real time      4.4642
       DOS:  cpu time      0.0009: real time      0.0009
    CHARGE:  cpu time      0.0517: real time      0.0526
    MIXING:  cpu time      0.0009: real time      0.0009
    --------------------------------------------
      LOOP:  cpu time      4.5014: real time      4.5338

 eigenvalue-minimisations  :  3840
 total energy-change (2. order) :-0.3871787E-04  (-0.5265354E-05)
 number of electron     384.0000051 magnetization 
 augmentation part       28.1050396 magnetization 

 Broyden mixing:
  rms(total) = 0.27658E-02    rms(broyden)= 0.27657E-02
  rms(prec ) = 0.28744E-02
  weight for this iteration     100.00

 eigenvalues of (default mixing * dielectric matrix)
  average eigenvalue GAMMA=   2.3247
  5.5772  4.9711  3.7069  2.2313  2.2313  2.0408  1.0816  1.0816  0.9307  0.8594
  0.8594

 Free energy of the ion-electron system (eV)
  ---------------------------------------------------
  alpha Z        PSCENC =       561.29760740
  Ewald energy   TEWEN  =    -15179.19602506
  -Hartree energ DENC   =     -8534.44337561
  -exchange      EXHF   =         0.00000000
  -V(xc)+E(xc)   XCENC  =      1212.67146855
  PAW double counting   =     63163.68270924   -62855.44537217
  entropy T*S    EENTRO =        -0.00000000
  eigenvalues    EBANDS =     -2237.30578258
  atomic energy  EATOM  =     23299.82317458
  Solvation  Ediel_sol  =         0.00000000
  ---------------------------------------------------
  free energy    TOTEN  =      -568.91559564 eV

  energy without entropy =     -568.91559564  energy(sigma->0) =     -568.91559564


--------------------------------------------------------------------------------------------------------




--------------------------------------- Iteration      1(  17)  ---------------------------------------


    POTLOK:  cpu time      0.0128: real time      0.0132
    SETDIJ:  cpu time      0.0019: real time      0.0019
     EDDAV:  cpu time      4.1279: real time      4.1560
       DOS:  cpu time      0.0005: real time      0.0005
    --------------------------------------------
      LOOP:  cpu time      4.1431: real time      4.1716

 eigenvalue-minimisations  :  3456
 total energy-change (2. order) :-0.5808746E-05  (-0.1522241E-05)
 number of electron     384.0000051 magnetization 
 augmentation part       28.1050396 magnetization 

 Free energy of the ion-electron system (eV)
  ---------------------------------------------------
  alpha Z        PSCENC =       561.29760740
  Ewald energy   TEWEN  =    -15179.19602506
  -Hartree energ DENC   =     -8534.41100241
  -exchange      EXHF   =         0.00000000
  -V(xc)+E(xc)   XCENC  =      1212.66895169
  PAW double counting   =     63171.22046428   -62862.98089121
  entropy T*S    EENTRO =        -0.00000000
  eigenvalues    EBANDS =     -2237.33788072
  atomic energy  EATOM  =     23299.82317458
  Solvation  Ediel_sol  =         0.00000000
  ---------------------------------------------------
  free energy    TOTEN  =      -568.91560145 eV

  energy without entropy =     -568.91560145  energy(sigma->0) =     -568.91560145


--------------------------------------------------------------------------------------------------------




 average (electrostatic) potential at core
  the test charge radii are     0.9892  0.9587  0.7215
  (the norm of the test charge is              1.0000)
       1 -86.2331       2 -86.5185       3 -86.1279       4 -86.5185       5 -86.1279
       6 -86.3312       7 -86.0814       8 -86.3118       9 -87.1040      10 -86.2362
      11 -86.2759      12 -86.3146      13 -87.1063      14 -86.2261      15 -86.3225
      16 -87.1040      17 -86.3118      18 -87.1063      19 -86.3146      20 -86.2759
      21 -86.2362      22 -86.3225      23 -86.2261      24 -90.4768      25 -72.2351
      26 -74.7441      27 -72.0976      28 -72.2950      29 -72.1002      30 -72.6503
      31 -72.0456      32 -72.2964      33 -74.7777      34 -72.1670      35 -72.6579
      36 -72.1036      37 -72.3478      38 -72.0702      39 -72.2997      40 -72.0429
      41 -72.5714      42 -72.5320      43 -72.4914      44 -72.2128      45 -72.3508
      46 -72.4877      47 -72.1639      48 -72.1581      49 -74.7441      50 -72.2351
      51 -72.6503      52 -72.1002      53 -72.2950      54 -72.0976      55 -72.2964
      56 -72.0456      57 -72.5320      58 -72.5714      59 -72.4877      60 -72.3508
      61 -72.2128      62 -72.4914      63 -72.1581      64 -72.1639      65 -72.1670
      66 -74.7777      67 -72.0702      68 -72.3478      69 -72.1036      70 -72.6579
      71 -72.0429      72 -72.2997
 
 
 
 E-fermi :   1.5504     XC(G=0):  -9.1813     alpha+bet :-10.2620

 Fermi energy:         1.5503648988

[...]
   -.410E+01 -.754E+01 -.188E+01   0.443E+01 0.106E+02 0.570E+01   -.344E+00 -.306E+01 -.381E+01   0.143E-04 0.167E-03 -.102E-02
   0.196E+00 -.658E+01 0.476E+01   0.487E+00 0.618E+01 -.512E+01   -.681E+00 0.400E+00 0.355E+00   -.121E-02 -.329E-03 -.158E-02
   0.320E+01 -.444E+01 -.225E+01   -.322E+01 0.415E+01 0.235E+01   0.163E-01 0.278E+00 -.122E+00   0.207E-03 0.122E-02 0.193E-03
   -.864E+00 -.477E+01 0.113E+00   0.145E+00 0.480E+01 -.102E+01   0.708E+00 -.182E-01 0.907E+00   -.314E-03 0.822E-03 0.697E-03
   -.124E+01 0.107E+01 -.314E+01   0.151E+01 -.120E+01 0.318E+01   -.250E+00 0.142E+00 -.360E-01   0.116E-02 -.165E-02 -.796E-03
   0.359E+01 0.285E+01 0.270E+01   -.241E+01 -.303E+01 -.307E+01   -.118E+01 0.181E+00 0.381E+00   0.104E-02 0.213E-02 -.471E-03
   -.218E+01 0.799E-08 -.297E-06   0.206E+01 -.213E-13 0.275E-13   0.122E+00 0.807E-18 0.934E-19   0.130E-02 0.336E-13 0.767E-13
   0.396E+02 0.560E+02 0.280E+02   -.473E+02 -.733E+02 -.396E+02   0.769E+01 0.173E+02 0.116E+02   -.419E-02 0.477E-02 -.215E-02
   0.780E+02 0.202E+02 0.807E+02   -.941E+02 -.296E+02 -.999E+02   0.161E+02 0.938E+01 0.192E+02   -.261E-02 -.214E-02 0.529E-03
   0.385E+02 0.608E+02 0.358E+02   -.458E+02 -.779E+02 -.478E+02   0.723E+01 0.170E+02 0.121E+02   0.236E-03 0.252E-02 -.155E-02
   0.417E+02 0.581E+02 0.361E+02   -.505E+02 -.746E+02 -.481E+02   0.872E+01 0.165E+02 0.119E+02   0.319E-02 -.472E-02 -.304E-02
   0.436E+02 0.608E+02 0.285E+02   -.524E+02 -.785E+02 -.397E+02   0.882E+01 0.177E+02 0.112E+02   -.395E-02 0.202E-02 -.378E-04
   0.377E+02 0.610E+02 0.341E+02   -.457E+02 -.776E+02 -.423E+02   0.805E+01 0.166E+02 0.821E+01   -.331E-02 0.265E-02 0.171E-02
   0.393E+02 0.555E+02 0.289E+02   -.473E+02 -.729E+02 -.401E+02   0.799E+01 0.174E+02 0.113E+02   0.176E-02 -.141E-02 0.269E-02
   0.390E+02 0.557E+02 0.338E+02   -.478E+02 -.732E+02 -.448E+02   0.888E+01 0.175E+02 0.110E+02   0.482E-02 -.222E-02 -.149E-03
   -.109E+03 -.454E+02 -.199E+01   0.134E+03 0.557E+02 -.165E+01   -.256E+02 -.103E+02 0.365E+01   -.445E-03 0.451E-02 0.242E-02
   -.694E+02 0.175E+01 0.371E+02   0.881E+02 -.402E+00 -.490E+02   -.187E+02 -.137E+01 0.119E+02   0.224E-02 0.529E-02 0.336E-02
   -.621E+02 0.188E+02 0.256E+02   0.800E+02 -.186E+02 -.378E+02   -.179E+02 -.239E+00 0.122E+02   -.628E-03 -.383E-02 0.364E-02
   -.739E+02 0.126E+02 0.339E+02   0.932E+02 -.122E+02 -.450E+02   -.193E+02 -.510E+00 0.111E+02   0.152E-02 0.245E-02 -.183E-03
   -.738E+02 0.950E+01 0.324E+02   0.938E+02 -.814E+01 -.437E+02   -.199E+02 -.134E+01 0.113E+02   -.121E-02 -.141E-02 0.147E-02
   -.681E+02 0.872E+01 0.340E+02   0.860E+02 -.707E+01 -.453E+02   -.179E+02 -.166E+01 0.113E+02   0.133E-02 0.531E-02 0.973E-03
   -.645E+02 0.189E+01 0.324E+02   0.835E+02 -.382E+00 -.439E+02   -.190E+02 -.153E+01 0.114E+02   -.179E-02 -.340E-02 -.378E-02
   -.685E+02 0.102E+01 0.354E+02   0.875E+02 0.302E-02 -.475E+02   -.190E+02 -.102E+01 0.121E+02   0.506E-03 -.369E-02 -.621E-02
   0.292E+02 -.736E+02 0.225E+02   -.421E+02 0.883E+02 -.337E+02   0.129E+02 -.147E+02 0.112E+02   -.333E-02 -.179E-02 0.363E-02
   0.290E+02 -.671E+02 0.402E+02   -.373E+02 0.812E+02 -.522E+02   0.829E+01 -.141E+02 0.121E+02   0.396E-02 0.209E-02 -.552E-02
   0.335E+02 -.600E+02 0.254E+02   -.459E+02 0.773E+02 -.355E+02   0.124E+02 -.173E+02 0.102E+02   -.386E-02 0.103E-03 0.434E-02
   0.325E+02 -.593E+02 0.393E+02   -.434E+02 0.752E+02 -.504E+02   0.110E+02 -.159E+02 0.112E+02   0.493E-02 0.113E-02 -.773E-02
   0.251E+02 -.559E+02 0.258E+02   -.358E+02 0.713E+02 -.373E+02   0.107E+02 -.154E+02 0.116E+02   -.132E-02 -.128E-02 0.662E-02
   0.233E+02 -.579E+02 0.377E+02   -.312E+02 0.756E+02 -.491E+02   0.790E+01 -.177E+02 0.114E+02   0.416E-02 0.176E-02 -.657E-02
   0.315E+02 -.697E+02 0.296E+02   -.423E+02 0.857E+02 -.413E+02   0.109E+02 -.160E+02 0.117E+02   -.713E-02 -.180E-02 0.565E-02
   0.282E+02 -.704E+02 0.372E+02   -.385E+02 0.866E+02 -.485E+02   0.104E+02 -.162E+02 0.112E+02   0.394E-02 -.335E-03 -.656E-02
   0.780E+02 -.202E+02 -.807E+02   -.941E+02 0.296E+02 0.999E+02   0.161E+02 -.938E+01 -.192E+02   -.261E-02 0.214E-02 -.529E-03
   0.396E+02 -.560E+02 -.280E+02   -.473E+02 0.733E+02 0.396E+02   0.769E+01 -.173E+02 -.116E+02   -.419E-02 -.477E-02 0.215E-02
   0.377E+02 -.610E+02 -.341E+02   -.457E+02 0.776E+02 0.423E+02   0.805E+01 -.166E+02 -.821E+01   -.331E-02 -.265E-02 -.171E-02
   0.436E+02 -.608E+02 -.285E+02   -.524E+02 0.785E+02 0.397E+02   0.882E+01 -.177E+02 -.112E+02   -.395E-02 -.202E-02 0.378E-04
   0.417E+02 -.581E+02 -.361E+02   -.505E+02 0.746E+02 0.481E+02   0.872E+01 -.165E+02 -.119E+02   0.319E-02 0.472E-02 0.304E-02
   0.385E+02 -.608E+02 -.358E+02   -.458E+02 0.779E+02 0.478E+02   0.723E+01 -.170E+02 -.121E+02   0.236E-03 -.252E-02 0.155E-02
   0.390E+02 -.557E+02 -.338E+02   -.478E+02 0.732E+02 0.448E+02   0.888E+01 -.175E+02 -.110E+02   0.482E-02 0.222E-02 0.149E-03
   0.393E+02 -.555E+02 -.289E+02   -.473E+02 0.729E+02 0.401E+02   0.799E+01 -.174E+02 -.113E+02   0.176E-02 0.141E-02 -.269E-02
   0.290E+02 0.671E+02 -.402E+02   -.373E+02 -.812E+02 0.522E+02   0.829E+01 0.141E+02 -.121E+02   0.396E-02 -.209E-02 0.552E-02
   0.292E+02 0.736E+02 -.225E+02   -.421E+02 -.883E+02 0.337E+02   0.129E+02 0.147E+02 -.112E+02   -.333E-02 0.179E-02 -.363E-02
   0.233E+02 0.579E+02 -.377E+02   -.312E+02 -.756E+02 0.491E+02   0.790E+01 0.177E+02 -.114E+02   0.416E-02 -.176E-02 0.657E-02
   0.251E+02 0.559E+02 -.258E+02   -.358E+02 -.713E+02 0.373E+02   0.107E+02 0.154E+02 -.116E+02   -.132E-02 0.128E-02 -.662E-02
   0.325E+02 0.593E+02 -.393E+02   -.434E+02 -.752E+02 0.504E+02   0.110E+02 0.159E+02 -.112E+02   0.493E-02 -.113E-02 0.773E-02
   0.335E+02 0.600E+02 -.254E+02   -.459E+02 -.773E+02 0.355E+02   0.124E+02 0.173E+02 -.102E+02   -.386E-02 -.103E-03 -.434E-02
   0.282E+02 0.704E+02 -.372E+02   -.385E+02 -.866E+02 0.485E+02   0.104E+02 0.162E+02 -.112E+02   0.394E-02 0.335E-03 0.656E-02
   0.315E+02 0.697E+02 -.296E+02   -.423E+02 -.857E+02 0.413E+02   0.109E+02 0.160E+02 -.117E+02   -.713E-02 0.180E-02 -.565E-02
   -.694E+02 -.175E+01 -.371E+02   0.881E+02 0.402E+00 0.490E+02   -.187E+02 0.137E+01 -.119E+02   0.224E-02 -.529E-02 -.336E-02
   -.109E+03 0.454E+02 0.199E+01   0.134E+03 -.557E+02 0.165E+01   -.256E+02 0.103E+02 -.365E+01   -.445E-03 -.451E-02 -.242E-02
   -.681E+02 -.872E+01 -.340E+02   0.860E+02 0.707E+01 0.453E+02   -.179E+02 0.166E+01 -.113E+02   0.133E-02 -.531E-02 -.973E-03
   -.738E+02 -.950E+01 -.324E+02   0.938E+02 0.814E+01 0.437E+02   -.199E+02 0.134E+01 -.113E+02   -.121E-02 0.141E-02 -.147E-02
   -.739E+02 -.126E+02 -.339E+02   0.932E+02 0.122E+02 0.450E+02   -.193E+02 0.510E+00 -.111E+02   0.152E-02 -.245E-02 0.183E-03
   -.621E+02 -.188E+02 -.256E+02   0.800E+02 0.186E+02 0.378E+02   -.179E+02 0.239E+00 -.122E+02   -.628E-03 0.383E-02 -.364E-02
   -.685E+02 -.102E+01 -.354E+02   0.875E+02 -.302E-02 0.475E+02   -.190E+02 0.102E+01 -.121E+02   0.506E-03 0.369E-02 0.621E-02
   -.645E+02 -.189E+01 -.324E+02   0.835E+02 0.382E+00 0.439E+02   -.190E+02 0.153E+01 -.114E+02   -.179E-02 0.340E-02 0.378E-02
 -----------------------------------------------------------------------------------------------
   -.337E+01 -.911E-06 0.381E-05   0.142E-12 0.145E-12 -.227E-12   0.337E+01 0.144E-13 0.586E-13   -.301E-02 0.539E-11 -.271E-11
 
 
 POSITION                                       TOTAL-FORCE (eV/Angst)
 -----------------------------------------------------------------------------------
      2.63001     -0.00000      5.43130        -0.003461     -0.000000     -0.000000
      5.07810      4.23698     -0.03360         0.003114     -0.001325     -0.012110
      5.08044      4.25603      5.42517         0.006641     -0.011616     -0.009957
      5.07810     -4.23698      0.03360         0.003114      0.001325      0.012110
      5.08044     -4.25603      5.43743         0.006641      0.011616      0.009957
      7.54811      0.00000     -0.00000         0.018066      0.000000     -0.000000
      7.54299     -0.00000      5.43130         0.021140     -0.000000     -0.000000
      1.12900      1.97660      3.63432        -0.008672     -0.016308      0.006718
      1.13539      2.01766      9.05596        -0.009087      0.013213     -0.005870
      3.62086      6.26050      3.62262        -0.011030     -0.012527     -0.005530
      3.59636      6.24278      9.04657        -0.002097      0.008844      0.023146
      3.62534     -2.26947      3.62843         0.000814      0.006000      0.004148
      3.58594     -2.25844      9.03423        -0.012497      0.011173      0.001357
      6.05961      1.96608      3.61239         0.005977     -0.001405     -0.005270
      6.08013      1.97525      9.04387         0.021380     -0.013240      0.000839
      1.13539     -2.01766      1.80664        -0.009087     -0.013213      0.005870
      1.12900     -1.97660      7.22828        -0.008672      0.016308     -0.006718
      3.58594      2.25844      1.82837        -0.012497     -0.011173     -0.001357
      3.62534      2.26947      7.23417         0.000814     -0.006000     -0.004148
      3.59636     -6.24278      1.81603        -0.002097     -0.008844     -0.023146
      3.62086     -6.26050      7.23998        -0.011030      0.012527      0.005530
      6.08013     -1.97525      1.81873         0.021380      0.013240     -0.000839
      6.05961     -1.96608      7.25022         0.005977      0.001405      0.005270
      2.58869     -0.00000     -0.00000        -0.004523      0.000000     -0.000000
      1.68982      0.57447      4.22948        -0.013129      0.007731      0.016153
      1.69151      0.58890      9.75511        -0.002281      0.012707      0.006516
      4.17323      4.85268      4.21004        -0.007172     -0.001809     -0.000069
      4.13818      4.83316      9.64969        -0.002105      0.017971     -0.010774
      4.13104     -3.68229      4.24291        -0.026557     -0.003613      0.012352
      4.12169     -3.60463      9.73374        -0.019566      0.004976      0.015378
      6.60271      0.57119      4.23114        -0.003239     -0.019269      0.013639
      6.59455      0.56975      9.67035         0.025928      0.009587      0.022846
      3.49719      1.07878      0.61285        -0.027494      0.004366      0.018074
      3.57683      1.17067      6.03805        -0.007655     -0.011005      0.013340
      6.00754      5.41238      0.60929        -0.004110     -0.024257      0.017404
      6.03342      5.41491      6.05221         0.026991     -0.014844      0.006945
      6.04914     -3.08860      0.62868         0.004966      0.013776      0.021425
      5.99772     -3.07208      6.06106         0.015242      0.007168     -0.003258
      8.49841      1.16966      0.61219        -0.012081     -0.019079     -0.001989
      8.49982      1.16157      6.04078         0.013790      0.000605     -0.012005
      2.09998      2.46992      2.40869         0.003143      0.009380     -0.003359
      2.14528      2.46677      7.88608        -0.005377      0.004321      0.017128
      4.59221      6.80719      2.41734         0.020373      0.017181      0.026572
      4.56612      6.77445      7.85027        -0.001468     -0.007806      0.009280
      4.59038     -1.74790      2.42528         0.011595      0.011077      0.019320
      4.58318     -1.69379      7.89980         0.002775     -0.002024      0.000585
      7.02240      2.50613      2.41657         0.004445     -0.000285      0.009386
      7.06045      2.50107      7.86127        -0.007169      0.003553     -0.014747
      1.69151     -0.58890      1.10749        -0.002281     -0.012707     -0.006516
      1.68982     -0.57447      6.63312        -0.013129     -0.007731     -0.016153
      4.12169      3.60463      1.12886        -0.019566     -0.004976     -0.015378
      4.13104      3.68229      6.61970        -0.026557      0.003613     -0.012352
      4.13818     -4.83316      1.21292        -0.002105     -0.017971      0.010774
      4.17323     -4.85268      6.65256        -0.007172      0.001809      0.000069
      6.59455     -0.56975      1.19225         0.025928     -0.009587     -0.022846
      6.60271     -0.57119      6.63147        -0.003239      0.019269     -0.013639
      2.14528     -2.46677      2.97653        -0.005377     -0.004321     -0.017128
      2.09998     -2.46992      8.45392         0.003143     -0.009380      0.003359
      4.58318      1.69379      2.96280         0.002775      0.002024     -0.000585
      4.59038      1.74790      8.43732         0.011595     -0.011077     -0.019320
      4.56612     -6.77445      3.01234        -0.001468      0.007806     -0.009280
      4.59221     -6.80719      8.44526         0.020373     -0.017181     -0.026572
      7.06045     -2.50107      3.00133        -0.007169     -0.003553      0.014747
      7.02240     -2.50613      8.44603         0.004445      0.000285     -0.009386
      3.57683     -1.17067      4.82455        -0.007655      0.011005     -0.013340
      3.49719     -1.07878     10.24976        -0.027494     -0.004366     -0.018074
      5.99772      3.07208      4.80154         0.015242     -0.007168      0.003258
      6.04914      3.08860     10.23393         0.004966     -0.013776     -0.021425
      6.03342     -5.41491      4.81039         0.026991      0.014844     -0.006945
      6.00754     -5.41238     10.25331        -0.004110      0.024257     -0.017404
      8.49982     -1.16157      4.82183         0.013790     -0.000605      0.012005
      8.49841     -1.16966     10.25041        -0.012081      0.019079      0.001989
 -----------------------------------------------------------------------------------
    total drift:                                0.002834     -0.000001      0.000004


--------------------------------------------------------------------------------------------------------



  FREE ENERGIE OF THE ION-ELECTRON SYSTEM (eV)
  ---------------------------------------------------
  free  energy   TOTEN  =      -570.08055130 eV

  energy  without entropy=     -570.08055130  energy(sigma->0) =     -570.08055130
 
 d Force = 0.9924643E-03[ 0.621E-03, 0.136E-02]  d Energy = 0.9998902E-03-0.743E-05
 d Force = 0.4831688E+00[ 0.483E+00, 0.484E+00]  d Ewald  = 0.4831677E+00 0.103E-05


--------------------------------------------------------------------------------------------------------


    POTLOK:  cpu time      0.0138: real time      0.0148


--------------------------------------------------------------------------------------------------------


 stress matrix after NEB project (eV)
      2.82565      0.00000     -0.00000
      0.00000      0.28588      0.18587
     -0.00000      0.18587      0.45833
  FORCES: max atom, RMS     0.037633    0.021264
  FORCE total and by dimension    0.180430    0.027494
  Stress total and by dimension    2.888805    2.825651
 Conjugate gradient step on ions:
 trial-energy change:   -0.001000  1 .order   -0.000992   -0.001364   -0.000621
  (g-gl).g = 0.419E-02      g.g   = 0.437E-02  gl.gl    = 0.752E-02
 g(Force)  = 0.437E-02   g(Stress)= 0.000E+00 ortho     = 0.198E-03
 gamma     =   0.55659
 trial     =   0.30443
 opt step  =   0.55899  (harmonic =   0.55899) maximal distance =0.00246506
 next E    =  -570.080804   (d E  =  -0.00125)


--------------------------------------------------------------------------------------------------------


  
 reached required accuracy - stopping structural energy minimisation
     LOOP+:  cpu time     25.6836: real time     25.8792
    4ORBIT:  cpu time      0.0000: real time      0.0000



 total charge

# of ion       s       p       d       tot
------------------------------------------
    1        0.641   0.980   0.000   1.621
    2        0.640   0.980   0.000   1.620
    3        0.640   0.979   0.000   1.619
    4        0.640   0.980   0.000   1.620
    5        0.640   0.979   0.000   1.619
    6        0.641   0.979   0.000   1.620
    7        0.641   0.982   0.000   1.623
    8        0.640   0.980   0.000   1.620
    9        0.637   0.971   0.000   1.608
   10        0.641   0.982   0.000   1.623
   11        0.641   0.979   0.000   1.620
   12        0.640   0.980   0.000   1.620
   13        0.637   0.970   0.000   1.607
   14        0.640   0.978   0.000   1.618
   15        0.642   0.985   0.000   1.627
   16        0.637   0.971   0.000   1.608
   17        0.640   0.980   0.000   1.620
   18        0.637   0.970   0.000   1.607
   19        0.640   0.980   0.000   1.620
   20        0.641   0.979   0.000   1.620
   21        0.641   0.982   0.000   1.623
   22        0.642   0.985   0.000   1.627
   23        0.640   0.978   0.000   1.618
   24        0.886   1.476   0.000   2.362
   25        1.548   3.683   0.000   5.231
   26        1.549   3.693   0.000   5.242
   27        1.548   3.684   0.000   5.232
   28        1.548   3.687   0.000   5.234
   29        1.548   3.683   0.000   5.230
   30        1.546   3.691   0.000   5.237
   31        1.548   3.686   0.000   5.234
   32        1.548   3.684   0.000   5.232
   33        1.550   3.690   0.000   5.240
   34        1.548   3.686   0.000   5.234
   35        1.547   3.688   0.000   5.235
   36        1.547   3.683   0.000   5.231
   37        1.549   3.686   0.000   5.235
   38        1.547   3.688   0.000   5.235
   39        1.547   3.681   0.000   5.229
   40        1.548   3.687   0.000   5.236
   41        1.548   3.685   0.000   5.233
   42        1.546   3.693   0.000   5.240
   43        1.548   3.680   0.000   5.228
   44        1.548   3.685   0.000   5.233
   45        1.548   3.685   0.000   5.233
   46        1.547   3.684   0.000   5.231
   47        1.548   3.685   0.000   5.233
   48        1.548   3.688   0.000   5.237
   49        1.549   3.693   0.000   5.242
   50        1.548   3.683   0.000   5.231
   51        1.546   3.691   0.000   5.237
   52        1.548   3.683   0.000   5.230
   53        1.548   3.687   0.000   5.234
   54        1.548   3.684   0.000   5.232
   55        1.548   3.684   0.000   5.232
   56        1.548   3.686   0.000   5.234
   57        1.546   3.693   0.000   5.240
   58        1.548   3.685   0.000   5.233
   59        1.547   3.684   0.000   5.231
   60        1.548   3.685   0.000   5.233
   61        1.548   3.685   0.000   5.233
   62        1.548   3.680   0.000   5.228
   63        1.548   3.688   0.000   5.237
   64        1.548   3.685   0.000   5.233
   65        1.548   3.686   0.000   5.234
   66        1.550   3.690   0.000   5.240
   67        1.547   3.688   0.000   5.235
   68        1.549   3.686   0.000   5.235
   69        1.547   3.683   0.000   5.231
   70        1.547   3.688   0.000   5.235
   71        1.548   3.687   0.000   5.236
   72        1.547   3.681   0.000   5.229
--------------------------------------------------
tot         89.896 200.920   0.000 290.815
 

 total amount of memory used by VASP MPI-rank0   114071. kBytes
=======================================================================

   base      :      30000. kBytes
   nonl-proj :      61636. kBytes
   fftplans  :       1787. kBytes
   grid      :       9934. kBytes
   one-center:        221. kBytes
   wavefun   :      10493. kBytes
 
  
  
 General timing and accounting informations for this job:
 ========================================================
  
                  Total CPU time used (sec):      952.424
                            User time (sec):      948.423
                          System time (sec):        4.000
                         Elapsed time (sec):      962.199
  
                   Maximum memory used (kb):      349392.
                   Average memory used (kb):          N/A
  
                          Minor page faults:       523337
                          Major page faults:          158
                 Voluntary context switches:         5643
