 vasp.5.4.4.18Apr17-6-g9f103f2a35 (build Jun 19 2019 10:34:07) complex          
  
 executed on               LB-5.4 date 2023.05.19  11:15:26
 running on   96 total cores
 distrk:  each k-point on   24 cores,    4 groups
 distr:  one band on NCORES_PER_BAND=   1 cores,   24 groups


--------------------------------------------------------------------------------------------------------


 INCAR:
 POTCAR:    PAW_PBE Si 05Jan2001                  
 POTCAR:    PAW_PBE B 06Sep2000                   
 POTCAR:    PAW_PBE P 06Sep2000                   

 ----------------------------------------------------------------------------- 
|                                                                             |
|           W    W    AA    RRRRR   N    N  II  N    N   GGGG   !!!           |
|           W    W   A  A   R    R  NN   N  II  NN   N  G    G  !!!           |
|           W    W  A    A  R    R  N N  N  II  N N  N  G       !!!           |
|           W WW W  AAAAAA  RRRRR   N  N N  II  N  N N  G  GGG   !            |
|           WW  WW  A    A  R   R   N   NN  II  N   NN  G    G                |
|           W    W  A    A  R    R  N    N  II  N    N   GGGG   !!!           |
|                                                                             |
|      For optimal performance we recommend to set                            |
|        NCORE= 4 - approx SQRT( number of cores)                             |
|      NCORE specifies how many cores store one orbital (NPAR=cpu/NCORE).     |
|      This setting can  greatly improve the performance of VASP for DFT.     |
|      The default,   NCORE=1            might be grossly inefficient         |
|      on modern multi-core architectures or massively parallel machines.     |
|      Do your own testing !!!!                                               |
|      Unfortunately you need to use the default for GW and RPA calculations. |
|      (for HF NCORE is supported but not extensively tested yet)             |
|                                                                             |
 ----------------------------------------------------------------------------- 


 ----------------------------------------------------------------------------- 
|                                                                             |
|           W    W    AA    RRRRR   N    N  II  N    N   GGGG   !!!           |
|           W    W   A  A   R    R  NN   N  II  NN   N  G    G  !!!           |
|           W    W  A    A  R    R  N N  N  II  N N  N  G       !!!           |
|           W WW W  AAAAAA  RRRRR   N  N N  II  N  N N  G  GGG   !            |
|           WW  WW  A    A  R   R   N   NN  II  N   NN  G    G                |
|           W    W  A    A  R    R  N    N  II  N    N   GGGG   !!!           |
|                                                                             |
|      You have enabled k-point parallelism (KPAR>1).                         |
|      This developmental code was originally  written by Paul Kent at ORNL,  |
|      and carefully double checked in Vienna.                                |
|      GW as well as linear response parallelism added by Martijn Marsman     |
|      and Georg Kresse.                                                      |
|      Carefully verify results versus KPAR=1.                                |
|      Report problems to Paul Kent and Vienna.                               |
|                                                                             |
 ----------------------------------------------------------------------------- 

 POTCAR:    PAW_PBE Si 05Jan2001                  
   VRHFIN =Si: s2p2                                                             
   LEXCH  = PE                                                                  
   EATOM  =   103.0669 eV,    7.5752 Ry                                         
                                                                                
   TITEL  = PAW_PBE Si 05Jan2001                                                
   LULTRA =        F    use ultrasoft PP ?                                      
   IUNSCR =        1    unscreen: 0-lin 1-nonlin 2-no                           
   RPACOR =    1.500    partial core radius                                     
   POMASS =   28.085; ZVAL   =    4.000    mass and valenz                      
   RCORE  =    1.900    outmost cutoff radius                                   
   RWIGS  =    2.480; RWIGS  =    1.312    wigner-seitz radius (au A)           
   ENMAX  =  245.345; ENMIN  =  184.009 eV                                      
   ICORE  =        2    local potential                                         
   LCOR   =        T    correct aug charges                                     
   LPAW   =        T    paw PP                                                  
   EAUG   =  322.069                                                            
   DEXC   =    0.000                                                            
   RMAX   =    1.950    core radius for proj-oper                               
   RAUG   =    1.300    factor for augmentation sphere                          
   RDEP   =    1.993    radius for radial grids                                 
   RDEPT  =    1.837    core radius for aug-charge                              
                                                                                
   Atomic configuration                                                         
    6 entries                                                                   
     n  l   j            E        occ.                                          
     1  0  0.50     -1785.8828   2.0000                                         
     2  0  0.50      -139.4969   2.0000                                         
     2  1  1.50       -95.5546   6.0000                                         
     3  0  0.50       -10.8127   2.0000                                         
     3  1  0.50        -4.0811   2.0000                                         
     3  2  1.50        -4.0817   0.0000                                         
   Description                                                                  
     l       E           TYP  RCUT    TYP  RCUT                                 
     0    -10.8127223     23  1.900                                             
     0     -7.6451159     23  1.900                                             
     1     -4.0811372     23  1.900                                             
     1      2.4879257     23  1.900                                             
     2     -4.0817478      7  1.900                                             
  local pseudopotential read in
  partial core-charges read in
  partial kinetic energy density read in
  atomic valenz-charges read in
  non local Contribution for L=           0  read in
    real space projection operators read in
  non local Contribution for L=           0  read in
    real space projection operators read in
  non local Contribution for L=           1  read in
    real space projection operators read in
  non local Contribution for L=           1  read in
    real space projection operators read in
    PAW grid and wavefunctions read in
 
   number of l-projection  operators is LMAX  =           4
   number of lm-projection operators is LMMAX =           8
 
 POTCAR:    PAW_PBE B 06Sep2000                   
   VRHFIN =B: s2p1                                                              
   LEXCH  = PE                                                                  
   EATOM  =    71.1703 eV,    5.2309 Ry                                         
                                                                                
   TITEL  = PAW_PBE B 06Sep2000                                                 
   LULTRA =        F    use ultrasoft PP ?                                      
   IUNSCR =        1    unscreen: 0-lin 1-nonlin 2-no                           
   RPACOR =    1.200    partial core radius                                     
   POMASS =   10.811; ZVAL   =    3.000    mass and valenz                      
   RCORE  =    1.700    outmost cutoff radius                                   
   RWIGS  =    1.710; RWIGS  =    0.905    wigner-seitz radius (au A)           
   ENMAX  =  318.614; ENMIN  =  238.960 eV                                      
   ICORE  =        2    local potential                                         
   LCOR   =        T    correct aug charges                                     
   LPAW   =        T    paw PP                                                  
   EAUG   =  535.514                                                            
   DEXC   =    0.000                                                            
   RMAX   =    1.732    core radius for proj-oper                               
   RAUG   =    1.300    factor for augmentation sphere                          
   RDEP   =    1.757    radius for radial grids                                 
   RDEPT  =    1.436    core radius for aug-charge                              
                                                                                
   Atomic configuration                                                         
    4 entries                                                                   
     n  l   j            E        occ.                                          
     1  0  0.50      -180.5896   2.0000                                         
     2  0  0.50        -9.4431   2.0000                                         
     2  1  0.50        -3.6068   1.0000                                         
     3  2  1.50        -4.0817   0.0000                                         
   Description                                                                  
     l       E           TYP  RCUT    TYP  RCUT                                 
     0     -9.4430752     23  1.500                                             
     0      0.8675899     23  1.500                                             
     1     -3.6067955     23  1.700                                             
     1      6.1086146     23  1.700                                             
     2     -4.0817478      7  1.700                                             
  local pseudopotential read in
  partial core-charges read in
  partial kinetic energy density read in
  atomic valenz-charges read in
  non local Contribution for L=           0  read in
    real space projection operators read in
  non local Contribution for L=           0  read in
    real space projection operators read in
  non local Contribution for L=           1  read in
    real space projection operators read in
  non local Contribution for L=           1  read in
    real space projection operators read in
    PAW grid and wavefunctions read in
 
   number of l-projection  operators is LMAX  =           4
   number of lm-projection operators is LMMAX =           8
 
 POTCAR:    PAW_PBE P 06Sep2000                   
   VRHFIN =P : s2p3                                                             
   LEXCH  = PE                                                                  
   EATOM  =   176.0430 eV,   12.9388 Ry                                         
                                                                                
   TITEL  = PAW_PBE P 06Sep2000                                                 
   LULTRA =        F    use ultrasoft PP ?                                      
   IUNSCR =        1    unscreen: 0-lin 1-nonlin 2-no                           
   RPACOR =    1.500    partial core radius                                     
   POMASS =   30.974; ZVAL   =    5.000    mass and valenz                      
   RCORE  =    1.900    outmost cutoff radius                                   
   RWIGS  =    2.330; RWIGS  =    1.233    wigner-seitz radius (au A)           
   ENMAX  =  255.040; ENMIN  =  191.280 eV                                      
   ICORE  =        2    local potential                                         
   LCOR   =        T    correct aug charges                                     
   LPAW   =        T    paw PP                                                  
   EAUG   =  342.924                                                            
   DEXC   =    0.000                                                            
   RMAX   =    1.935    core radius for proj-oper                               
   RAUG   =    1.300    factor for augmentation sphere                          
   RDEP   =    1.931    radius for radial grids                                 
   RDEPT  =    1.794    core radius for aug-charge                              
                                                                                
   Atomic configuration                                                         
    6 entries                                                                   
     n  l   j            E        occ.                                          
     1  0  0.50     -2084.0982   2.0000                                         
     2  0  0.50      -173.9859   2.0000                                         
     2  1  1.50      -124.4865   6.0000                                         
     3  0  0.50       -13.9692   2.0000                                         
     3  1  0.50        -5.5067   3.0000                                         
     3  2  1.50        -5.4423   0.0000                                         
   Description                                                                  
     l       E           TYP  RCUT    TYP  RCUT                                 
     0    -13.9691527     23  1.900                                             
     0    -11.7794650     23  1.900                                             
     1     -5.5066937     23  1.900                                             
     1     -0.2556953     23  1.900                                             
     2     -5.4423304     23  1.900                                             
  local pseudopotential read in
  partial core-charges read in
  partial kinetic energy density read in
  atomic valenz-charges read in
  non local Contribution for L=           0  read in
    real space projection operators read in
  non local Contribution for L=           0  read in
    real space projection operators read in
  non local Contribution for L=           1  read in
    real space projection operators read in
  non local Contribution for L=           1  read in
    real space projection operators read in
    PAW grid and wavefunctions read in
 
   number of l-projection  operators is LMAX  =           4
   number of lm-projection operators is LMMAX =           8
 

 ----------------------------------------------------------------------------- 
|                                                                             |
|  ADVICE TO THIS USER RUNNING 'VASP/VAMP'   (HEAR YOUR MASTER'S VOICE ...):  |
|                                                                             |
|      You have a (more or less) 'large supercell' and for larger cells       |
|      it might be more efficient to use real space projection opertators     |
|      So try LREAL= Auto  in the INCAR   file.                               |
|      Mind:          For very  accurate calculation you might also keep the  |
|      reciprocal projection scheme          (i.e. LREAL=.FALSE.)             |
|                                                                             |
 ----------------------------------------------------------------------------- 

  PAW_PBE Si 05Jan2001                  :
 energy of atom  1       EATOM= -103.0669
 kinetic energy error for atom=    0.0004 (will be added to EATOM!!)
  PAW_PBE B 06Sep2000                   :
 energy of atom  2       EATOM=  -71.1703
 kinetic energy error for atom=    0.0009 (will be added to EATOM!!)
  PAW_PBE P 06Sep2000                   :
 energy of atom  3       EATOM= -176.0430
 kinetic energy error for atom=    0.0008 (will be added to EATOM!!)
 
 
 POSCAR: Si52 B1 P1                              
  positions in direct lattice
  velocities in cartesian coordinates
 exchange correlation table for  LEXCH =        8
   RHO(1)=    0.500       N(1)  =     2000
   RHO(2)=  100.500       N(2)  =     4000
 


--------------------------------------------------------------------------------------------------------


 ion  position               nearest neighbor table
   1  0.292  0.292  0.625-  32 2.35  53 2.35  40 2.35  38 2.35
   2  0.292  0.292  0.958-  30 2.35  39 2.35  40 2.35  36 2.35
   3  0.292  0.625  0.292-  34 2.35  41 2.35  42 2.35  53 2.35
   4  0.292  0.625  0.625-  35 2.35  42 2.35  43 2.35  40 2.35
   5  0.292  0.625  0.958-  33 2.35  41 2.35  43 2.35  39 2.35
   6  0.292  0.958  0.292-  28 2.35  36 2.35  37 2.35  42 2.35
   7  0.292  0.958  0.625-  29 2.35  37 2.35  38 2.35  43 2.35
   8  0.292  0.958  0.958-  27 2.35  36 2.35  38 2.35  41 2.35
   9  0.625  0.292  0.292-  53 2.35  47 2.35  48 2.35  45 2.35
  10  0.625  0.292  0.625-  40 2.35  48 2.35  49 2.35  46 2.35
  11  0.625  0.292  0.958-  39 2.35  47 2.35  49 2.35  44 2.35
  12  0.625  0.625  0.292-  42 2.35  50 2.35  51 2.35  48 2.35
  13  0.625  0.625  0.625-  43 2.35  51 2.35  52 2.35  49 2.35
  14  0.625  0.625  0.958-  41 2.35  50 2.35  52 2.35  47 2.35
  15  0.625  0.958  0.292-  37 2.35  44 2.35  45 2.35  51 2.35
  16  0.625  0.958  0.625-  38 2.35  45 2.35  46 2.35  52 2.35
  17  0.625  0.958  0.958-  36 2.35  44 2.35  46 2.35  50 2.35
  18  0.958  0.292  0.292-  48 2.35  31 2.35  30 2.35  28 2.35
  19  0.958  0.292  0.625-  49 2.35  32 2.35  31 2.35  29 2.35
  20  0.958  0.292  0.958-  47 2.35  30 2.35  32 2.35  27 2.35
  21  0.958  0.625  0.292-  51 2.35  34 2.35  33 2.35  31 2.35
  22  0.958  0.625  0.625-  52 2.35  35 2.35  34 2.35  32 2.35
  23  0.958  0.625  0.958-  50 2.35  33 2.35  35 2.35  30 2.35
  24  0.958  0.958  0.292-  45 2.35  28 2.35  27 2.35  34 2.35
  25  0.958  0.958  0.625-  46 2.35  29 2.35  28 2.35  35 2.35
  26  0.958  0.958  0.958-  44 2.35  27 2.35  29 2.35  33 2.35
  27  0.042  0.042  0.042-   8 2.35  26 2.35  24 2.35  20 2.35
  28  0.042  0.042  0.375-   6 2.35  24 2.35  25 2.35  18 2.35
  29  0.042  0.042  0.708-   7 2.35  25 2.35  26 2.35  19 2.35
  30  0.042  0.375  0.042-   2 2.35  20 2.35  18 2.35  23 2.35
  31  0.042  0.375  0.375-  54 2.35  19 2.35  18 2.35  21 2.35
  32  0.042  0.375  0.708-   1 2.35  19 2.35  20 2.35  22 2.35
  33  0.042  0.708  0.042-   5 2.35  23 2.35  21 2.35  26 2.35
  34  0.042  0.708  0.375-   3 2.35  21 2.35  22 2.35  24 2.35
  35  0.042  0.708  0.708-   4 2.35  22 2.35  23 2.35  25 2.35
  36  0.375  0.042  0.042-  17 2.35   8 2.35   6 2.35   2 2.35
  37  0.375  0.042  0.375-  15 2.35   7 2.35   6 2.35  54 2.35
  38  0.375  0.042  0.708-  16 2.35   8 2.35   7 2.35   1 2.35
  39  0.375  0.375  0.042-  11 2.35   2 2.35  54 2.35   5 2.35
  40  0.375  0.375  0.708-  10 2.35   2 2.35   1 2.35   4 2.35
  41  0.375  0.708  0.042-  14 2.35   5 2.35   3 2.35   8 2.35
  42  0.375  0.708  0.375-  12 2.35   4 2.35   3 2.35   6 2.35
  43  0.375  0.708  0.708-  13 2.35   5 2.35   4 2.35   7 2.35
  44  0.708  0.042  0.042-  26 2.35  17 2.35  15 2.35  11 2.35
  45  0.708  0.042  0.375-  24 2.35  16 2.35  15 2.35   9 2.35
  46  0.708  0.042  0.708-  25 2.35  17 2.35  16 2.35  10 2.35
  47  0.708  0.375  0.042-  20 2.35  11 2.35   9 2.35  14 2.35
  48  0.708  0.375  0.375-  18 2.35  10 2.35   9 2.35  12 2.35
  49  0.708  0.375  0.708-  19 2.35  11 2.35  10 2.35  13 2.35
  50  0.708  0.708  0.042-  23 2.35  14 2.35  12 2.35  17 2.35
  51  0.708  0.708  0.375-  21 2.35  13 2.35  12 2.35  15 2.35
  52  0.708  0.708  0.708-  22 2.35  14 2.35  13 2.35  16 2.35
  53  0.375  0.375  0.375-   9 2.35   1 2.35  54 2.35   3 2.35
  54  0.292  0.292  0.292-  31 2.35  39 2.35  53 2.35  37 2.35
 
  LATTYP: Found a face centered cubic cell.
 ALAT       =    16.2915000202
  
  Lattice vectors:
  
 A1 = (   9.9764655300,   0.0000000000,   5.7599150700)
 A2 = (   3.3254885100,   9.4059019200,   5.7599150700)
 A3 = (   0.0000000000,   0.0000000000,  11.5198301400)


Analysis of symmetry for initial positions (statically):
=====================================================================
 Subroutine PRICEL returns:
 Original cell was already a primitive cell.
 

 Routine SETGRP: Setting up the symmetry group for a 
 face centered cubic supercell.


 Subroutine GETGRP returns: Found  6 space group operations
 (whereof  6 operations were pure point group operations)
 out of a pool of 48 trial point group operations.


The static configuration has the point symmetry C_3v.


Analysis of symmetry for dynamics (positions and initial velocities):
=====================================================================
 Subroutine PRICEL returns:
 Original cell was already a primitive cell.
 

 Routine SETGRP: Setting up the symmetry group for a 
 face centered cubic supercell.


 Subroutine GETGRP returns: Found  6 space group operations
 (whereof  6 operations were pure point group operations)
 out of a pool of 48 trial point group operations.


The dynamic configuration has the point symmetry C_3v.


 Subroutine INISYM returns: Found  6 space group operations
 (whereof  6 operations are pure point group operations),
 and found     1 'primitive' translations

 
 
 KPOINTS: pymatgen with grid density = 1000 / numb

Automatic generation of k-mesh.
Space group operators:
 irot       det(A)        alpha          n_x          n_y          n_z        tau_x        tau_y        tau_z
    1     1.000000     0.000000     1.000000     0.000000     0.000000     0.000000     0.000000     0.000000
    2     1.000000   120.000000    -0.471405    -0.333333    -0.816497     0.000000     0.000000     0.000000
    3     1.000000   120.000000     0.471405     0.333333     0.816497     0.000000     0.000000     0.000000
    4    -1.000000   180.000000     0.288675     0.816497    -0.500000     0.000000     0.000000     0.000000
    5    -1.000000   180.000000     0.577350    -0.816497     0.000000     0.000000     0.000000     0.000000
    6    -1.000000   180.000000     0.866025     0.000000    -0.500000     0.000000     0.000000     0.000000
 
 Subroutine IBZKPT returns following result:
 ===========================================
 
 Found     13 irreducible k-points:
 
 Following reciprocal coordinates:
            Coordinates               Weight
  0.000000  0.000000  0.000000      1.000000
  0.250000  0.000000  0.000000      6.000000
  0.500000  0.000000  0.000000      3.000000
  0.250000  0.250000  0.000000      6.000000
  0.500000  0.250000  0.000000     12.000000
 -0.250000  0.250000  0.000000      6.000000
  0.500000  0.500000  0.000000      3.000000
  0.250000  0.250000  0.250000      2.000000
  0.500000  0.250000  0.250000      6.000000
 -0.250000  0.250000  0.250000      6.000000
  0.500000  0.500000  0.250000      6.000000
 -0.250000  0.500000  0.250000      6.000000
  0.500000  0.500000  0.500000      1.000000
 
 Following cartesian coordinates:
            Coordinates               Weight
  0.000000  0.000000  0.000000      1.000000
  0.025059 -0.008860  0.000000      6.000000
  0.050118 -0.017719  0.000000      3.000000
  0.025059  0.017719  0.000000      6.000000
  0.050118  0.008860  0.000000     12.000000
 -0.025059  0.035439  0.000000      6.000000
  0.050118  0.035439  0.000000      3.000000
  0.012529  0.008860  0.021702      2.000000
  0.037588  0.000000  0.021702      6.000000
 -0.037588  0.026579  0.021702      6.000000
  0.037588  0.026579  0.021702      6.000000
 -0.037588  0.053158  0.021702      6.000000
  0.025059  0.017719  0.043403      1.000000
 


--------------------------------------------------------------------------------------------------------




 Dimension of arrays:
   k-points           NKPTS =     13   k-points in BZ     NKDIM =     13   number of bands    NBANDS=    144
   number of dos      NEDOS =    301   number of ions     NIONS =     54
   non local maximal  LDIM  =      4   non local SUM 2l+1 LMDIM =      8
   total plane-waves  NPLWV = 343000
   max r-space proj   IRMAX =      1   max aug-charges    IRDMAX=  10807
   dimension x,y,z NGX =    70 NGY =   70 NGZ =   70
   dimension x,y,z NGXF=   140 NGYF=  140 NGZF=  140
   support grid    NGXF=   140 NGYF=  140 NGZF=  140
   ions per type =              52   1   1
   NGX,Y,Z   is equivalent  to a cutoff of  10.10, 10.10, 10.10 a.u.
   NGXF,Y,Z  is equivalent  to a cutoff of  20.20, 20.20, 20.20 a.u.

 SYSTEM =  Si                                      
 POSCAR =  Si52 B1 P1                              

 Startparameter for this run:
   NWRITE =      2    write-flag & timer
   PREC   = normal    normal or accurate (medium, high low for compatibility)
   ISTART =      1    job   : 0-new  1-cont  2-samecut
   ICHARG =      0    charge: 1-file 2-atom 10-const
   ISPIN  =      1    spin polarized calculation?
   LNONCOLLINEAR =      F non collinear calculations
   LSORBIT =      F    spin-orbit coupling
   INIWAV =      1    electr: 0-lowe 1-rand  2-diag
   LASPH  =      F    aspherical Exc in radial PAW
   METAGGA=      F    non-selfconsistent MetaGGA calc.

 Electronic Relaxation 1
   ENCUT  =  550.0 eV  40.42 Ry    6.36 a.u.  22.03 22.03 22.03*2*pi/ulx,y,z
   ENINI  =  550.0     initial cutoff
   ENAUG  =  535.5 eV  augmentation charge cutoff
   NELM   =    200;   NELMIN=  2; NELMDL=  0     # of ELM steps 
   EDIFF  = 0.1E-04   stopping-criterion for ELM
   LREAL  =      F    real-space projection
   NLSPLINE    = F    spline interpolate recip. space projectors
   LCOMPAT=      F    compatible to vasp.4.4
   GGA_COMPAT  = T    GGA compatible to vasp.4.4-vasp.4.6
   LMAXPAW     = -100 max onsite density
   LMAXMIX     =    2 max onsite mixed and CHGCAR
   VOSKOWN=      0    Vosko Wilk Nusair interpolation
   ROPT   =    0.00000   0.00000   0.00000
 Ionic relaxation
   EDIFFG = -.5E-01   stopping-criterion for IOM
   NSW    =    100    number of steps for IOM
   NBLOCK =      1;   KBLOCK =    100    inner block; outer block 
   IBRION =      2    ionic relax: 0-MD 1-quasi-New 2-CG
   NFREE  =      1    steps in history (QN), initial steepest desc. (CG)
   ISIF   =      2    stress and relaxation
   IWAVPR =     11    prediction:  0-non 1-charg 2-wave 3-comb
   ISYM   =      2    0-nonsym 1-usesym 2-fastsym
   LCORR  =      T    Harris-Foulkes like correction to forces

   POTIM  = 0.5000    time-step for ionic-motion
   TEIN   =    0.0    initial temperature
   TEBEG  =    0.0;   TEEND  =   0.0 temperature during run
   SMASS  =  -3.00    Nose mass-parameter (am)
   estimated Nose-frequenzy (Omega)   =  0.10E-29 period in steps =****** mass=  -0.303E-26a.u.
   SCALEE = 1.0000    scale energy and forces
   NPACO  =    256;   APACO  = 16.0  distance and # of slots for P.C.
   PSTRESS=    0.0 pullay stress

  Mass of Ions in am
   POMASS =  28.09 10.81 30.97
  Ionic Valenz
   ZVAL   =   4.00  3.00  5.00
  Atomic Wigner-Seitz radii
   RWIGS  =  -1.00 -1.00 -1.00
  virtual crystal weights 
   VCA    =   1.00  1.00  1.00
   NELECT =     217.0000    total number of electrons
   NUPDOWN=      -1.0000    fix difference up-down

 DOS related values:
   EMIN   =  10.00;   EMAX   =-10.00  energy-range for DOS
   EFERMI =   0.00
   ISMEAR =     0;   SIGMA  =   0.05  broadening in eV -4-tet -1-fermi 0-gaus

 Electronic relaxation 2 (details)
   IALGO  =     38    algorithm
   LDIAG  =      T    sub-space diagonalisation (order eigenvalues)
   LSUBROT=      F    optimize rotation matrix (better conditioning)
   TURBO    =      0    0=normal 1=particle mesh
   IRESTART =      0    0=no restart 2=restart with 2 vectors
   NREBOOT  =      0    no. of reboots
   NMIN     =      0    reboot dimension
   EREF     =   0.00    reference energy to select bands
   IMIX   =      4    mixing-type and parameters
     AMIX     =   0.20;   BMIX     =  1.00
     AMIX_MAG =   0.80;   BMIX_MAG =  1.00
     AMIN     =   0.10
     WC   =   100.;   INIMIX=   1;  MIXPRE=   1;  MAXMIX= -45

 Intra band minimization:
   WEIMIN = 0.0010     energy-eigenvalue tresh-hold
   EBREAK =  0.17E-07  absolut break condition
   DEPER  =   0.30     relativ break condition  

   TIME   =   0.40     timestep for ELM

  volume/ion in A,a.u.               =      20.02       135.09
  Fermi-wavevector in a.u.,A,eV,Ry     =   0.958562  1.811420 12.501599  0.918842
  Thomas-Fermi vector in A             =   2.087681
 
 Write flags
   LWAVE        =      T    write WAVECAR
   LDOWNSAMPLE  =      F    k-point downsampling of WAVECAR
   LCHARG       =      T    write CHGCAR
   LVTOT        =      F    write LOCPOT, total local potential
   LVHAR        =      F    write LOCPOT, Hartree potential only
   LELF         =      F    write electronic localiz. function (ELF)
   LORBIT       =     10    0 simple, 1 ext, 2 COOP (PROOUT), +10 PAW based schemes


 Dipole corrections
   LMONO  =      F    monopole corrections only (constant potential shift)
   LDIPOL =      F    correct potential (dipole corrections)
   IDIPOL =      0    1-x, 2-y, 3-z, 4-all directions 
   EPSILON=  1.0000000 bulk dielectric constant

 Exchange correlation treatment:
   GGA     =    --    GGA type
   LEXCH   =     8    internal setting for exchange type
   VOSKOWN=      0    Vosko Wilk Nusair interpolation
   LHFCALC =     F    Hartree Fock is set to
   LHFONE  =     F    Hartree Fock one center treatment
   AEXX    =    0.0000 exact exchange contribution

 Linear response parameters
   LEPSILON=     F    determine dielectric tensor
   LRPA    =     F    only Hartree local field effects (RPA)
   LNABLA  =     F    use nabla operator in PAW spheres
   LVEL    =     F    velocity operator in full k-point grid
   LINTERFAST=   F  fast interpolation
   KINTER  =     0    interpolate to denser k-point grid
   CSHIFT  =0.1000    complex shift for real part using Kramers Kronig
   OMEGAMAX=  -1.0    maximum frequency
   DEG_THRESHOLD= 0.2000000E-02 threshold for treating states as degnerate
   RTIME   =   -0.100 relaxation time in fs
  (WPLASMAI=    0.000 imaginary part of plasma frequency in eV, 0.658/RTIME)
   DFIELD  = 0.0000000 0.0000000 0.0000000 field for delta impulse in time
 
 Orbital magnetization related:
   ORBITALMAG=     F  switch on orbital magnetization
   LCHIMAG   =     F  perturbation theory with respect to B field
   DQ        =  0.001000  dq finite difference perturbation B field
   LLRAUG    =     F  two centre corrections for induced B field



--------------------------------------------------------------------------------------------------------


 conjugate gradient relaxation of ions
 charge density and potential will be updated during run
 non-spin polarized calculation
 Variant of blocked Davidson
 Davidson routine will perform the subspace rotation
 perform sub-space diagonalisation
    after iterative eigenvector-optimisation
 modified Broyden-mixing scheme, WC =      100.0
 initial mixing is a Kerker type mixing with AMIX =  0.2000 and BMIX =      1.0000
 Hartree-type preconditioning will be used
 using additional bands           35
 reciprocal scheme for non local part
 use partial core corrections
 calculate Harris-corrections to forces 
   (improved forces if not selfconsistent)
 use gradient corrections 
 use of overlap-Matrix (Vanderbilt PP)
 Gauss-broadening in eV      SIGMA  =   0.05


--------------------------------------------------------------------------------------------------------


  energy-cutoff  :      550.00
  volume of cell :     1080.99
      direct lattice vectors                 reciprocal lattice vectors
     9.976465530  0.000000000  5.759915070     0.100235900 -0.035438742  0.000000000
     3.325488510  9.405901920  5.759915070     0.000000000  0.106316227  0.000000000
     0.000000000  0.000000000 11.519830140    -0.050117950 -0.035438742  0.086806836

  length of vectors
    11.519830124 11.519830136 11.519830140     0.106316227  0.106316227  0.106316227


 
 old parameters found on file WAVECAR:
  energy-cutoff  :      550.00
  volume of cell :     1080.99
      direct lattice vectors                 reciprocal lattice vectors
     9.976465530  0.000000000  5.759915070     0.100235900 -0.035438742  0.000000000
     3.325488510  9.405901920  5.759915070     0.000000000  0.106316227  0.000000000
     0.000000000  0.000000000 11.519830140    -0.050117950 -0.035438742  0.086806836

  length of vectors

 
 k-points in units of 2pi/SCALE and weight: pymatgen with grid density = 1000 / numb
   0.00000000  0.00000000  0.00000000       0.016
   0.02505897 -0.00885969  0.00000000       0.094
   0.05011795 -0.01771937  0.00000000       0.047
   0.02505897  0.01771937  0.00000000       0.094
   0.05011795  0.00885969  0.00000000       0.188
  -0.02505897  0.03543874  0.00000000       0.094
   0.05011795  0.03543874  0.00000000       0.047
   0.01252949  0.00885969  0.02170171       0.031
   0.03758846  0.00000000  0.02170171       0.094
  -0.03758846  0.02657906  0.02170171       0.094
   0.03758846  0.02657906  0.02170171       0.094
  -0.03758846  0.05315811  0.02170171       0.094
   0.02505897  0.01771937  0.04340342       0.016
 
 k-points in reciprocal lattice and weights: pymatgen with grid density = 1000 / numb
   0.00000000  0.00000000  0.00000000       0.016
   0.25000000  0.00000000  0.00000000       0.094
   0.50000000  0.00000000  0.00000000       0.047
   0.25000000  0.25000000  0.00000000       0.094
   0.50000000  0.25000000  0.00000000       0.188
  -0.25000000  0.25000000  0.00000000       0.094
   0.50000000  0.50000000  0.00000000       0.047
   0.25000000  0.25000000  0.25000000       0.031
   0.50000000  0.25000000  0.25000000       0.094
  -0.25000000  0.25000000  0.25000000       0.094
   0.50000000  0.50000000  0.25000000       0.094
  -0.25000000  0.50000000  0.25000000       0.094
   0.50000000  0.50000000  0.50000000       0.016
 
 position of ions in fractional coordinates (direct lattice) 
   0.29166667  0.29166667  0.62500000
   0.29166667  0.29166667  0.95833333
   0.29166667  0.62500000  0.29166667
   0.29166667  0.62500000  0.62500000
   0.29166667  0.62500000  0.95833333
   0.29166667  0.95833333  0.29166667
   0.29166667  0.95833333  0.62500000
   0.29166667  0.95833333  0.95833333
   0.62500000  0.29166667  0.29166667
   0.62500000  0.29166667  0.62500000
   0.62500000  0.29166667  0.95833333
   0.62500000  0.62500000  0.29166667
   0.62500000  0.62500000  0.62500000
   0.62500000  0.62500000  0.95833333
   0.62500000  0.95833333  0.29166667
   0.62500000  0.95833333  0.62500000
   0.62500000  0.95833333  0.95833333
   0.95833333  0.29166667  0.29166667
   0.95833333  0.29166667  0.62500000
   0.95833333  0.29166667  0.95833333
   0.95833333  0.62500000  0.29166667
   0.95833333  0.62500000  0.62500000
   0.95833333  0.62500000  0.95833333
   0.95833333  0.95833333  0.29166667
   0.95833333  0.95833333  0.62500000
   0.95833333  0.95833333  0.95833333
   0.04166667  0.04166667  0.04166667
   0.04166667  0.04166667  0.37500000
   0.04166667  0.04166667  0.70833333
   0.04166667  0.37500000  0.04166667
   0.04166667  0.37500000  0.37500000
   0.04166667  0.37500000  0.70833333
   0.04166667  0.70833333  0.04166667
   0.04166667  0.70833333  0.37500000
   0.04166667  0.70833333  0.70833333
   0.37500000  0.04166667  0.04166667
   0.37500000  0.04166667  0.37500000
   0.37500000  0.04166667  0.70833333
   0.37500000  0.37500000  0.04166667
   0.37500000  0.37500000  0.70833333
   0.37500000  0.70833333  0.04166667
   0.37500000  0.70833333  0.37500000
   0.37500000  0.70833333  0.70833333
   0.70833333  0.04166667  0.04166667
   0.70833333  0.04166667  0.37500000
   0.70833333  0.04166667  0.70833333
   0.70833333  0.37500000  0.04166667
   0.70833333  0.37500000  0.37500000
   0.70833333  0.37500000  0.70833333
   0.70833333  0.70833333  0.04166667
   0.70833333  0.70833333  0.37500000
   0.70833333  0.70833333  0.70833333
   0.37500000  0.37500000  0.37500000
   0.29166667  0.29166667  0.29166667
 
 position of ions in cartesian coordinates  (Angst):
   3.87973659  2.74338806 10.55984429
   3.87973659  2.74338806 14.39978767
   4.98823276  5.87868870  8.63987260
   4.98823276  5.87868870 12.47981598
   4.98823276  5.87868870 16.31975937
   6.09672893  9.01398934 10.55984429
   6.09672893  9.01398934 14.39978767
   6.09672893  9.01398934 18.23973106
   7.20522510  2.74338806  8.63987260
   7.20522510  2.74338806 12.47981598
   7.20522510  2.74338806 16.31975937
   8.31372128  5.87868870 10.55984429
   8.31372128  5.87868870 14.39978767
   8.31372128  5.87868870 18.23973106
   9.42221745  9.01398934 12.47981598
   9.42221745  9.01398934 16.31975937
   9.42221745  9.01398934 20.15970275
  10.53071362  2.74338806 10.55984429
  10.53071362  2.74338806 14.39978767
  10.53071362  2.74338806 18.23973106
  11.63920979  5.87868870 12.47981598
  11.63920979  5.87868870 16.31975937
  11.63920979  5.87868870 20.15970275
  12.74770596  9.01398934 14.39978767
  12.74770596  9.01398934 18.23973106
  12.74770596  9.01398934 22.07967444
   0.55424808  0.39191258  0.95998584
   0.55424808  0.39191258  4.79992922
   0.55424808  0.39191258  8.63987260
   1.66274425  3.52721322  2.87995753
   1.66274425  3.52721322  6.71990091
   1.66274425  3.52721322 10.55984430
   2.77124042  6.66251386  4.79992922
   2.77124042  6.66251386  8.63987261
   2.77124042  6.66251386 12.47981599
   3.87973659  0.39191258  2.87995753
   3.87973659  0.39191258  6.71990091
   3.87973659  0.39191258 10.55984430
   4.98823277  3.52721322  4.79992922
   4.98823277  3.52721322 12.47981599
   6.09672894  6.66251386  6.71990091
   6.09672894  6.66251386 10.55984430
   6.09672894  6.66251386 14.39978768
   7.20522511  0.39191258  4.79992922
   7.20522511  0.39191258  8.63987261
   7.20522511  0.39191258 12.47981599
   8.31372128  3.52721322  6.71990091
   8.31372128  3.52721322 10.55984430
   8.31372128  3.52721322 14.39978768
   9.42221745  6.66251386  8.63987260
   9.42221745  6.66251386 12.47981599
   9.42221745  6.66251386 16.31975937
   4.98823277  3.52721322  8.63987261
   3.87973659  2.74338806  6.71990091
 


--------------------------------------------------------------------------------------------------------


 k-point  1 :   0.0000 0.0000 0.0000  plane waves:   31415
 k-point  2 :   0.2500 0.0000 0.0000  plane waves:   31608
 k-point  3 :   0.5000 0.0000 0.0000  plane waves:   31638
 k-point  4 :   0.2500 0.2500 0.0000  plane waves:   31695
 k-point  5 :   0.5000 0.2500 0.0000  plane waves:   31649
 k-point  6 :  -0.2500 0.2500 0.0000  plane waves:   31674
 k-point  7 :   0.5000 0.5000 0.0000  plane waves:   31716
 k-point  8 :   0.2500 0.2500 0.2500  plane waves:   31608
 k-point  9 :   0.5000 0.2500 0.2500  plane waves:   31674
 k-point 10 :  -0.2500 0.2500 0.2500  plane waves:   31649
 k-point 11 :   0.5000 0.5000 0.2500  plane waves:   31649
 k-point 12 :  -0.2500 0.5000 0.2500  plane waves:   31684
 k-point 13 :   0.5000 0.5000 0.5000  plane waves:   31638

 maximum and minimum number of plane-waves per node :     31716    31415

 maximum number of plane-waves:     31716
 maximum index in each direction: 
   IXMAX=   22   IYMAX=   22   IZMAX=   22
   IXMIN=  -22   IYMIN=  -22   IZMIN=  -22


 serial   3D FFT for wavefunctions
 parallel 3D FFT for charge:
    minimum data exchange during FFTs selected (reduces bandwidth)


 total amount of memory used by VASP MPI-rank0   203693. kBytes
=======================================================================

   base      :      30000. kBytes
   nonl-proj :     106606. kBytes
   fftplans  :       5382. kBytes
   grid      :      21405. kBytes
   one-center:        165. kBytes
   wavefun   :      40135. kBytes
 
     INWAV:  cpu time   12.2553: real time   12.3822
 Broyden mixing: mesh for mixing (old mesh)
   NGX = 45   NGY = 45   NGZ = 45
  (NGX  =140   NGY  =140   NGZ  =140)
  gives a total of  91125 points

 charge density for first step will be calculated from the start-wavefunctions


--------------------------------------------------------------------------------------------------------


 Maximum index for augmentation-charges          503 (set IRDMAX)


--------------------------------------------------------------------------------------------------------


 initial charge from wavefunction
 First call to EWALD:  gamma=   0.173
 Maximum number of real-space cells 3x 3x 3
 Maximum number of reciprocal cells 3x 3x 3

    FEWALD:  cpu time    0.0699: real time    0.0706


--------------------------------------- Iteration      1(   1)  ---------------------------------------


    POTLOK:  cpu time    0.0939: real time    0.0997
    SETDIJ:  cpu time    0.0161: real time    0.0165
     EDDAV:  cpu time    6.3718: real time    6.5132
       DOS:  cpu time    0.0119: real time    0.0134
    CHARGE:  cpu time    0.2794: real time    0.2817
    MIXING:  cpu time    0.0056: real time    0.0064
    --------------------------------------------
      LOOP:  cpu time    6.7789: real time    6.9309

 eigenvalue-minimisations  :  2808
 total energy-change (2. order) :-0.2862400E+03  (-0.2131386E-06)
 number of electron     217.0000000 magnetization 
 augmentation part      -12.5012345 magnetization 

 Broyden mixing:
  rms(total) = 0.13605E-03    rms(broyden)= 0.13605E-03
  rms(prec ) = 0.40121E-03
  weight for this iteration     100.00

 Free energy of the ion-electron system (eV)
  ---------------------------------------------------
  alpha Z        PSCENC =        96.03250935
  Ewald energy   TEWEN  =     -6176.92747578
  -Hartree energ DENC   =      -416.45402979
  -exchange      EXHF   =         0.00000000
  -V(xc)+E(xc)   XCENC  =      -455.29016726
  PAW double counting   =     22968.39373771   -22050.39560106
  entropy T*S    EENTRO =        -0.01360008
  eigenvalues    EBANDS =       141.74665205
  atomic energy  EATOM  =      5606.66798631
  Solvation  Ediel_sol  =         0.00000000
  ---------------------------------------------------
  free energy    TOTEN  =      -286.23998856 eV

  energy without entropy =     -286.22638847  energy(sigma->0) =     -286.23318851


--------------------------------------------------------------------------------------------------------




--------------------------------------- Iteration      1(   2)  ---------------------------------------


    POTLOK:  cpu time    0.1307: real time    0.1319
    SETDIJ:  cpu time    0.0329: real time    0.0332
     EDDAV:  cpu time    5.5699: real time    5.6287
       DOS:  cpu time    0.7743: real time    0.7853
    --------------------------------------------
      LOOP:  cpu time    6.5078: real time    6.5791

 eigenvalue-minimisations  :  2808
 total energy-change (2. order) : 0.1965545E-06  (-0.7315397E-07)
 number of electron     217.0000000 magnetization 
 augmentation part      -12.5012345 magnetization 

 Free energy of the ion-electron system (eV)
  ---------------------------------------------------
  alpha Z        PSCENC =        96.03250935
  Ewald energy   TEWEN  =     -6176.92747578
  -Hartree energ DENC   =      -416.45405803
  -exchange      EXHF   =         0.00000000
  -V(xc)+E(xc)   XCENC  =      -455.29018061
  PAW double counting   =     22968.41499246   -22050.41683864
  entropy T*S    EENTRO =        -0.01359901
  eigenvalues    EBANDS =       141.74667559
  atomic energy  EATOM  =      5606.66798631
  Solvation  Ediel_sol  =         0.00000000
  ---------------------------------------------------
  free energy    TOTEN  =      -286.23998836 eV

  energy without entropy =     -286.22638935  energy(sigma->0) =     -286.23318885


--------------------------------------------------------------------------------------------------------




 average (electrostatic) potential at core
  the test charge radii are     0.9892  0.7672  0.9587
  (the norm of the test charge is              1.0000)
       1 -83.2101       2 -83.4152       3 -83.2101       4 -83.3659       5 -83.4579
       6 -83.4152       7 -83.4579       8 -83.3092       9 -83.2101      10 -83.3659
      11 -83.4579      12 -83.3659      13 -83.4096      14 -83.3327      15 -83.4579
      16 -83.3327      17 -83.3828      18 -83.4152      19 -83.4579      20 -83.3092
      21 -83.4579      22 -83.3327      23 -83.3828      24 -83.3092      25 -83.3828
      26 -83.4069      27 -83.3453      28 -83.3947      29 -83.4126      30 -83.3947
      31 -83.8039      32 -83.2777      33 -83.4126      34 -83.2777      35 -83.3774
      36 -83.3947      37 -83.8039      38 -83.2777      39 -83.8039      40 -83.3624
      41 -83.2777      42 -83.3624      43 -83.4564      44 -83.4126      45 -83.2777
      46 -83.3774      47 -83.2777      48 -83.3624      49 -83.4564      50 -83.3774
      51 -83.4564      52 -83.3390      53 -27.1855      54 -83.4700
 
 
 
 E-fermi :   6.4674     XC(G=0):  -9.4116     alpha+bet :-11.8465


 k-point     1 :       0.0000    0.0000    0.0000
  band No.  band energies     occupation 
      1      -6.4864      2.00000
      2      -5.8314      2.00000
      3      -4.9295      2.00000
      4      -4.9295      2.00000
      5      -4.9157      2.00000
      6      -4.8695      2.00000
      7      -4.8605      2.00000
      8      -4.8605      2.00000
      9      -4.7328      2.00000
     10      -4.5477      2.00000
     11      -4.3767      2.00000
     12      -4.3767      2.00000
     13      -4.3249      2.00000
     14      -4.3249      2.00000
     15      -4.1425      2.00000
     16      -3.4860      2.00000
     17      -3.0935      2.00000
     18      -3.0935      2.00000
     19      -3.0046      2.00000
     20      -3.0046      2.00000
     21      -2.9987      2.00000
     22      -2.9946      2.00000
     23      -2.9917      2.00000
     24      -2.9917      2.00000
     25      -2.8838      2.00000
     26      -2.8838      2.00000
     27      -2.5251      2.00000
     28      -1.3968      2.00000
     29      -1.1993      2.00000
     30      -1.1993      2.00000
     31      -1.0805      2.00000
     32      -1.0805      2.00000
     33      -1.0692      2.00000
     34      -1.0647      2.00000
     35      -1.0617      2.00000
     36      -1.0617      2.00000
     37      -0.9371      2.00000
     38      -0.9371      2.00000
     39      -0.7104      2.00000
     40       0.2128      2.00000
     41       0.2597      2.00000
     42       0.2597      2.00000
     43       0.3328      2.00000
     44       0.3914      2.00000
     45       0.4060      2.00000
     46       0.4060      2.00000
     47       0.4260      2.00000
     48       0.6054      2.00000
     49       0.6611      2.00000
     50       0.6611      2.00000
     51       0.7589      2.00000
     52       0.7589      2.00000
     53       0.8250      2.00000
     54       1.1142      2.00000
     55       1.1142      2.00000
     56       1.2737      2.00000
     57       1.2740      2.00000
     58       1.2800      2.00000
     59       1.2800      2.00000
     60       1.2827      2.00000
     61       1.2982      2.00000
     62       1.2982      2.00000
     63       1.3799      2.00000
     64       1.4959      2.00000
     65       1.4959      2.00000
     66       2.9178      2.00000
     67       2.9178      2.00000
     68       3.2102      2.00000
     69       3.2497      2.00000
     70       3.2518      2.00000
     71       3.2518      2.00000
     72       3.2852      2.00000
     73       3.3062      2.00000
     74       3.3062      2.00000
     75       3.3311      2.00000
     76       3.3526      2.00000
     77       3.3526      2.00000
     78       3.4982      2.00000
     79       3.4982      2.00000
     80       3.5580      2.00000
     81       3.5661      2.00000
     82       3.5661      2.00000
     83       3.5672      2.00000
     84       3.5911      2.00000
     85       3.6246      2.00000
     86       3.6246      2.00000
     87       3.6309      2.00000
     88       3.8053      2.00000
     89       3.8053      2.00000
     90       4.4839      2.00000
     91       4.4839      2.00000
     92       4.6136      2.00000
     93       4.6801      2.00000
     94       4.6801      2.00000
     95       4.6862      2.00000
     96       4.6862      2.00000
     97       4.6870      2.00000
     98       4.7063      2.00000
     99       4.7152      2.00000
    100       4.7152      2.00000
    101       4.7245      2.00000
    102       4.7245      2.00000
    103       4.7327      2.00000
    104       5.0206      2.00000
    105       5.0206      2.00000
    106       5.6805      2.00000
    107       5.7483      2.00000
    108       5.7483      2.00000
    109       6.2725      2.00000
    110       6.4056      1.91966
    111       6.4056      1.91966
    112       6.4241      1.77996
    113       6.4555      1.26345
    114       6.4555      1.26345
    115       6.8219      0.00000
    116       7.2024      0.00000
    117       7.2038      0.00000
    118       7.2038      0.00000
    119       7.2510      0.00000
    120       7.2510      0.00000
    121       7.2518      0.00000
    122       7.2913      0.00000
    123       7.2978      0.00000
    124       7.2978      0.00000
    125       7.3289      0.00000
    126       7.3289      0.00000
    127       7.3428      0.00000
    128       7.3991      0.00000
    129       7.4552      0.00000
    130       7.4552      0.00000
    131       7.4667      0.00000
    132       7.5283      0.00000
    133       7.5283      0.00000
    134       7.5459      0.00000
    135       7.6690      0.00000
    136       7.7164      0.00000
    137       7.7516      0.00000
    138       7.7516      0.00000
    139       7.7858      0.00000
    140       7.7858      0.00000
    141       8.2383      0.00000
    142       8.2383      0.00000
    143       8.2821      0.00000
    144       8.9864      0.00000

 k-point     2 :       0.2500    0.0000    0.0000
  band No.  band energies     occupation 
      1      -6.4343      2.00000
      2      -5.8569      2.00000
      3      -5.3607      2.00000
      4      -5.0299      2.00000
      5      -4.9717      2.00000
      6      -4.8783      2.00000
      7      -4.7294      2.00000
      8      -4.6969      2.00000
      9      -4.6620      2.00000
     10      -4.6001      2.00000
     11      -4.4682      2.00000
     12      -4.3131      2.00000
     13      -4.0124      2.00000
     14      -3.8208      2.00000
     15      -3.7687      2.00000
     16      -3.6829      2.00000
     17      -3.6025      2.00000
     18      -3.5064      2.00000
     19      -3.2030      2.00000
     20      -3.0319      2.00000
     21      -2.9947      2.00000
     22      -2.9935      2.00000
     23      -2.9367      2.00000
     24      -2.8175      2.00000
     25      -2.7713      2.00000
     26      -2.7117      2.00000
     27      -2.4931      2.00000
     28      -1.5066      2.00000
     29      -1.3659      2.00000
     30      -1.3000      2.00000
     31      -1.2477      2.00000
     32      -1.1747      2.00000
     33      -1.1067      2.00000
     34      -1.1065      2.00000
     35      -1.0521      2.00000
     36      -0.9455      2.00000
     37      -0.7529      2.00000
     38      -0.6389      2.00000
     39      -0.5858      2.00000
     40      -0.4814      2.00000
     41      -0.2104      2.00000
     42      -0.1465      2.00000
     43      -0.0606      2.00000
     44      -0.0145      2.00000
     45       0.0562      2.00000
     46       0.1525      2.00000
     47       0.7597      2.00000
     48       0.7877      2.00000
     49       0.8480      2.00000
     50       1.1691      2.00000
     51       1.2319      2.00000
     52       1.2646      2.00000
     53       1.3491      2.00000
     54       1.3655      2.00000
     55       1.4549      2.00000
     56       1.4583      2.00000
     57       1.4788      2.00000
     58       1.4816      2.00000
     59       1.5092      2.00000
     60       1.5431      2.00000
     61       1.5438      2.00000
     62       1.6335      2.00000
     63       1.7303      2.00000
     64       1.7662      2.00000
     65       1.8870      2.00000
     66       2.6272      2.00000
     67       2.7170      2.00000
     68       2.8075      2.00000
     69       2.9569      2.00000
     70       3.0307      2.00000
     71       3.1370      2.00000
     72       3.1514      2.00000
     73       3.2088      2.00000
     74       3.2489      2.00000
     75       3.2603      2.00000
     76       3.2821      2.00000
     77       3.2852      2.00000
     78       3.3036      2.00000
     79       3.3208      2.00000
     80       3.3543      2.00000
     81       3.3609      2.00000
     82       3.4330      2.00000
     83       3.4901      2.00000
     84       3.4977      2.00000
     85       3.5946      2.00000
     86       3.6159      2.00000
     87       3.7736      2.00000
     88       3.8688      2.00000
     89       3.9337      2.00000
     90       3.9364      2.00000
     91       4.0130      2.00000
     92       4.0583      2.00000
     93       4.2830      2.00000
     94       4.3396      2.00000
     95       4.3733      2.00000
     96       4.4032      2.00000
     97       4.4481      2.00000
     98       4.5139      2.00000
     99       4.5746      2.00000
    100       4.5877      2.00000
    101       4.6799      2.00000
    102       4.7033      2.00000
    103       4.8066      2.00000
    104       4.9125      2.00000
    105       4.9563      2.00000
    106       5.0462      2.00000
    107       5.5459      2.00000
    108       5.6094      2.00000
    109       6.5090      0.23966
    110       6.5811      0.00130
    111       6.5958      0.00028
    112       6.7702      0.00000
    113       6.9092      0.00000
    114       6.9145      0.00000
    115       6.9202      0.00000
    116       6.9592      0.00000
    117       6.9725      0.00000
    118       7.2188      0.00000
    119       7.4020      0.00000
    120       7.5578      0.00000
    121       7.5643      0.00000
    122       7.6055      0.00000
    123       7.6954      0.00000
    124       7.7296      0.00000
    125       7.7409      0.00000
    126       7.7685      0.00000
    127       7.7738      0.00000
    128       7.8346      0.00000
    129       7.8509      0.00000
    130       7.8624      0.00000
    131       7.8684      0.00000
    132       7.8859      0.00000
    133       7.9221      0.00000
    134       7.9537      0.00000
    135       7.9832      0.00000
    136       8.0397      0.00000
    137       8.0747      0.00000
    138       8.2697      0.00000
    139       8.4239      0.00000
    140       8.4557      0.00000
    141       8.4805      0.00000
    142       8.5267      0.00000
    143       8.5352      0.00000
    144       8.8666      0.00000

 k-point     3 :       0.5000    0.0000    0.0000
  band No.  band energies     occupation 
      1      -6.3649      2.00000
      2      -5.9012      2.00000
      3      -5.5481      2.00000
      4      -5.0341      2.00000
      5      -4.9776      2.00000
      6      -4.9591      2.00000
      7      -4.8954      2.00000
      8      -4.8011      2.00000
      9      -4.5108      2.00000
     10      -4.1940      2.00000
     11      -4.1926      2.00000
     12      -4.1294      2.00000
     13      -4.1290      2.00000
     14      -4.0103      2.00000
     15      -3.9359      2.00000
     16      -3.5190      2.00000
     17      -3.2320      2.00000
     18      -3.2298      2.00000
     19      -3.1839      2.00000
     20      -3.1741      2.00000
     21      -3.1308      2.00000
     22      -3.0179      2.00000
     23      -3.0091      2.00000
     24      -2.9865      2.00000
     25      -2.9863      2.00000
     26      -2.9117      2.00000
     27      -2.5568      2.00000
     28      -1.4234      2.00000
     29      -1.2959      2.00000
     30      -1.2296      2.00000
     31      -1.1419      2.00000
     32      -1.1417      2.00000
     33      -1.0993      2.00000
     34      -1.0807      2.00000
     35      -0.9588      2.00000
     36      -0.8894      2.00000
     37      -0.8837      2.00000
     38      -0.8261      2.00000
     39      -0.7941      2.00000
     40      -0.6244      2.00000
     41      -0.3629      2.00000
     42      -0.3521      2.00000
     43      -0.3054      2.00000
     44      -0.2613      2.00000
     45      -0.1958      2.00000
     46      -0.1333      2.00000
     47       1.1039      2.00000
     48       1.1104      2.00000
     49       1.2466      2.00000
     50       1.2782      2.00000
     51       1.3054      2.00000
     52       1.3430      2.00000
     53       1.6335      2.00000
     54       1.6509      2.00000
     55       1.6694      2.00000
     56       1.6810      2.00000
     57       1.7214      2.00000
     58       1.7261      2.00000
     59       1.8821      2.00000
     60       2.0041      2.00000
     61       2.0563      2.00000
     62       2.0773      2.00000
     63       2.1085      2.00000
     64       2.1276      2.00000
     65       2.3945      2.00000
     66       2.5930      2.00000
     67       2.6270      2.00000
     68       2.6555      2.00000
     69       2.6836      2.00000
     70       2.7150      2.00000
     71       2.8442      2.00000
     72       2.8609      2.00000
     73       2.9424      2.00000
     74       2.9469      2.00000
     75       2.9765      2.00000
     76       3.0044      2.00000
     77       3.0475      2.00000
     78       3.1323      2.00000
     79       3.1450      2.00000
     80       3.1627      2.00000
     81       3.1852      2.00000
     82       3.2815      2.00000
     83       3.3084      2.00000
     84       3.3709      2.00000
     85       3.6066      2.00000
     86       3.6339      2.00000
     87       3.6923      2.00000
     88       3.7301      2.00000
     89       3.7851      2.00000
     90       3.7900      2.00000
     91       3.8717      2.00000
     92       3.9320      2.00000
     93       3.9813      2.00000
     94       3.9850      2.00000
     95       4.0377      2.00000
     96       4.1235      2.00000
     97       4.3012      2.00000
     98       4.3795      2.00000
     99       4.3900      2.00000
    100       4.4166      2.00000
    101       4.4247      2.00000
    102       4.4661      2.00000
    103       4.5114      2.00000
    104       4.6806      2.00000
    105       5.2274      2.00000
    106       5.2543      2.00000
    107       5.2566      2.00000
    108       5.3584      2.00000
    109       6.6057      0.00009
    110       6.7272      0.00000
    111       6.7479      0.00000
    112       6.7766      0.00000
    113       6.8151      0.00000
    114       6.8507      0.00000
    115       7.1747      0.00000
    116       7.4761      0.00000
    117       7.6254      0.00000
    118       7.6567      0.00000
    119       7.6577      0.00000
    120       7.6963      0.00000
    121       7.7002      0.00000
    122       7.8963      0.00000
    123       8.0242      0.00000
    124       8.0914      0.00000
    125       8.1185      0.00000
    126       8.1397      0.00000
    127       8.1469      0.00000
    128       8.1794      0.00000
    129       8.2209      0.00000
    130       8.3049      0.00000
    131       8.3706      0.00000
    132       8.3999      0.00000
    133       8.4041      0.00000
    134       8.4460      0.00000
    135       8.4769      0.00000
    136       8.8011      0.00000
    137       8.8815      0.00000
    138       8.8954      0.00000
    139       8.8975      0.00000
    140       8.9142      0.00000
    141       9.0060      0.00000
    142       9.0242      0.00000
    143       9.0287      0.00000
    144       9.0494      0.00000

 k-point     4 :       0.2500    0.2500    0.0000
  band No.  band energies     occupation 
      1      -6.4210      2.00000
      2      -5.8399      2.00000
      3      -5.2325      2.00000
      4      -5.2114      2.00000
      5      -5.1816      2.00000
      6      -5.1045      2.00000
      7      -4.7602      2.00000
      8      -4.4154      2.00000
      9      -4.3934      2.00000
     10      -4.3531      2.00000
     11      -4.3109      2.00000
     12      -4.2722      2.00000
     13      -4.2168      2.00000
     14      -4.1042      2.00000
     15      -3.7476      2.00000
     16      -3.5589      2.00000
     17      -3.5043      2.00000
     18      -3.4618      2.00000
     19      -3.3666      2.00000
     20      -3.2825      2.00000
     21      -3.2058      2.00000
     22      -3.1943      2.00000
     23      -3.0071      2.00000
     24      -2.5871      2.00000
     25      -2.4926      2.00000
     26      -2.4325      2.00000
     27      -2.2898      2.00000
     28      -1.6877      2.00000
     29      -1.5929      2.00000
     30      -1.5200      2.00000
     31      -1.4573      2.00000
     32      -1.1678      2.00000
     33      -1.0980      2.00000
     34      -1.0978      2.00000
     35      -1.0157      2.00000
     36      -0.7725      2.00000
     37      -0.6097      2.00000
     38      -0.5650      2.00000
     39      -0.4842      2.00000
     40      -0.4786      2.00000
     41      -0.3997      2.00000
     42      -0.3736      2.00000
     43      -0.3499      2.00000
     44      -0.2400      2.00000
     45       0.4365      2.00000
     46       0.4640      2.00000
     47       0.5672      2.00000
     48       0.5956      2.00000
     49       1.1346      2.00000
     50       1.2250      2.00000
     51       1.2936      2.00000
     52       1.3082      2.00000
     53       1.3823      2.00000
     54       1.3848      2.00000
     55       1.4630      2.00000
     56       1.4648      2.00000
     57       1.5315      2.00000
     58       1.5565      2.00000
     59       1.5894      2.00000
     60       1.6153      2.00000
     61       1.7693      2.00000
     62       1.8079      2.00000
     63       1.8436      2.00000
     64       1.8999      2.00000
     65       2.2052      2.00000
     66       2.6477      2.00000
     67       2.6810      2.00000
     68       2.8400      2.00000
     69       2.8642      2.00000
     70       2.8949      2.00000
     71       2.9205      2.00000
     72       2.9327      2.00000
     73       2.9404      2.00000
     74       3.0089      2.00000
     75       3.0146      2.00000
     76       3.2202      2.00000
     77       3.2489      2.00000
     78       3.3230      2.00000
     79       3.3239      2.00000
     80       3.4904      2.00000
     81       3.5532      2.00000
     82       3.6081      2.00000
     83       3.6234      2.00000
     84       3.6541      2.00000
     85       3.6846      2.00000
     86       3.7141      2.00000
     87       3.7180      2.00000
     88       3.8283      2.00000
     89       3.8596      2.00000
     90       3.8936      2.00000
     91       4.0131      2.00000
     92       4.0399      2.00000
     93       4.0426      2.00000
     94       4.0976      2.00000
     95       4.1294      2.00000
     96       4.1476      2.00000
     97       4.2149      2.00000
     98       4.2415      2.00000
     99       4.2979      2.00000
    100       4.4353      2.00000
    101       4.4466      2.00000
    102       4.9388      2.00000
    103       4.9835      2.00000
    104       5.0225      2.00000
    105       5.0671      2.00000
    106       5.1045      2.00000
    107       5.2833      2.00000
    108       5.3899      2.00000
    109       6.2632      2.00000
    110       6.7205      0.00000
    111       6.8698      0.00000
    112       6.9955      0.00000
    113       7.0563      0.00000
    114       7.0805      0.00000
    115       7.1148      0.00000
    116       7.2531      0.00000
    117       7.3556      0.00000
    118       7.3888      0.00000
    119       7.4267      0.00000
    120       7.4516      0.00000
    121       7.4547      0.00000
    122       7.4822      0.00000
    123       7.4860      0.00000
    124       7.6500      0.00000
    125       7.7838      0.00000
    126       7.8344      0.00000
    127       7.8623      0.00000
    128       7.9750      0.00000
    129       8.0174      0.00000
    130       8.0973      0.00000
    131       8.1122      0.00000
    132       8.1369      0.00000
    133       8.1676      0.00000
    134       8.1846      0.00000
    135       8.1894      0.00000
    136       8.2034      0.00000
    137       8.2323      0.00000
    138       8.2823      0.00000
    139       8.3029      0.00000
    140       8.3265      0.00000
    141       8.7752      0.00000
    142       8.7841      0.00000
    143       8.8252      0.00000
    144       8.9474      0.00000

 k-point     5 :       0.5000    0.2500    0.0000
  band No.  band energies     occupation 
      1      -6.3557      2.00000
      2      -5.8225      2.00000
      3      -5.5836      2.00000
      4      -5.3436      2.00000
      5      -5.1563      2.00000
      6      -4.9622      2.00000
      7      -4.7048      2.00000
      8      -4.5116      2.00000
      9      -4.4051      2.00000
     10      -4.2592      2.00000
     11      -4.1259      2.00000
     12      -4.0715      2.00000
     13      -3.9639      2.00000
     14      -3.9126      2.00000
     15      -3.7885      2.00000
     16      -3.6619      2.00000
     17      -3.6119      2.00000
     18      -3.5454      2.00000
     19      -3.4423      2.00000
     20      -3.3760      2.00000
     21      -3.3591      2.00000
     22      -3.1541      2.00000
     23      -2.7738      2.00000
     24      -2.6775      2.00000
     25      -2.5984      2.00000
     26      -2.5127      2.00000
     27      -2.3152      2.00000
     28      -1.6519      2.00000
     29      -1.5098      2.00000
     30      -1.4498      2.00000
     31      -1.4016      2.00000
     32      -1.3323      2.00000
     33      -1.1509      2.00000
     34      -1.0760      2.00000
     35      -1.0506      2.00000
     36      -0.9777      2.00000
     37      -0.7963      2.00000
     38      -0.6944      2.00000
     39      -0.6715      2.00000
     40      -0.6131      2.00000
     41      -0.5603      2.00000
     42      -0.3673      2.00000
     43      -0.1928      2.00000
     44      -0.0289      2.00000
     45       0.0390      2.00000
     46       0.1157      2.00000
     47       0.6895      2.00000
     48       0.7664      2.00000
     49       0.8487      2.00000
     50       1.5138      2.00000
     51       1.6053      2.00000
     52       1.6644      2.00000
     53       1.7106      2.00000
     54       1.7359      2.00000
     55       1.7812      2.00000
     56       1.8635      2.00000
     57       1.9654      2.00000
     58       2.0028      2.00000
     59       2.1459      2.00000
     60       2.1901      2.00000
     61       2.2133      2.00000
     62       2.2359      2.00000
     63       2.2621      2.00000
     64       2.2772      2.00000
     65       2.3367      2.00000
     66       2.4465      2.00000
     67       2.4835      2.00000
     68       2.5779      2.00000
     69       2.6454      2.00000
     70       2.6861      2.00000
     71       2.7257      2.00000
     72       2.7538      2.00000
     73       2.7749      2.00000
     74       2.8335      2.00000
     75       2.9004      2.00000
     76       2.9344      2.00000
     77       3.0187      2.00000
     78       3.0538      2.00000
     79       3.0809      2.00000
     80       3.1217      2.00000
     81       3.1506      2.00000
     82       3.1885      2.00000
     83       3.3547      2.00000
     84       3.4453      2.00000
     85       3.4760      2.00000
     86       3.5162      2.00000
     87       3.5751      2.00000
     88       3.6229      2.00000
     89       3.7293      2.00000
     90       3.7670      2.00000
     91       3.8303      2.00000
     92       3.9063      2.00000
     93       3.9266      2.00000
     94       3.9948      2.00000
     95       4.0526      2.00000
     96       4.0854      2.00000
     97       4.1336      2.00000
     98       4.1564      2.00000
     99       4.2246      2.00000
    100       4.2581      2.00000
    101       4.3256      2.00000
    102       4.4570      2.00000
    103       4.6665      2.00000
    104       4.7798      2.00000
    105       4.8565      2.00000
    106       4.9222      2.00000
    107       5.1750      2.00000
    108       5.3485      2.00000
    109       6.4758      0.81271
    110       6.9759      0.00000
    111       7.1241      0.00000
    112       7.2043      0.00000
    113       7.2296      0.00000
    114       7.3724      0.00000
    115       7.4241      0.00000
    116       7.4506      0.00000
    117       7.6350      0.00000
    118       7.7206      0.00000
    119       7.7821      0.00000
    120       7.8239      0.00000
    121       7.8578      0.00000
    122       7.9070      0.00000
    123       8.0128      0.00000
    124       8.1127      0.00000
    125       8.1809      0.00000
    126       8.2416      0.00000
    127       8.2893      0.00000
    128       8.3250      0.00000
    129       8.3460      0.00000
    130       8.3697      0.00000
    131       8.4144      0.00000
    132       8.4727      0.00000
    133       8.6220      0.00000
    134       8.6450      0.00000
    135       8.6710      0.00000
    136       8.7025      0.00000
    137       8.7092      0.00000
    138       8.7481      0.00000
    139       8.8255      0.00000
    140       8.8588      0.00000
    141       8.8847      0.00000
    142       8.9203      0.00000
    143       8.9418      0.00000
    144       8.9661      0.00000

 k-point     6 :      -0.2500    0.2500    0.0000
  band No.  band energies     occupation 
      1      -6.3725      2.00000
      2      -5.8567      2.00000
      3      -5.5351      2.00000
      4      -5.2999      2.00000
      5      -5.0136      2.00000
      6      -4.9272      2.00000
      7      -4.6625      2.00000
      8      -4.6594      2.00000
      9      -4.5147      2.00000
     10      -4.3608      2.00000
     11      -4.2039      2.00000
     12      -4.1237      2.00000
     13      -4.0805      2.00000
     14      -4.0032      2.00000
     15      -3.7357      2.00000
     16      -3.5778      2.00000
     17      -3.5146      2.00000
     18      -3.3916      2.00000
     19      -3.3545      2.00000
     20      -3.1995      2.00000
     21      -3.1859      2.00000
     22      -3.0683      2.00000
     23      -3.0231      2.00000
     24      -2.9361      2.00000
     25      -2.7556      2.00000
     26      -2.5418      2.00000
     27      -2.2899      2.00000
     28      -1.8058      2.00000
     29      -1.4001      2.00000
     30      -1.2369      2.00000
     31      -1.1521      2.00000
     32      -1.1178      2.00000
     33      -1.0546      2.00000
     34      -0.9990      2.00000
     35      -0.9588      2.00000
     36      -0.9157      2.00000
     37      -0.9049      2.00000
     38      -0.8588      2.00000
     39      -0.8188      2.00000
     40      -0.7870      2.00000
     41      -0.6926      2.00000
     42      -0.5377      2.00000
     43       0.1641      2.00000
     44       0.2129      2.00000
     45       0.2414      2.00000
     46       0.3835      2.00000
     47       0.4415      2.00000
     48       0.4997      2.00000
     49       0.5234      2.00000
     50       1.4433      2.00000
     51       1.5000      2.00000
     52       1.5539      2.00000
     53       1.6718      2.00000
     54       1.7248      2.00000
     55       1.7552      2.00000
     56       1.7740      2.00000
     57       1.7915      2.00000
     58       1.7989      2.00000
     59       1.9729      2.00000
     60       2.0061      2.00000
     61       2.0797      2.00000
     62       2.0983      2.00000
     63       2.1762      2.00000
     64       2.2833      2.00000
     65       2.3239      2.00000
     66       2.4248      2.00000
     67       2.4896      2.00000
     68       2.6095      2.00000
     69       2.6283      2.00000
     70       2.7019      2.00000
     71       2.7218      2.00000
     72       2.7521      2.00000
     73       2.8142      2.00000
     74       2.9915      2.00000
     75       3.0343      2.00000
     76       3.0537      2.00000
     77       3.0996      2.00000
     78       3.1334      2.00000
     79       3.1790      2.00000
     80       3.2477      2.00000
     81       3.2810      2.00000
     82       3.3306      2.00000
     83       3.3634      2.00000
     84       3.4340      2.00000
     85       3.4796      2.00000
     86       3.5243      2.00000
     87       3.6285      2.00000
     88       3.7095      2.00000
     89       3.7338      2.00000
     90       3.7745      2.00000
     91       3.8707      2.00000
     92       3.8747      2.00000
     93       4.0382      2.00000
     94       4.0996      2.00000
     95       4.2318      2.00000
     96       4.3002      2.00000
     97       4.3432      2.00000
     98       4.3805      2.00000
     99       4.4018      2.00000
    100       4.4467      2.00000
    101       4.4782      2.00000
    102       4.5244      2.00000
    103       4.6042      2.00000
    104       4.6333      2.00000
    105       4.8000      2.00000
    106       4.8297      2.00000
    107       4.9743      2.00000
    108       5.5830      2.00000
    109       6.6305      0.00000
    110       6.8781      0.00000
    111       6.9143      0.00000
    112       7.0658      0.00000
    113       7.1451      0.00000
    114       7.2706      0.00000
    115       7.4043      0.00000
    116       7.4675      0.00000
    117       7.5052      0.00000
    118       7.5396      0.00000
    119       7.5746      0.00000
    120       7.6051      0.00000
    121       7.6140      0.00000
    122       7.7211      0.00000
    123       7.8066      0.00000
    124       8.0173      0.00000
    125       8.1180      0.00000
    126       8.1416      0.00000
    127       8.1642      0.00000
    128       8.2418      0.00000
    129       8.2904      0.00000
    130       8.3111      0.00000
    131       8.3357      0.00000
    132       8.3394      0.00000
    133       8.3499      0.00000
    134       8.3579      0.00000
    135       8.3908      0.00000
    136       8.5404      0.00000
    137       8.5857      0.00000
    138       8.6279      0.00000
    139       8.7604      0.00000
    140       8.8440      0.00000
    141       8.9135      0.00000
    142       8.9293      0.00000
    143       9.0060      0.00000
    144       9.0312      0.00000

 k-point     7 :       0.5000    0.5000    0.0000
  band No.  band energies     occupation 
      1      -6.3426      2.00000
      2      -5.7643      2.00000
      3      -5.5841      2.00000
      4      -5.3187      2.00000
      5      -5.3178      2.00000
      6      -5.2253      2.00000
      7      -4.7039      2.00000
      8      -4.0618      2.00000
      9      -4.0108      2.00000
     10      -3.9939      2.00000
     11      -3.9807      2.00000
     12      -3.9761      2.00000
     13      -3.9070      2.00000
     14      -3.9020      2.00000
     15      -3.8593      2.00000
     16      -3.8174      2.00000
     17      -3.7901      2.00000
     18      -3.7707      2.00000
     19      -3.7531      2.00000
     20      -3.7171      2.00000
     21      -3.6678      2.00000
     22      -3.3338      2.00000
     23      -2.3830      2.00000
     24      -2.1485      2.00000
     25      -2.0786      2.00000
     26      -2.0615      2.00000
     27      -2.0271      2.00000
     28      -2.0151      2.00000
     29      -1.9819      2.00000
     30      -1.9234      2.00000
     31      -1.9196      2.00000
     32      -1.6603      2.00000
     33      -1.0217      2.00000
     34      -0.9952      2.00000
     35      -0.9167      2.00000
     36      -0.9138      2.00000
     37      -0.9010      2.00000
     38      -0.8884      2.00000
     39      -0.8009      2.00000
     40      -0.7293      2.00000
     41      -0.1113      2.00000
     42      -0.0463      2.00000
     43       0.0344      2.00000
     44       0.0495      2.00000
     45       0.0665      2.00000
     46       0.0946      2.00000
     47       0.1856      2.00000
     48       0.2712      2.00000
     49       1.6844      2.00000
     50       1.6943      2.00000
     51       1.8696      2.00000
     52       1.9641      2.00000
     53       1.9988      2.00000
     54       1.9994      2.00000
     55       2.0349      2.00000
     56       2.0493      2.00000
     57       2.0543      2.00000
     58       2.0545      2.00000
     59       2.0635      2.00000
     60       2.0642      2.00000
     61       2.1017      2.00000
     62       2.1149      2.00000
     63       2.1330      2.00000
     64       2.1531      2.00000
     65       2.1613      2.00000
     66       2.1936      2.00000
     67       2.2312      2.00000
     68       2.3317      2.00000
     69       2.7547      2.00000
     70       2.7678      2.00000
     71       2.8347      2.00000
     72       2.8537      2.00000
     73       2.8975      2.00000
     74       2.9115      2.00000
     75       2.9473      2.00000
     76       2.9483      2.00000
     77       2.9877      2.00000
     78       3.0127      2.00000
     79       3.1948      2.00000
     80       3.2082      2.00000
     81       3.2989      2.00000
     82       3.3084      2.00000
     83       3.3537      2.00000
     84       3.3744      2.00000
     85       3.3898      2.00000
     86       3.3930      2.00000
     87       3.4123      2.00000
     88       3.4467      2.00000
     89       3.5259      2.00000
     90       3.5551      2.00000
     91       3.6508      2.00000
     92       3.7143      2.00000
     93       3.7459      2.00000
     94       3.8987      2.00000
     95       3.9121      2.00000
     96       3.9224      2.00000
     97       3.9277      2.00000
     98       3.9594      2.00000
     99       4.1032      2.00000
    100       4.1203      2.00000
    101       4.4507      2.00000
    102       4.5114      2.00000
    103       4.5521      2.00000
    104       4.6226      2.00000
    105       5.0847      2.00000
    106       5.1271      2.00000
    107       5.1423      2.00000
    108       5.3045      2.00000
    109       6.3867      1.97762
    110       6.4161      1.85299
    111       7.2731      0.00000
    112       7.3965      0.00000
    113       7.5464      0.00000
    114       7.6615      0.00000
    115       7.7144      0.00000
    116       7.7345      0.00000
    117       7.7393      0.00000
    118       7.7486      0.00000
    119       7.7530      0.00000
    120       7.9178      0.00000
    121       8.2606      0.00000
    122       8.2943      0.00000
    123       8.3209      0.00000
    124       8.4059      0.00000
    125       8.4157      0.00000
    126       8.4363      0.00000
    127       8.4444      0.00000
    128       8.4770      0.00000
    129       8.4971      0.00000
    130       8.5106      0.00000
    131       8.5284      0.00000
    132       8.5532      0.00000
    133       8.5564      0.00000
    134       8.5642      0.00000
    135       8.6095      0.00000
    136       8.6614      0.00000
    137       8.6696      0.00000
    138       8.7091      0.00000
    139       8.7438      0.00000
    140       8.8382      0.00000
    141       9.1313      0.00000
    142       9.1462      0.00000
    143       9.2600      0.00000
[...]
   50        0.753   0.941   0.000   1.693
   51        0.753   0.935   0.000   1.689
   52        0.753   0.944   0.000   1.696
   53        0.655   1.093   0.000   1.748
   54        1.026   1.432   0.000   2.458
--------------------------------------------------
tot         40.829  51.021   0.000  91.850
 
    CHARGE:  cpu time    0.2239: real time    0.2256
    FORLOC:  cpu time    0.0353: real time    0.0355
    FORNL :  cpu time    3.0754: real time    3.0982
    STRESS:  cpu time   10.1450: real time   10.2285
    FORCOR:  cpu time    0.1110: real time    0.1117
    FORHAR:  cpu time    0.0493: real time    0.0496
    MIXING:  cpu time    0.0070: real time    0.0071
    OFIELD:  cpu time    0.0001: real time    0.0001

  FORCE on cell =-STRESS in cart. coord.  units (eV):
  Direction    XX          YY          ZZ          XY          YZ          ZX
  --------------------------------------------------------------------------------------
  Alpha Z    96.03251    96.03251    96.03251
  Ewald   -2058.44650 -2059.03667 -2056.08582     0.83462     1.44562     2.04441
  Hartree   140.67933   140.24990   142.39703     0.60730     1.05187     1.48757
  E(xc)    -686.34824  -686.35241  -686.33155     0.00590     0.01022     0.01446
  Local    -798.22364  -797.22294  -802.22643    -1.41520    -2.45120    -3.46652
  n-local  2065.36533  2078.99033  2083.65939    -0.68928    -3.16536    -0.42179
  augment  -313.86037  -313.83579  -313.95872    -0.03477    -0.06023    -0.08517
  Kinetic  1532.33930  1559.71771  1569.62195    -3.57894    -6.98265    -2.54178
  Fock        0.00000     0.00000     0.00000     0.00000     0.00000     0.00000
  -------------------------------------------------------------------------------------
  Total       9.68656     9.64355     9.85860     0.06083     0.10535     0.14899
  in kB      14.35677    14.29302    14.61176     0.09015     0.15615     0.22083
  external pressure =       14.42 kB  Pullay stress =        0.00 kB


 VOLUME and BASIS-vectors are now :
 -----------------------------------------------------------------------------
  energy-cutoff  :      550.00
  volume of cell :     1080.99
      direct lattice vectors                 reciprocal lattice vectors
     9.976465530  0.000000000  5.759915070     0.100235900 -0.035438742  0.000000000
     3.325488510  9.405901920  5.759915070     0.000000000  0.106316227  0.000000000
     0.000000000  0.000000000 11.519830140    -0.050117950 -0.035438742  0.086806836

  length of vectors
    11.519830124 11.519830136 11.519830140     0.106316227  0.106316227  0.106316227


 FORCES acting on ions
    electron-ion (+dipol)            ewald-force                    non-local-force                 convergence-correction
 -----------------------------------------------------------------------------------------------
   0.305E+01 0.216E+01 -.120E+02   -.316E+01 -.224E+01 0.116E+02   0.118E+00 0.834E-01 0.474E+00   -.159E-02 -.112E-02 -.233E-02
   -.228E+01 -.161E+01 0.230E+01   0.143E+01 0.101E+01 -.257E+01   0.844E+00 0.597E+00 0.266E+00   -.173E-02 -.123E-02 0.163E-02
   -.195E+01 -.120E+02 -.338E+01   0.175E+01 0.117E+02 0.304E+01   0.196E+00 0.304E+00 0.339E+00   -.147E-02 -.782E-03 -.254E-02
   -.118E+00 -.156E+01 -.261E+01   0.156E+00 0.141E+01 0.239E+01   -.397E-01 0.150E+00 0.222E+00   -.146E-04 0.529E-03 0.856E-03
   -.147E+01 -.300E+01 0.524E+01   0.138E+01 0.332E+01 -.474E+01   0.932E-01 -.313E+00 -.503E+00   -.578E-03 0.192E-04 0.827E-03
   -.474E+00 0.349E+01 -.821E+00   -.249E-01 -.311E+01 -.432E-01   0.499E+00 -.379E+00 0.864E+00   -.396E-03 0.256E-02 -.685E-03
   0.170E+01 0.597E+01 -.252E+00   -.178E+01 -.562E+01 0.739E+00   0.801E-01 -.350E+00 -.480E+00   -.252E-03 0.941E-03 0.262E-03
   -.706E+00 0.819E+00 0.930E+00   0.456E+00 -.495E+00 -.546E+00   0.246E+00 -.317E+00 -.375E+00   -.936E-03 0.840E-03 0.831E-03
   -.119E+02 0.216E+01 -.338E+01   0.116E+02 -.224E+01 0.304E+01   0.352E+00 0.834E-01 0.339E+00   -.123E-02 -.112E-02 -.254E-02
   -.151E+01 0.408E+00 -.261E+01   0.138E+01 -.323E+00 0.239E+01   0.128E+00 -.875E-01 0.222E+00   0.494E-03 -.190E-03 0.856E-03
   -.332E+01 -.387E+00 0.524E+01   0.359E+01 0.192E+00 -.474E+01   -.264E+00 0.192E+00 -.503E+00   -.175E-03 -.552E-03 0.827E-03
   -.220E+01 -.156E+01 -.141E+01   0.199E+01 0.141E+01 0.133E+01   0.212E+00 0.150E+00 0.767E-01   0.749E-03 0.529E-03 0.415E-03
   0.492E-01 0.348E-01 0.852E-01   -.257E-01 -.182E-01 -.445E-01   -.223E-01 -.158E-01 -.386E-01   -.236E-03 -.167E-03 -.408E-03
   -.275E+01 -.194E+01 0.145E+01   0.258E+01 0.183E+01 -.140E+01   0.172E+00 0.121E+00 -.574E-01   0.340E-03 0.241E-03 0.297E-03
   -.107E+01 0.597E+01 0.135E+01   0.153E+01 -.562E+01 -.118E+01   -.456E+00 -.350E+00 -.171E+00   0.353E-03 0.941E-03 -.876E-04
   -.954E+00 0.313E+01 -.165E+01   0.888E+00 -.297E+01 0.154E+01   0.693E-01 -.168E+00 0.120E+00   0.256E-03 0.162E-05 0.443E-03
   -.573E-01 0.237E+00 0.354E+00   0.624E-01 -.270E+00 -.405E+00   -.381E-02 0.319E-01 0.500E-01   -.206E-02 0.460E-03 -.441E-03
   0.313E+01 -.161E+01 -.821E+00   -.294E+01 0.101E+01 -.432E-01   -.191E+00 0.597E+00 0.864E+00   0.228E-02 -.123E-02 -.685E-03
   0.619E+01 -.387E+00 -.252E+00   -.590E+01 0.192E+00 0.739E+00   -.303E+00 0.192E+00 -.480E+00   0.803E-03 -.552E-03 0.262E-03
   0.537E+00 -.939E+00 0.930E+00   -.315E+00 0.595E+00 -.546E+00   -.217E+00 0.338E+00 -.375E+00   0.480E-03 -.116E-02 0.831E-03
   0.527E+01 -.300E+01 0.135E+01   -.479E+01 0.332E+01 -.118E+01   -.482E+00 -.313E+00 -.171E+00   0.101E-02 0.192E-04 -.876E-04
   0.263E+01 -.194E+01 -.165E+01   -.250E+01 0.183E+01 0.154E+01   -.136E+00 0.121E+00 0.120E+00   0.868E-04 0.241E-03 0.443E-03
   0.204E+00 -.133E+00 0.354E+00   -.234E+00 0.149E+00 -.405E+00   0.288E-01 -.142E-01 0.500E-01   -.254E-03 -.210E-02 -.441E-03
   0.116E+01 0.819E+00 -.146E+00   -.701E+00 -.495E+00 0.122E+00   -.448E+00 -.317E+00 0.257E-01   0.119E-02 0.840E-03 -.395E-03
   0.335E+00 0.237E+00 0.127E+00   -.382E+00 -.270E+00 -.148E+00   0.452E-01 0.319E-01 0.217E-01   0.651E-03 0.460E-03 -.201E-02
   -.134E-01 -.948E-02 -.232E-01   0.297E-01 0.210E-01 0.514E-01   -.134E-01 -.945E-02 -.232E-01   0.108E-02 0.765E-03 0.187E-02
   -.511E+00 -.361E+00 -.885E+00   0.544E+00 0.385E+00 0.942E+00   -.350E-01 -.248E-01 -.606E-01   0.597E-03 0.422E-03 0.103E-02
   0.709E+00 0.502E+00 0.860E+00   -.731E+00 -.517E+00 -.931E+00   0.318E-01 0.225E-01 0.769E-01   0.693E-03 0.490E-03 -.965E-03
   0.230E+01 0.162E+01 0.827E-01   -.228E+01 -.161E+01 -.588E-01   -.249E-01 -.176E-01 -.255E-01   0.164E-02 0.116E-02 0.553E-03
   0.603E+00 0.200E+00 0.104E+01   -.634E+00 -.243E+00 -.110E+01   0.381E-01 0.402E-01 0.660E-01   0.682E-04 -.128E-02 0.118E-03
   0.870E+01 0.613E+00 0.603E+01   -.118E+02 0.762E+00 -.555E+01   0.305E+01 -.137E+01 -.474E+00   0.265E-02 -.110E-02 -.265E-03
   0.227E+01 0.197E+01 -.710E+01   -.208E+01 -.163E+01 0.652E+01   -.185E+00 -.340E+00 0.588E+00   -.208E-03 -.605E-03 -.303E-03
   0.117E+01 -.156E+01 0.203E+01   -.116E+01 0.156E+01 -.200E+01   -.198E-01 -.323E-02 -.343E-01   0.981E-03 -.710E-03 0.170E-02
   -.109E+01 -.753E+01 -.129E+01   0.915E+00 0.684E+01 0.133E+01   0.176E+00 0.680E+00 -.367E-01   0.250E-04 0.526E-04 -.706E-03
   0.234E+00 -.552E+00 -.767E+00   -.227E+00 0.509E+00 0.700E+00   -.886E-02 0.448E-01 0.681E-01   -.625E-04 -.742E-03 -.125E-02
   0.390E+00 0.502E+00 0.104E+01   -.441E+00 -.517E+00 -.110E+01   0.506E-01 0.225E-01 0.660E-01   -.118E-02 0.490E-03 0.118E-03
   0.348E+01 0.800E+01 0.603E+01   -.320E+01 -.113E+02 -.555E+01   -.273E+00 0.333E+01 -.474E+00   -.153E-03 0.287E-02 -.265E-03
   0.261E+01 0.148E+01 -.710E+01   -.223E+01 -.142E+01 0.652E+01   -.382E+00 -.610E-01 0.588E+00   -.640E-03 0.601E-05 -.303E-03
   0.867E+00 0.613E+00 0.105E+02   0.108E+01 0.762E+00 -.130E+02   -.193E+01 -.137E+01 0.240E+01   -.156E-02 -.110E-02 0.216E-02
   0.429E+01 0.303E+01 -.412E+01   -.348E+01 -.246E+01 0.367E+01   -.815E+00 -.576E+00 0.429E+00   0.310E-03 0.219E-03 0.121E-02
   -.573E+00 -.753E+01 -.159E+01   0.693E+00 0.684E+01 0.146E+01   -.120E+00 0.680E+00 0.134E+00   -.624E-03 0.526E-04 -.331E-03
   0.955E+00 -.639E+01 0.165E+01   -.679E+00 0.546E+01 -.118E+01   -.283E+00 0.927E+00 -.491E+00   0.503E-03 0.767E-03 0.872E-03
   0.786E+00 -.426E+00 -.241E+00   -.600E+00 0.145E+00 -.110E+00   -.181E+00 0.283E+00 0.358E+00   -.145E-02 0.460E-03 -.836E-04
   -.108E+01 0.162E+01 0.203E+01   0.109E+01 -.161E+01 -.200E+01   -.966E-02 -.176E-01 -.343E-01   -.343E-03 0.116E-02 0.170E-02
   -.746E+01 0.148E+01 -.129E+01   0.676E+01 -.142E+01 0.133E+01   0.700E+00 -.610E-01 -.367E-01   0.579E-04 0.601E-05 -.706E-03
   -.443E+00 0.405E+00 -.767E+00   0.404E+00 -.384E+00 0.700E+00   0.393E-01 -.233E-01 0.681E-01   -.721E-03 0.188E-03 -.125E-02
   -.729E+01 0.197E+01 -.159E+01   0.668E+01 -.163E+01 0.146E+01   0.602E+00 -.340E+00 0.134E+00   -.158E-03 -.605E-03 -.331E-03
   -.571E+01 0.303E+01 0.165E+01   0.492E+01 -.246E+01 -.118E+01   0.779E+00 -.576E+00 -.491E+00   0.890E-03 0.219E-03 0.872E-03
   -.139E+00 0.883E+00 -.241E+00   -.632E-01 -.614E+00 -.110E+00   0.207E+00 -.265E+00 0.358E+00   -.483E-04 -.152E-02 -.836E-04
   -.781E+00 -.552E+00 -.180E+00   0.720E+00 0.509E+00 0.153E+00   0.634E-01 0.448E-01 0.264E-01   -.105E-02 -.742E-03 -.678E-03
   -.602E+00 -.426E+00 0.560E+00   0.205E+00 0.145E+00 -.574E+00   0.401E+00 0.283E+00 0.222E-01   0.651E-03 0.460E-03 -.129E-02
   -.241E+00 -.170E+00 -.417E+00   0.263E+00 0.186E+00 0.456E+00   -.246E-01 -.174E-01 -.426E-01   0.102E-02 0.725E-03 0.177E-02
   -.396E+01 -.280E+01 -.686E+01   0.491E+01 0.347E+01 0.850E+01   -.956E+00 -.676E+00 -.166E+01   -.216E-02 -.153E-02 -.374E-02
   0.581E+01 0.411E+01 0.101E+02   -.567E+01 -.401E+01 -.983E+01   -.146E+00 -.103E+00 -.253E+00   0.116E-02 0.818E-03 0.200E-02
 -----------------------------------------------------------------------------------------------
   -.124E+01 -.880E+00 -.215E+01   0.613E-13 -.711E-14 -.711E-14   0.124E+01 0.880E+00 0.216E+01   -.249E-03 -.176E-03 -.432E-03
 
 
 POSITION                                       TOTAL-FORCE (eV/Angst)
 -----------------------------------------------------------------------------------
      3.98942      2.82094     10.34996         0.002356      0.001666     -0.010157
      3.87504      2.74007     14.40204        -0.000364     -0.000257     -0.000526
      4.98248      5.62976      8.62991        -0.001754     -0.009959     -0.003038
      4.99408      5.87332     12.47442        -0.001570      0.003062      0.004093
      4.99061      5.88231     16.34051         0.000026      0.009207     -0.001522
      6.09503      9.01914     10.55690        -0.000334     -0.000172     -0.000578
      6.10299      9.02860     14.41380        -0.004758     -0.004324      0.006764
      6.09815      9.00897     18.23235        -0.004728      0.007571      0.009633
      6.96862      2.82094      8.62991        -0.009974      0.001666     -0.003038
      7.20211      2.75069     12.47442         0.002363     -0.002501      0.004093
      7.20943      2.74442     16.34051         0.008689     -0.003044     -0.001522
      8.30612      5.87332     10.56221         0.004330      0.003062      0.000686
      8.31567      5.88007     14.40316         0.000958      0.000677      0.001659
      8.30508      5.87258     18.23456         0.006203      0.004386      0.001230
      9.43122      9.02860     12.49225         0.008236     -0.004324     -0.000738
      9.41641      9.01588     16.30969         0.003457     -0.003382      0.005987
      9.42247      9.01251     20.15743        -0.000766     -0.000462     -0.001196
     10.53501      2.74007     10.55690        -0.000273     -0.000257     -0.000578
     10.54658      2.74442     14.41380        -0.005663     -0.003044      0.006764
     10.52645      2.74640     18.23235         0.005562     -0.006981      0.009633
     11.65599      5.88231     12.49225        -0.001331      0.009207     -0.000738
     11.63905      5.87258     16.30969        -0.002036      0.004386      0.005987
     11.63790      5.87942     20.15743        -0.000691     -0.000569     -0.001196
     12.74060      9.00897     14.39732         0.010707      0.007571      0.000722
     12.74561      9.01251     18.23882        -0.000653     -0.000462     -0.001262
     12.74973      9.01542     22.08319         0.003992      0.002823      0.006915
      0.55761      0.39429      0.96581        -0.001310     -0.000926     -0.002269
      0.55073      0.38942      4.79497         0.011195      0.007916      0.004858
      0.55491      0.39238      8.63949        -0.002455     -0.001736     -0.001107
      1.65955      3.52565      2.87442         0.007000     -0.003950      0.012124
      1.71736      3.51865      6.73745        -0.014218      0.006270      0.002030
      1.71849      3.51924     10.55375         0.004264      0.000418      0.001873
      2.77146      6.66173      4.80031        -0.001547      0.000832     -0.002680
      2.81970      6.63392      8.64640         0.003897     -0.000620      0.002509
      2.77299      6.65791     12.47331        -0.001753      0.000756      0.000222
      3.87720      0.38942      2.87442        -0.001391      0.007916      0.012124
      3.88987      0.44626      6.73745         0.001172     -0.015495      0.002030
      3.89080      0.44713     10.55375         0.001816      0.003881      0.001873
      4.97612      3.51865      4.85601         0.008867      0.006270     -0.011298
      4.97992      3.52134     12.42645        -0.005451     -0.003855     -0.015805
      6.07816      6.63392      6.76513         0.000224     -0.000620      0.004629
      6.07717      6.62481     10.52596        -0.007288     -0.009050     -0.012624
      6.09787      6.65898     14.39468         0.003391      0.003246      0.007259
      7.20456      0.39238      4.80031         0.000269     -0.001736     -0.002680
      7.19441      0.44713      8.64640         0.000714      0.003881      0.002509
      7.20147      0.39510     12.47331         0.000128     -0.001905      0.000222
      8.28057      3.51924      6.76513        -0.000510      0.000418      0.004629
      8.27166      3.52134     10.52596        -0.010962     -0.003855     -0.012624
      8.31077      3.52947     14.39468         0.004191      0.002115      0.007259
      9.41571      6.65791      8.63814         0.001069      0.000756     -0.001407
      9.41723      6.65898     12.47825         0.004591      0.003246      0.006566
      9.42430      6.66399     16.32337        -0.001243     -0.000879     -0.002153
      4.97286      3.51634      8.61324        -0.014289     -0.010104     -0.024749
      3.98746      2.81956      6.90648        -0.012353     -0.008735     -0.021397
 -----------------------------------------------------------------------------------
    total drift:                                0.000577      0.000408      0.000999


--------------------------------------------------------------------------------------------------------



  FREE ENERGIE OF THE ION-ELECTRON SYSTEM (eV)
  ---------------------------------------------------
  free  energy   TOTEN  =      -287.38441094 eV

  energy  without entropy=     -287.36851062  energy(sigma->0) =     -287.37646078
 
 d Force = 0.8916993E-03[ 0.512E-03, 0.127E-02]  d Energy = 0.8871754E-03 0.452E-05
 d Force =-0.1275903E+00[-0.129E+00,-0.126E+00]  d Ewald  =-0.1275937E+00 0.336E-05


--------------------------------------------------------------------------------------------------------


    POTLOK:  cpu time    0.0884: real time    0.0918


--------------------------------------------------------------------------------------------------------


 Conjugate gradient step on ions:
 trial-energy change:   -0.000887  1 .order   -0.000892   -0.001271   -0.000512
  (g-gl).g = 0.895E-03      g.g   = 0.913E-03  gl.gl    = 0.351E-02
 g(Force)  = 0.913E-03   g(Stress)= 0.000E+00 ortho     = 0.348E-04
 gamma     =   0.25516
 trial     =   1.37954
 opt step  =   2.30991  (harmonic =   2.30991) maximal distance =0.00210486
 next E    =  -287.384588   (d E  =  -0.00106)


--------------------------------------------------------------------------------------------------------


  
 reached required accuracy - stopping structural energy minimisation
 writing wavefunctions
     LOOP+:  cpu time   54.4008: real time   54.9283
    4ORBIT:  cpu time    0.0000: real time    0.0000
 


 total charge     
 
# of ion       s       p       d       tot
------------------------------------------
    1        0.751   0.904   0.000   1.654
    2        0.754   0.926   0.000   1.680
    3        0.750   0.902   0.000   1.652
    4        0.753   0.943   0.000   1.696
    5        0.753   0.938   0.000   1.691
    6        0.752   0.926   0.000   1.678
    7        0.754   0.937   0.000   1.691
    8        0.752   0.932   0.000   1.684
    9        0.751   0.902   0.000   1.653
   10        0.753   0.943   0.000   1.696
   11        0.752   0.937   0.000   1.690
   12        0.753   0.943   0.000   1.696
   13        0.752   0.945   0.000   1.697
   14        0.753   0.942   0.000   1.695
   15        0.753   0.938   0.000   1.691
   16        0.753   0.942   0.000   1.695
   17        0.752   0.942   0.000   1.694
   18        0.752   0.926   0.000   1.678
   19        0.753   0.937   0.000   1.690
   20        0.752   0.933   0.000   1.685
   21        0.754   0.937   0.000   1.691
   22        0.753   0.942   0.000   1.695
   23        0.752   0.942   0.000   1.694
   24        0.753   0.932   0.000   1.685
   25        0.753   0.942   0.000   1.694
   26        0.753   0.942   0.000   1.694
   27        0.753   0.943   0.000   1.696
   28        0.752   0.944   0.000   1.696
   29        0.753   0.943   0.000   1.695
   30        0.753   0.944   0.000   1.697
   31        0.754   0.896   0.000   1.650
   32        0.753   0.933   0.000   1.686
   33        0.752   0.943   0.000   1.695
   34        0.753   0.932   0.000   1.686
   35        0.753   0.941   0.000   1.694
   36        0.753   0.944   0.000   1.697
   37        0.756   0.893   0.000   1.649
   38        0.753   0.932   0.000   1.685
   39        0.757   0.893   0.000   1.650
   40        0.755   0.924   0.000   1.679
   41        0.753   0.932   0.000   1.685
   42        0.753   0.923   0.000   1.676
   43        0.753   0.935   0.000   1.688
   44        0.752   0.943   0.000   1.695
   45        0.753   0.933   0.000   1.686
   46        0.753   0.941   0.000   1.693
   47        0.753   0.934   0.000   1.687
   48        0.753   0.923   0.000   1.675
   49        0.752   0.934   0.000   1.686
   50        0.753   0.941   0.000   1.693
   51        0.753   0.935   0.000   1.689
   52        0.753   0.944   0.000   1.696
   53        0.655   1.093   0.000   1.748
   54        1.026   1.432   0.000   2.458
--------------------------------------------------
tot         40.829  51.021   0.000  91.850
 

 total amount of memory used by VASP MPI-rank0   203693. kBytes
=======================================================================

   base      :      30000. kBytes
   nonl-proj :     106606. kBytes
   fftplans  :       5382. kBytes
   grid      :      21405. kBytes
   one-center:        165. kBytes
   wavefun   :      40135. kBytes
 
  
  
 General timing and accounting informations for this job:
 ========================================================
  
                  Total CPU time used (sec):      612.429
                            User time (sec):      605.161
                          System time (sec):        7.267
                         Elapsed time (sec):      622.587
  
                   Maximum memory used (kb):      518312.
                   Average memory used (kb):           0.
  
                          Minor page faults:        40865
                          Major page faults:            0
                 Voluntary context switches:         5674
