 vasp.5.4.4.18Apr17-6-g9f103f2a35 (build Jun 19 2019 10:34:07) complex          
  
 executed on               LB-5.4 date 2023.05.15  18:34:05
 running on   96 total cores
 distrk:  each k-point on   24 cores,    4 groups
 distr:  one band on NCORES_PER_BAND=   1 cores,   24 groups


--------------------------------------------------------------------------------------------------------


 INCAR:
 POTCAR:    PAW_PBE P 06Sep2000                   
 POTCAR:    PAW_PBE Si 05Jan2001                  

 ----------------------------------------------------------------------------- 
|                                                                             |
|           W    W    AA    RRRRR   N    N  II  N    N   GGGG   !!!           |
|           W    W   A  A   R    R  NN   N  II  NN   N  G    G  !!!           |
|           W    W  A    A  R    R  N N  N  II  N N  N  G       !!!           |
|           W WW W  AAAAAA  RRRRR   N  N N  II  N  N N  G  GGG   !            |
|           WW  WW  A    A  R   R   N   NN  II  N   NN  G    G                |
|           W    W  A    A  R    R  N    N  II  N    N   GGGG   !!!           |
|                                                                             |
|      For optimal performance we recommend to set                            |
|        NCORE= 4 - approx SQRT( number of cores)                             |
|      NCORE specifies how many cores store one orbital (NPAR=cpu/NCORE).     |
|      This setting can  greatly improve the performance of VASP for DFT.     |
|      The default,   NCORE=1            might be grossly inefficient         |
|      on modern multi-core architectures or massively parallel machines.     |
|      Do your own testing !!!!                                               |
|      Unfortunately you need to use the default for GW and RPA calculations. |
|      (for HF NCORE is supported but not extensively tested yet)             |
|                                                                             |
 ----------------------------------------------------------------------------- 


 ----------------------------------------------------------------------------- 
|                                                                             |
|           W    W    AA    RRRRR   N    N  II  N    N   GGGG   !!!           |
|           W    W   A  A   R    R  NN   N  II  NN   N  G    G  !!!           |
|           W    W  A    A  R    R  N N  N  II  N N  N  G       !!!           |
|           W WW W  AAAAAA  RRRRR   N  N N  II  N  N N  G  GGG   !            |
|           WW  WW  A    A  R   R   N   NN  II  N   NN  G    G                |
|           W    W  A    A  R    R  N    N  II  N    N   GGGG   !!!           |
|                                                                             |
|      You have enabled k-point parallelism (KPAR>1).                         |
|      This developmental code was originally  written by Paul Kent at ORNL,  |
|      and carefully double checked in Vienna.                                |
|      GW as well as linear response parallelism added by Martijn Marsman     |
|      and Georg Kresse.                                                      |
|      Carefully verify results versus KPAR=1.                                |
|      Report problems to Paul Kent and Vienna.                               |
|                                                                             |
 ----------------------------------------------------------------------------- 

 POTCAR:    PAW_PBE P 06Sep2000                   
   VRHFIN =P : s2p3                                                             
   LEXCH  = PE                                                                  
   EATOM  =   176.0430 eV,   12.9388 Ry                                         
                                                                                
   TITEL  = PAW_PBE P 06Sep2000                                                 
   LULTRA =        F    use ultrasoft PP ?                                      
   IUNSCR =        1    unscreen: 0-lin 1-nonlin 2-no                           
   RPACOR =    1.500    partial core radius                                     
   POMASS =   30.974; ZVAL   =    5.000    mass and valenz                      
   RCORE  =    1.900    outmost cutoff radius                                   
   RWIGS  =    2.330; RWIGS  =    1.233    wigner-seitz radius (au A)           
   ENMAX  =  255.040; ENMIN  =  191.280 eV                                      
   ICORE  =        2    local potential                                         
   LCOR   =        T    correct aug charges                                     
   LPAW   =        T    paw PP                                                  
   EAUG   =  342.924                                                            
   DEXC   =    0.000                                                            
   RMAX   =    1.935    core radius for proj-oper                               
   RAUG   =    1.300    factor for augmentation sphere                          
   RDEP   =    1.931    radius for radial grids                                 
   RDEPT  =    1.794    core radius for aug-charge                              
                                                                                
   Atomic configuration                                                         
    6 entries                                                                   
     n  l   j            E        occ.                                          
     1  0  0.50     -2084.0982   2.0000                                         
     2  0  0.50      -173.9859   2.0000                                         
     2  1  1.50      -124.4865   6.0000                                         
     3  0  0.50       -13.9692   2.0000                                         
     3  1  0.50        -5.5067   3.0000                                         
     3  2  1.50        -5.4423   0.0000                                         
   Description                                                                  
     l       E           TYP  RCUT    TYP  RCUT                                 
     0    -13.9691527     23  1.900                                             
     0    -11.7794650     23  1.900                                             
     1     -5.5066937     23  1.900                                             
     1     -0.2556953     23  1.900                                             
     2     -5.4423304     23  1.900                                             
  local pseudopotential read in
  partial core-charges read in
  partial kinetic energy density read in
  atomic valenz-charges read in
  non local Contribution for L=           0  read in
    real space projection operators read in
  non local Contribution for L=           0  read in
    real space projection operators read in
  non local Contribution for L=           1  read in
    real space projection operators read in
  non local Contribution for L=           1  read in
    real space projection operators read in
    PAW grid and wavefunctions read in
 
   number of l-projection  operators is LMAX  =           4
   number of lm-projection operators is LMMAX =           8
 
 POTCAR:    PAW_PBE Si 05Jan2001                  
   VRHFIN =Si: s2p2                                                             
   LEXCH  = PE                                                                  
   EATOM  =   103.0669 eV,    7.5752 Ry                                         
                                                                                
   TITEL  = PAW_PBE Si 05Jan2001                                                
   LULTRA =        F    use ultrasoft PP ?                                      
   IUNSCR =        1    unscreen: 0-lin 1-nonlin 2-no                           
   RPACOR =    1.500    partial core radius                                     
   POMASS =   28.085; ZVAL   =    4.000    mass and valenz                      
   RCORE  =    1.900    outmost cutoff radius                                   
   RWIGS  =    2.480; RWIGS  =    1.312    wigner-seitz radius (au A)           
   ENMAX  =  245.345; ENMIN  =  184.009 eV                                      
   ICORE  =        2    local potential                                         
   LCOR   =        T    correct aug charges                                     
   LPAW   =        T    paw PP                                                  
   EAUG   =  322.069                                                            
   DEXC   =    0.000                                                            
   RMAX   =    1.950    core radius for proj-oper                               
   RAUG   =    1.300    factor for augmentation sphere                          
   RDEP   =    1.993    radius for radial grids                                 
   RDEPT  =    1.837    core radius for aug-charge                              
                                                                                
   Atomic configuration                                                         
    6 entries                                                                   
     n  l   j            E        occ.                                          
     1  0  0.50     -1785.8828   2.0000                                         
     2  0  0.50      -139.4969   2.0000                                         
     2  1  1.50       -95.5546   6.0000                                         
     3  0  0.50       -10.8127   2.0000                                         
     3  1  0.50        -4.0811   2.0000                                         
     3  2  1.50        -4.0817   0.0000                                         
   Description                                                                  
     l       E           TYP  RCUT    TYP  RCUT                                 
     0    -10.8127223     23  1.900                                             
     0     -7.6451159     23  1.900                                             
     1     -4.0811372     23  1.900                                             
     1      2.4879257     23  1.900                                             
     2     -4.0817478      7  1.900                                             
  local pseudopotential read in
  partial core-charges read in
  partial kinetic energy density read in
  atomic valenz-charges read in
  non local Contribution for L=           0  read in
    real space projection operators read in
  non local Contribution for L=           0  read in
    real space projection operators read in
  non local Contribution for L=           1  read in
    real space projection operators read in
  non local Contribution for L=           1  read in
    real space projection operators read in
    PAW grid and wavefunctions read in
 
   number of l-projection  operators is LMAX  =           4
   number of lm-projection operators is LMMAX =           8
 

 ----------------------------------------------------------------------------- 
|                                                                             |
|  ADVICE TO THIS USER RUNNING 'VASP/VAMP'   (HEAR YOUR MASTER'S VOICE ...):  |
|                                                                             |
|      You have a (more or less) 'large supercell' and for larger cells       |
|      it might be more efficient to use real space projection opertators     |
|      So try LREAL= Auto  in the INCAR   file.                               |
|      Mind:          For very  accurate calculation you might also keep the  |
|      reciprocal projection scheme          (i.e. LREAL=.FALSE.)             |
|                                                                             |
 ----------------------------------------------------------------------------- 

  PAW_PBE P 06Sep2000                   :
 energy of atom  1       EATOM= -176.0430
 kinetic energy error for atom=    0.0008 (will be added to EATOM!!)
  PAW_PBE Si 05Jan2001                  :
 energy of atom  2       EATOM= -103.0669
 kinetic energy error for atom=    0.0004 (will be added to EATOM!!)
 
 
 POSCAR: Si53 P1                                 
  positions in direct lattice
  No initial velocities read in
 exchange correlation table for  LEXCH =        8
   RHO(1)=    0.500       N(1)  =     2000
   RHO(2)=  100.500       N(2)  =     4000
 


--------------------------------------------------------------------------------------------------------


 ion  position               nearest neighbor table
   1  0.292  0.292  0.292-  32 2.35  40 2.35  41 2.35  38 2.35
   2  0.292  0.292  0.625-  33 2.35  41 2.35  42 2.35  39 2.35
   3  0.292  0.292  0.958-  31 2.35  40 2.35  42 2.35  37 2.35
   4  0.292  0.625  0.292-  35 2.35  43 2.35  44 2.35  41 2.35
   5  0.292  0.625  0.625-  36 2.35  44 2.35  45 2.35  42 2.35
   6  0.292  0.625  0.958-  34 2.35  43 2.35  45 2.35  40 2.35
   7  0.292  0.958  0.292-  29 2.35  37 2.35  38 2.35  44 2.35
   8  0.292  0.958  0.625-  30 2.35  38 2.35  39 2.35  45 2.35
   9  0.292  0.958  0.958-  28 2.35  37 2.35  39 2.35  43 2.35
  10  0.625  0.292  0.292-  41 2.35  49 2.35  50 2.35  47 2.35
  11  0.625  0.292  0.625-  42 2.35  50 2.35  51 2.35  48 2.35
  12  0.625  0.292  0.958-  40 2.35  49 2.35  51 2.35  46 2.35
  13  0.625  0.625  0.292-  44 2.35  52 2.35  53 2.35  50 2.35
  14  0.625  0.625  0.625-  45 2.35  53 2.35  54 2.35  51 2.35
  15  0.625  0.625  0.958-  43 2.35  52 2.35  54 2.35  49 2.35
  16  0.625  0.958  0.292-  38 2.35  46 2.35  47 2.35  53 2.35
  17  0.625  0.958  0.625-  39 2.35  47 2.35  48 2.35  54 2.35
  18  0.625  0.958  0.958-  37 2.35  46 2.35  48 2.35  52 2.35
  19  0.958  0.292  0.292-  50 2.35  32 2.35  31 2.35  29 2.35
  20  0.958  0.292  0.625-  51 2.35  33 2.35  32 2.35  30 2.35
  21  0.958  0.292  0.958-  49 2.35  31 2.35  33 2.35  28 2.35
  22  0.958  0.625  0.292-  53 2.35  35 2.35  34 2.35  32 2.35
  23  0.958  0.625  0.625-  54 2.35  36 2.35  35 2.35  33 2.35
  24  0.958  0.625  0.958-  52 2.35  34 2.35  36 2.35  31 2.35
  25  0.958  0.958  0.292-  47 2.35  29 2.35  28 2.35  35 2.35
  26  0.958  0.958  0.625-  48 2.35  30 2.35  29 2.35  36 2.35
  27  0.958  0.958  0.958-  46 2.35  28 2.35  30 2.35  34 2.35
  28  0.042  0.042  0.042-   9 2.35  27 2.35  25 2.35  21 2.35
  29  0.042  0.042  0.375-   7 2.35  25 2.35  26 2.35  19 2.35
  30  0.042  0.042  0.708-   8 2.35  26 2.35  27 2.35  20 2.35
  31  0.042  0.375  0.042-   3 2.35  21 2.35  19 2.35  24 2.35
  32  0.042  0.375  0.375-   1 2.35  19 2.35  20 2.35  22 2.35
  33  0.042  0.375  0.708-   2 2.35  20 2.35  21 2.35  23 2.35
  34  0.042  0.708  0.042-   6 2.35  24 2.35  22 2.35  27 2.35
  35  0.042  0.708  0.375-   4 2.35  22 2.35  23 2.35  25 2.35
  36  0.042  0.708  0.708-   5 2.35  23 2.35  24 2.35  26 2.35
  37  0.375  0.042  0.042-  18 2.35   9 2.35   7 2.35   3 2.35
  38  0.375  0.042  0.375-  16 2.35   8 2.35   7 2.35   1 2.35
  39  0.375  0.042  0.708-  17 2.35   9 2.35   8 2.35   2 2.35
  40  0.375  0.375  0.042-  12 2.35   3 2.35   1 2.35   6 2.35
  41  0.375  0.375  0.375-  10 2.35   2 2.35   1 2.35   4 2.35
  42  0.375  0.375  0.708-  11 2.35   3 2.35   2 2.35   5 2.35
  43  0.375  0.708  0.042-  15 2.35   6 2.35   4 2.35   9 2.35
  44  0.375  0.708  0.375-  13 2.35   5 2.35   4 2.35   7 2.35
  45  0.375  0.708  0.708-  14 2.35   6 2.35   5 2.35   8 2.35
  46  0.708  0.042  0.042-  27 2.35  18 2.35  16 2.35  12 2.35
  47  0.708  0.042  0.375-  25 2.35  17 2.35  16 2.35  10 2.35
  48  0.708  0.042  0.708-  26 2.35  18 2.35  17 2.35  11 2.35
  49  0.708  0.375  0.042-  21 2.35  12 2.35  10 2.35  15 2.35
  50  0.708  0.375  0.375-  19 2.35  11 2.35  10 2.35  13 2.35
  51  0.708  0.375  0.708-  20 2.35  12 2.35  11 2.35  14 2.35
  52  0.708  0.708  0.042-  24 2.35  15 2.35  13 2.35  18 2.35
  53  0.708  0.708  0.375-  22 2.35  14 2.35  13 2.35  16 2.35
  54  0.708  0.708  0.708-  23 2.35  15 2.35  14 2.35  17 2.35
 
  LATTYP: Found a face centered cubic cell.
 ALAT       =    16.2915000202
  
  Lattice vectors:
  
 A1 = (   9.9764655300,   0.0000000000,   5.7599150700)
 A2 = (   3.3254885100,   9.4059019200,   5.7599150700)
 A3 = (   0.0000000000,   0.0000000000,  11.5198301400)


Analysis of symmetry for initial positions (statically):
=====================================================================
 Subroutine PRICEL returns:
 Original cell was already a primitive cell.
 

 Routine SETGRP: Setting up the symmetry group for a 
 face centered cubic supercell.


 Subroutine GETGRP returns: Found 24 space group operations
 (whereof  6 operations were pure point group operations)
 out of a pool of 48 trial point group operations.


The static configuration has the point symmetry C_3v.
 The point group associated with its full space group is T_d .


Analysis of symmetry for dynamics (positions and initial velocities):
=====================================================================
 Subroutine PRICEL returns:
 Original cell was already a primitive cell.
 

 Routine SETGRP: Setting up the symmetry group for a 
 face centered cubic supercell.


 Subroutine GETGRP returns: Found 24 space group operations
 (whereof  6 operations were pure point group operations)
 out of a pool of 48 trial point group operations.


The dynamic configuration has the point symmetry C_3v.
 The point group associated with its full space group is T_d .


 Subroutine INISYM returns: Found 24 space group operations
 (whereof  6 operations are pure point group operations),
 and found     1 'primitive' translations

 
 
 KPOINTS: Automatic kpoint scheme                 

Automatic generation of k-mesh.
Space group operators:
 irot       det(A)        alpha          n_x          n_y          n_z        tau_x        tau_y        tau_z
    1     1.000000     0.000000     1.000000     0.000000     0.000000     0.000000     0.000000     0.000000
    2     1.000000   120.000000    -0.471405    -0.333333    -0.816497     0.000000     0.000000     0.000000
    3     1.000000   120.000000     0.471405     0.333333     0.816497     0.000000     0.000000     0.000000
    4    -1.000000   180.000000     0.288675     0.816497    -0.500000     0.000000     0.000000     0.000000
    5    -1.000000   180.000000     0.577350    -0.816497     0.000000     0.000000     0.000000     0.000000
    6    -1.000000   180.000000     0.866025     0.000000    -0.500000     0.000000     0.000000     0.000000
    7    -1.000000    90.000000    -0.816497    -0.577350    -0.000000     0.166667     0.000000     0.000000
    8    -1.000000   180.000000     0.866025     0.000000     0.500000     0.166667     0.000000     0.000000
    9    -1.000000    90.000000     0.408248    -0.577350     0.707107     0.166667     0.000000     0.000000
   10     1.000000   180.000000     0.816497     0.577350     0.000000     0.000000     0.000000     0.166667
   11     1.000000   120.000000     0.942809    -0.333333     0.000000     0.000000     0.000000     0.166667
   12     1.000000   120.000000    -0.000000    -1.000000    -0.000000     0.000000     0.000000     0.166667
   13    -1.000000    90.000000     0.816497     0.577350    -0.000000     0.000000     0.166667    -0.000000
   14    -1.000000    90.000000     0.408248    -0.577350    -0.707107     0.000000     0.166667    -0.000000
   15    -1.000000   180.000000     0.288675     0.816497     0.500000     0.000000     0.166667    -0.000000
   16     1.000000   120.000000    -0.000000     1.000000    -0.000000     0.166667     0.000000     0.000000
   17     1.000000   120.000000     0.471405     0.333333    -0.816497     0.166667     0.000000     0.000000
   18     1.000000   180.000000    -0.408248     0.577350     0.707107     0.166667     0.000000     0.000000
   19    -1.000000    90.000000    -0.408248     0.577350    -0.707107     0.000000     0.000000     0.166667
   20    -1.000000   180.000000     0.000000    -0.000000     1.000000     0.000000     0.000000     0.166667
   21    -1.000000    90.000000    -0.408248     0.577350     0.707107     0.000000     0.000000     0.166667
   22     1.000000   120.000000    -0.942809     0.333333     0.000000     0.000000     0.166667    -0.000000
   23     1.000000   180.000000    -0.408248     0.577350    -0.707107     0.000000     0.166667    -0.000000
   24     1.000000   120.000000    -0.471405    -0.333333     0.816497     0.000000     0.166667    -0.000000
 
 Subroutine IBZKPT returns following result:
 ===========================================
 
 Found      8 irreducible k-points:
 
 Following reciprocal coordinates:
            Coordinates               Weight
  0.000000  0.000000  0.000000      1.000000
  0.250000  0.000000  0.000000      8.000000
  0.500000  0.000000  0.000000      4.000000
  0.250000  0.250000  0.000000      6.000000
  0.500000  0.250000  0.000000     24.000000
 -0.250000  0.250000  0.000000     12.000000
  0.500000  0.500000  0.000000      3.000000
 -0.250000  0.500000  0.250000      6.000000
 
 Following cartesian coordinates:
            Coordinates               Weight
  0.000000  0.000000  0.000000      1.000000
  0.025059 -0.008860  0.000000      8.000000
  0.050118 -0.017719  0.000000      4.000000
  0.025059  0.017719  0.000000      6.000000
  0.050118  0.008860  0.000000     24.000000
 -0.025059  0.035439  0.000000     12.000000
  0.050118  0.035439  0.000000      3.000000
 -0.037588  0.053158  0.021702      6.000000
 


--------------------------------------------------------------------------------------------------------




 Dimension of arrays:
   k-points           NKPTS =      8   k-points in BZ     NKDIM =      8   number of bands    NBANDS=    144
   number of dos      NEDOS =    301   number of ions     NIONS =     54
   non local maximal  LDIM  =      4   non local SUM 2l+1 LMDIM =      8
   total plane-waves  NPLWV = 343000
   max r-space proj   IRMAX =      1   max aug-charges    IRDMAX=  10807
   dimension x,y,z NGX =    70 NGY =   70 NGZ =   70
   dimension x,y,z NGXF=   140 NGYF=  140 NGZF=  140
   support grid    NGXF=   140 NGYF=  140 NGZF=  140
   ions per type =               1  53
   NGX,Y,Z   is equivalent  to a cutoff of  10.10, 10.10, 10.10 a.u.
   NGXF,Y,Z  is equivalent  to a cutoff of  20.20, 20.20, 20.20 a.u.

 SYSTEM =  Si                                      
 POSCAR =  Si53 P1                                 

 Startparameter for this run:
   NWRITE =      2    write-flag & timer
   PREC   = normal    normal or accurate (medium, high low for compatibility)
   ISTART =      0    job   : 0-new  1-cont  2-samecut
   ICHARG =      2    charge: 1-file 2-atom 10-const
   ISPIN  =      1    spin polarized calculation?
   LNONCOLLINEAR =      F non collinear calculations
   LSORBIT =      F    spin-orbit coupling
   INIWAV =      1    electr: 0-lowe 1-rand  2-diag
   LASPH  =      F    aspherical Exc in radial PAW
   METAGGA=      F    non-selfconsistent MetaGGA calc.

 Electronic Relaxation 1
   ENCUT  =  550.0 eV  40.42 Ry    6.36 a.u.  22.03 22.03 22.03*2*pi/ulx,y,z
   ENINI  =  550.0     initial cutoff
   ENAUG  =  342.9 eV  augmentation charge cutoff
   NELM   =    200;   NELMIN=  2; NELMDL= -5     # of ELM steps 
   EDIFF  = 0.1E-05   stopping-criterion for ELM
   LREAL  =      F    real-space projection
   NLSPLINE    = F    spline interpolate recip. space projectors
   LCOMPAT=      F    compatible to vasp.4.4
   GGA_COMPAT  = T    GGA compatible to vasp.4.4-vasp.4.6
   LMAXPAW     = -100 max onsite density
   LMAXMIX     =    2 max onsite mixed and CHGCAR
   VOSKOWN=      0    Vosko Wilk Nusair interpolation
   ROPT   =    0.00000   0.00000
 Ionic relaxation
   EDIFFG = -.5E-01   stopping-criterion for IOM
   NSW    =      0    number of steps for IOM
   NBLOCK =      1;   KBLOCK =      1    inner block; outer block 
   IBRION =     -1    ionic relax: 0-MD 1-quasi-New 2-CG
   NFREE  =      1    steps in history (QN), initial steepest desc. (CG)
   ISIF   =      2    stress and relaxation
   IWAVPR =     10    prediction:  0-non 1-charg 2-wave 3-comb
   ISYM   =      2    0-nonsym 1-usesym 2-fastsym
   LCORR  =      T    Harris-Foulkes like correction to forces

   POTIM  = 0.5000    time-step for ionic-motion
   TEIN   =    0.0    initial temperature
   TEBEG  =    0.0;   TEEND  =   0.0 temperature during run
   SMASS  =  -3.00    Nose mass-parameter (am)
   estimated Nose-frequenzy (Omega)   =  0.10E-29 period in steps =****** mass=  -0.303E-26a.u.
   SCALEE = 1.0000    scale energy and forces
   NPACO  =    256;   APACO  = 16.0  distance and # of slots for P.C.
   PSTRESS=    0.0 pullay stress

  Mass of Ions in am
   POMASS =  30.97 28.09
  Ionic Valenz
   ZVAL   =   5.00  4.00
  Atomic Wigner-Seitz radii
   RWIGS  =  -1.00 -1.00
  virtual crystal weights 
   VCA    =   1.00  1.00
   NELECT =     215.0000    total number of electrons
   NUPDOWN=      -1.0000    fix difference up-down

 DOS related values:
   EMIN   =  10.00;   EMAX   =-10.00  energy-range for DOS
   EFERMI =   0.00
   ISMEAR =     0;   SIGMA  =   0.05  broadening in eV -4-tet -1-fermi 0-gaus

 Electronic relaxation 2 (details)
   IALGO  =     38    algorithm
   LDIAG  =      T    sub-space diagonalisation (order eigenvalues)
   LSUBROT=      F    optimize rotation matrix (better conditioning)
   TURBO    =      0    0=normal 1=particle mesh
   IRESTART =      0    0=no restart 2=restart with 2 vectors
   NREBOOT  =      0    no. of reboots
   NMIN     =      0    reboot dimension
   EREF     =   0.00    reference energy to select bands
   IMIX   =      4    mixing-type and parameters
     AMIX     =   0.20;   BMIX     =  1.00
     AMIX_MAG =   0.80;   BMIX_MAG =  1.00
     AMIN     =   0.10
     WC   =   100.;   INIMIX=   1;  MIXPRE=   1;  MAXMIX= -45

 Intra band minimization:
   WEIMIN = 0.0000     energy-eigenvalue tresh-hold
   EBREAK =  0.17E-08  absolut break condition
   DEPER  =   0.30     relativ break condition  

   TIME   =   0.40     timestep for ELM

  volume/ion in A,a.u.               =      20.02       135.09
  Fermi-wavevector in a.u.,A,eV,Ry     =   0.955608  1.805838 12.424666  0.913187
  Thomas-Fermi vector in A             =   2.084461
 
 Write flags
   LWAVE        =      T    write WAVECAR
   LDOWNSAMPLE  =      F    k-point downsampling of WAVECAR
   LCHARG       =      T    write CHGCAR
   LVTOT        =      F    write LOCPOT, total local potential
   LVHAR        =      F    write LOCPOT, Hartree potential only
   LELF         =      F    write electronic localiz. function (ELF)
   LORBIT       =     10    0 simple, 1 ext, 2 COOP (PROOUT), +10 PAW based schemes


 Dipole corrections
   LMONO  =      F    monopole corrections only (constant potential shift)
   LDIPOL =      F    correct potential (dipole corrections)
   IDIPOL =      0    1-x, 2-y, 3-z, 4-all directions 
   EPSILON=  1.0000000 bulk dielectric constant

 Exchange correlation treatment:
   GGA     =    --    GGA type
   LEXCH   =     8    internal setting for exchange type
   VOSKOWN=      0    Vosko Wilk Nusair interpolation
   LHFCALC =     F    Hartree Fock is set to
   LHFONE  =     F    Hartree Fock one center treatment
   AEXX    =    0.0000 exact exchange contribution

 Linear response parameters
   LEPSILON=     F    determine dielectric tensor
   LRPA    =     F    only Hartree local field effects (RPA)
   LNABLA  =     F    use nabla operator in PAW spheres
   LVEL    =     F    velocity operator in full k-point grid
   LINTERFAST=   F  fast interpolation
   KINTER  =     0    interpolate to denser k-point grid
   CSHIFT  =0.1000    complex shift for real part using Kramers Kronig
   OMEGAMAX=  -1.0    maximum frequency
   DEG_THRESHOLD= 0.2000000E-02 threshold for treating states as degnerate
   RTIME   =   -0.100 relaxation time in fs
  (WPLASMAI=    0.000 imaginary part of plasma frequency in eV, 0.658/RTIME)
   DFIELD  = 0.0000000 0.0000000 0.0000000 field for delta impulse in time
 
 Orbital magnetization related:
   ORBITALMAG=     F  switch on orbital magnetization
   LCHIMAG   =     F  perturbation theory with respect to B field
   DQ        =  0.001000  dq finite difference perturbation B field
   LLRAUG    =     F  two centre corrections for induced B field



--------------------------------------------------------------------------------------------------------


 Static calculation
 charge density and potential will be updated during run
 non-spin polarized calculation
 Variant of blocked Davidson
 Davidson routine will perform the subspace rotation
 perform sub-space diagonalisation
    after iterative eigenvector-optimisation
 modified Broyden-mixing scheme, WC =      100.0
 initial mixing is a Kerker type mixing with AMIX =  0.2000 and BMIX =      1.0000
 Hartree-type preconditioning will be used
 using additional bands           36
 reciprocal scheme for non local part
 use partial core corrections
 calculate Harris-corrections to forces 
   (improved forces if not selfconsistent)
 use gradient corrections 
 use of overlap-Matrix (Vanderbilt PP)
 Gauss-broadening in eV      SIGMA  =   0.05


--------------------------------------------------------------------------------------------------------


  energy-cutoff  :      550.00
  volume of cell :     1080.99
      direct lattice vectors                 reciprocal lattice vectors
     9.976465530  0.000000000  5.759915070     0.100235900 -0.035438742  0.000000000
     3.325488510  9.405901920  5.759915070     0.000000000  0.106316227  0.000000000
     0.000000000  0.000000000 11.519830140    -0.050117950 -0.035438742  0.086806836

  length of vectors
    11.519830124 11.519830136 11.519830140     0.106316227  0.106316227  0.106316227


 
 k-points in units of 2pi/SCALE and weight: Automatic kpoint scheme                 
   0.00000000  0.00000000  0.00000000       0.016
   0.02505897 -0.00885969  0.00000000       0.125
   0.05011795 -0.01771937  0.00000000       0.062
   0.02505897  0.01771937  0.00000000       0.094
   0.05011795  0.00885969  0.00000000       0.375
  -0.02505897  0.03543874  0.00000000       0.188
   0.05011795  0.03543874  0.00000000       0.047
  -0.03758846  0.05315811  0.02170171       0.094
 
 k-points in reciprocal lattice and weights: Automatic kpoint scheme                 
   0.00000000  0.00000000  0.00000000       0.016
   0.25000000  0.00000000  0.00000000       0.125
   0.50000000  0.00000000  0.00000000       0.062
   0.25000000  0.25000000  0.00000000       0.094
   0.50000000  0.25000000  0.00000000       0.375
  -0.25000000  0.25000000  0.00000000       0.188
   0.50000000  0.50000000  0.00000000       0.047
  -0.25000000  0.50000000  0.25000000       0.094
 
 position of ions in fractional coordinates (direct lattice) 
   0.29166667  0.29166667  0.29166667
   0.29166667  0.29166667  0.62500000
   0.29166667  0.29166667  0.95833333
   0.29166667  0.62500000  0.29166667
   0.29166667  0.62500000  0.62500000
   0.29166667  0.62500000  0.95833333
   0.29166667  0.95833333  0.29166667
   0.29166667  0.95833333  0.62500000
   0.29166667  0.95833333  0.95833333
   0.62500000  0.29166667  0.29166667
   0.62500000  0.29166667  0.62500000
   0.62500000  0.29166667  0.95833333
   0.62500000  0.62500000  0.29166667
   0.62500000  0.62500000  0.62500000
   0.62500000  0.62500000  0.95833333
   0.62500000  0.95833333  0.29166667
   0.62500000  0.95833333  0.62500000
   0.62500000  0.95833333  0.95833333
   0.95833333  0.29166667  0.29166667
   0.95833333  0.29166667  0.62500000
   0.95833333  0.29166667  0.95833333
   0.95833333  0.62500000  0.29166667
   0.95833333  0.62500000  0.62500000
   0.95833333  0.62500000  0.95833333
   0.95833333  0.95833333  0.29166667
   0.95833333  0.95833333  0.62500000
   0.95833333  0.95833333  0.95833333
   0.04166667  0.04166667  0.04166667
   0.04166667  0.04166667  0.37500000
   0.04166667  0.04166667  0.70833333
   0.04166667  0.37500000  0.04166667
   0.04166667  0.37500000  0.37500000
   0.04166667  0.37500000  0.70833333
   0.04166667  0.70833333  0.04166667
   0.04166667  0.70833333  0.37500000
   0.04166667  0.70833333  0.70833333
   0.37500000  0.04166667  0.04166667
   0.37500000  0.04166667  0.37500000
   0.37500000  0.04166667  0.70833333
   0.37500000  0.37500000  0.04166667
   0.37500000  0.37500000  0.37500000
   0.37500000  0.37500000  0.70833333
   0.37500000  0.70833333  0.04166667
   0.37500000  0.70833333  0.37500000
   0.37500000  0.70833333  0.70833333
   0.70833333  0.04166667  0.04166667
   0.70833333  0.04166667  0.37500000
   0.70833333  0.04166667  0.70833333
   0.70833333  0.37500000  0.04166667
   0.70833333  0.37500000  0.37500000
   0.70833333  0.37500000  0.70833333
   0.70833333  0.70833333  0.04166667
   0.70833333  0.70833333  0.37500000
   0.70833333  0.70833333  0.70833333
 
 position of ions in cartesian coordinates  (Angst):
   3.87973659  2.74338806  6.71990091
   3.87973659  2.74338806 10.55984429
   3.87973659  2.74338806 14.39978767
   4.98823276  5.87868870  8.63987260
   4.98823276  5.87868870 12.47981598
   4.98823276  5.87868870 16.31975937
   6.09672893  9.01398934 10.55984429
   6.09672893  9.01398934 14.39978767
   6.09672893  9.01398934 18.23973106
   7.20522510  2.74338806  8.63987260
   7.20522510  2.74338806 12.47981598
   7.20522510  2.74338806 16.31975937
   8.31372128  5.87868870 10.55984429
   8.31372128  5.87868870 14.39978767
   8.31372128  5.87868870 18.23973106
   9.42221745  9.01398934 12.47981598
   9.42221745  9.01398934 16.31975937
   9.42221745  9.01398934 20.15970275
  10.53071362  2.74338806 10.55984429
  10.53071362  2.74338806 14.39978767
  10.53071362  2.74338806 18.23973106
  11.63920979  5.87868870 12.47981598
  11.63920979  5.87868870 16.31975937
  11.63920979  5.87868870 20.15970275
  12.74770596  9.01398934 14.39978767
  12.74770596  9.01398934 18.23973106
  12.74770596  9.01398934 22.07967444
   0.55424808  0.39191258  0.95998584
   0.55424808  0.39191258  4.79992922
   0.55424808  0.39191258  8.63987260
   1.66274425  3.52721322  2.87995753
   1.66274425  3.52721322  6.71990091
   1.66274425  3.52721322 10.55984430
   2.77124042  6.66251386  4.79992922
   2.77124042  6.66251386  8.63987261
   2.77124042  6.66251386 12.47981599
   3.87973659  0.39191258  2.87995753
   3.87973659  0.39191258  6.71990091
   3.87973659  0.39191258 10.55984430
   4.98823277  3.52721322  4.79992922
   4.98823277  3.52721322  8.63987261
   4.98823277  3.52721322 12.47981599
   6.09672894  6.66251386  6.71990091
   6.09672894  6.66251386 10.55984430
   6.09672894  6.66251386 14.39978768
   7.20522511  0.39191258  4.79992922
   7.20522511  0.39191258  8.63987261
   7.20522511  0.39191258 12.47981599
   8.31372128  3.52721322  6.71990091
   8.31372128  3.52721322 10.55984430
   8.31372128  3.52721322 14.39978768
   9.42221745  6.66251386  8.63987260
   9.42221745  6.66251386 12.47981599
   9.42221745  6.66251386 16.31975937
 


--------------------------------------------------------------------------------------------------------


 k-point  1 :   0.0000 0.0000 0.0000  plane waves:   31415
 k-point  2 :   0.2500 0.0000 0.0000  plane waves:   31608
 k-point  3 :   0.5000 0.0000 0.0000  plane waves:   31638
 k-point  4 :   0.2500 0.2500 0.0000  plane waves:   31695
 k-point  5 :   0.5000 0.2500 0.0000  plane waves:   31649
 k-point  6 :  -0.2500 0.2500 0.0000  plane waves:   31674
 k-point  7 :   0.5000 0.5000 0.0000  plane waves:   31716
 k-point  8 :  -0.2500 0.5000 0.2500  plane waves:   31684

 maximum and minimum number of plane-waves per node :     31716    31415

 maximum number of plane-waves:     31716
 maximum index in each direction: 
   IXMAX=   22   IYMAX=   22   IZMAX=   22
   IXMIN=  -22   IYMIN=  -22   IZMIN=  -22


 serial   3D FFT for wavefunctions
 parallel 3D FFT for charge:
    minimum data exchange during FFTs selected (reduces bandwidth)


 total amount of memory used by VASP MPI-rank0   140598. kBytes
=======================================================================

   base      :      30000. kBytes
   nonl-proj :      59902. kBytes
   fftplans  :       5382. kBytes
   grid      :      20451. kBytes
   one-center:        165. kBytes
   wavefun   :      24698. kBytes
 
     INWAV:  cpu time    0.0000: real time    0.0000
 Broyden mixing: mesh for mixing (old mesh)
   NGX = 45   NGY = 45   NGZ = 45
  (NGX  =140   NGY  =140   NGZ  =140)
  gives a total of  91125 points

 initial charge density was supplied:
 charge density of overlapping atoms calculated
 number of electron     217.0000000 magnetization 
 keeping initial charge density in first step


--------------------------------------------------------------------------------------------------------


 Maximum index for augmentation-charges          503 (set IRDMAX)


--------------------------------------------------------------------------------------------------------


 First call to EWALD:  gamma=   0.173
 Maximum number of real-space cells 3x 3x 3
 Maximum number of reciprocal cells 3x 3x 3

    FEWALD:  cpu time    0.0900: real time    0.0909


--------------------------------------- Iteration      1(   1)  ---------------------------------------


    POTLOK:  cpu time    0.2093: real time    0.2370
    SETDIJ:  cpu time    0.0099: real time    0.0104
     EDDAV:  cpu time    4.1552: real time    4.2127
       DOS:  cpu time    0.0123: real time    0.0133
    --------------------------------------------
      LOOP:  cpu time    4.3868: real time    4.4735

 eigenvalue-minimisations  :  2304
 total energy-change (2. order) : 0.5505688E+03  (-0.8502526E+04)
 number of electron     217.0000000 magnetization 
 augmentation part      217.0000000 magnetization 

 Free energy of the ion-electron system (eV)
  ---------------------------------------------------
  alpha Z        PSCENC =        93.56316191
  Ewald energy   TEWEN  =     -6229.80980546
  -Hartree energ DENC   =      -311.93506175
  -exchange      EXHF   =         0.00000000
  -V(xc)+E(xc)   XCENC  =      -489.62529972
  PAW double counting   =      4810.32140949    -3869.71602298
  entropy T*S    EENTRO =        -0.01668480
  eigenvalues    EBANDS =       909.22207938
  atomic energy  EATOM  =      5638.56506835
  Solvation  Ediel_sol  =         0.00000000
  ---------------------------------------------------
  free energy    TOTEN  =       550.56884442 eV

  energy without entropy =      550.58552922  energy(sigma->0) =      550.57718682


--------------------------------------------------------------------------------------------------------




--------------------------------------- Iteration      1(   2)  ---------------------------------------


     EDDAV:  cpu time    5.0805: real time    5.1368
       DOS:  cpu time    0.0044: real time    0.0044
    --------------------------------------------
      LOOP:  cpu time    5.0849: real time    5.1412

 eigenvalue-minimisations  :  2808
 total energy-change (2. order) :-0.8090850E+03  (-0.7773433E+03)
 number of electron     217.0000000 magnetization 
 augmentation part      217.0000000 magnetization 

 Free energy of the ion-electron system (eV)
  ---------------------------------------------------
  alpha Z        PSCENC =        93.56316191
  Ewald energy   TEWEN  =     -6229.80980546
  -Hartree energ DENC   =      -311.93506175
  -exchange      EXHF   =         0.00000000
  -V(xc)+E(xc)   XCENC  =      -489.62529972
  PAW double counting   =      4810.32140949    -3869.71602298
  entropy T*S    EENTRO =        -0.00965762
  eigenvalues    EBANDS =       100.13001931
  atomic energy  EATOM  =      5638.56506835
  Solvation  Ediel_sol  =         0.00000000
  ---------------------------------------------------
  free energy    TOTEN  =      -258.51618847 eV

  energy without entropy =     -258.50653085  energy(sigma->0) =     -258.51135966


--------------------------------------------------------------------------------------------------------




--------------------------------------- Iteration      1(   3)  ---------------------------------------


     EDDAV:  cpu time    5.6661: real time    5.7342
       DOS:  cpu time    0.4600: real time    0.4675
    --------------------------------------------
      LOOP:  cpu time    6.1261: real time    6.2017

 eigenvalue-minimisations  :  2880
 total energy-change (2. order) :-0.4935665E+02  (-0.4876211E+02)
 number of electron     217.0000000 magnetization 
 augmentation part      217.0000000 magnetization 

 Free energy of the ion-electron system (eV)
  ---------------------------------------------------
  alpha Z        PSCENC =        93.56316191
  Ewald energy   TEWEN  =     -6229.80980546
  -Hartree energ DENC   =      -311.93506175
  -exchange      EXHF   =         0.00000000
  -V(xc)+E(xc)   XCENC  =      -489.62529972
  PAW double counting   =      4810.32140949    -3869.71602298
  entropy T*S    EENTRO =        -0.00238459
  eigenvalues    EBANDS =        50.76609788
  atomic energy  EATOM  =      5638.56506835
  Solvation  Ediel_sol  =         0.00000000
  ---------------------------------------------------
  free energy    TOTEN  =      -307.87283686 eV

  energy without entropy =     -307.87045228  energy(sigma->0) =     -307.87164457


--------------------------------------------------------------------------------------------------------




--------------------------------------- Iteration      1(   4)  ---------------------------------------


     EDDAV:  cpu time    4.8790: real time    4.9413
       DOS:  cpu time    0.4855: real time    0.4937
    --------------------------------------------
      LOOP:  cpu time    5.3645: real time    5.4350

 eigenvalue-minimisations  :  2904
 total energy-change (2. order) :-0.9834255E+00  (-0.9793762E+00)
 number of electron     217.0000000 magnetization 
 augmentation part      217.0000000 magnetization 

 Free energy of the ion-electron system (eV)
  ---------------------------------------------------
  alpha Z        PSCENC =        93.56316191
  Ewald energy   TEWEN  =     -6229.80980546
  -Hartree energ DENC   =      -311.93506175
  -exchange      EXHF   =         0.00000000
  -V(xc)+E(xc)   XCENC  =      -489.62529972
  PAW double counting   =      4810.32140949    -3869.71602298
  entropy T*S    EENTRO =        -0.00239782
  eigenvalues    EBANDS =        49.78268564
  atomic energy  EATOM  =      5638.56506835
  Solvation  Ediel_sol  =         0.00000000
  ---------------------------------------------------
  free energy    TOTEN  =      -308.85626234 eV

  energy without entropy =     -308.85386452  energy(sigma->0) =     -308.85506343


--------------------------------------------------------------------------------------------------------




--------------------------------------- Iteration      1(   5)  ---------------------------------------


     EDDAV:  cpu time    4.0514: real time    4.0981
       DOS:  cpu time    0.0054: real time    0.0054
    CHARGE:  cpu time    0.1734: real time    0.1753
    MIXING:  cpu time    0.0724: real time    0.0770
    --------------------------------------------
      LOOP:  cpu time    4.3027: real time    4.3559

 eigenvalue-minimisations  :  2784
 total energy-change (2. order) :-0.2122809E-01  (-0.2121652E-01)
 number of electron     214.9999999 magnetization 
 augmentation part      -12.9163858 magnetization 

 Broyden mixing:
  rms(total) = 0.25220E+01    rms(broyden)= 0.25212E+01
  rms(prec ) = 0.28875E+01
  weight for this iteration     100.00

 Free energy of the ion-electron system (eV)
  ---------------------------------------------------
  alpha Z        PSCENC =        93.56316191
  Ewald energy   TEWEN  =     -6229.80980546
  -Hartree energ DENC   =      -311.93506175
  -exchange      EXHF   =         0.00000000
  -V(xc)+E(xc)   XCENC  =      -489.62529972
  PAW double counting   =      4810.32140949    -3869.71602298
  entropy T*S    EENTRO =        -0.00239773
  eigenvalues    EBANDS =        49.76145746
  atomic energy  EATOM  =      5638.56506835
  Solvation  Ediel_sol  =         0.00000000
  ---------------------------------------------------
  free energy    TOTEN  =      -308.87749043 eV

  energy without entropy =     -308.87509270  energy(sigma->0) =     -308.87629157


--------------------------------------------------------------------------------------------------------




--------------------------------------- Iteration      1(   6)  ---------------------------------------


    POTLOK:  cpu time    0.0835: real time    0.0847
    SETDIJ:  cpu time    0.1291: real time    0.1304
     EDDAV:  cpu time    5.2221: real time    5.2794
       DOS:  cpu time    0.4358: real time    0.4417
    CHARGE:  cpu time    0.2509: real time    0.2536
    MIXING:  cpu time    0.0070: real time    0.0072
    --------------------------------------------
      LOOP:  cpu time    6.1283: real time    6.1971

 eigenvalue-minimisations  :  3024
 total energy-change (2. order) : 0.1437206E+01  (-0.4554126E-01)
 number of electron     214.9999999 magnetization 
 augmentation part      -12.8722583 magnetization 

 Broyden mixing:
  rms(total) = 0.20251E+01    rms(broyden)= 0.20251E+01
  rms(prec ) = 0.23116E+01
  weight for this iteration     100.00

 eigenvalues of (default mixing * dielectric matrix)
  average eigenvalue GAMMA=   5.0298
  5.0298

 Free energy of the ion-electron system (eV)
  ---------------------------------------------------
  alpha Z        PSCENC =        93.56316191
  Ewald energy   TEWEN  =     -6229.80980546
  -Hartree energ DENC   =      -329.87959192
  -exchange      EXHF   =         0.00000000
  -V(xc)+E(xc)   XCENC  =      -492.26526746
  PAW double counting   =      7216.42252469    -6277.16761023
  entropy T*S    EENTRO =        -0.00240711
  eigenvalues    EBANDS =        73.13364290
  atomic energy  EATOM  =      5638.56506835
  Solvation  Ediel_sol  =         0.00000000
  ---------------------------------------------------
  free energy    TOTEN  =      -307.44028432 eV

  energy without entropy =     -307.43787721  energy(sigma->0) =     -307.43908076


--------------------------------------------------------------------------------------------------------




--------------------------------------- Iteration      1(   7)  ---------------------------------------


    POTLOK:  cpu time    0.0786: real time    0.0797
    SETDIJ:  cpu time    0.0133: real time    0.0134
     EDDAV:  cpu time    4.5742: real time    4.6181
       DOS:  cpu time    0.0074: real time    0.0074
    CHARGE:  cpu time    0.1605: real time    0.1615
    MIXING:  cpu time    0.0059: real time    0.0060
    --------------------------------------------
      LOOP:  cpu time    4.8399: real time    4.8860

 eigenvalue-minimisations  :  2976
 total energy-change (2. order) : 0.2758977E+01  (-0.7711962E+00)
 number of electron     214.9999999 magnetization 
 augmentation part      -12.6354650 magnetization 

 Broyden mixing:
  rms(total) = 0.18570E+00    rms(broyden)= 0.18570E+00
  rms(prec ) = 0.31245E+00
  weight for this iteration     100.00

 eigenvalues of (default mixing * dielectric matrix)
  average eigenvalue GAMMA=   3.2218
  1.4227  5.0209

 Free energy of the ion-electron system (eV)
  ---------------------------------------------------
  alpha Z        PSCENC =        93.56316191
  Ewald energy   TEWEN  =     -6229.80980546
  -Hartree energ DENC   =      -411.76377417
  -exchange      EXHF   =         0.00000000
  -V(xc)+E(xc)   XCENC  =      -479.05464686
  PAW double counting   =     22534.23580036   -21600.20188721
  entropy T*S    EENTRO =        -0.00241900
  eigenvalues    EBANDS =       149.78719468
  atomic energy  EATOM  =      5638.56506835
  Solvation  Ediel_sol  =         0.00000000
  ---------------------------------------------------
  free energy    TOTEN  =      -304.68130739 eV

  energy without entropy =     -304.67888839  energy(sigma->0) =     -304.68009789


--------------------------------------------------------------------------------------------------------




--------------------------------------- Iteration      1(   8)  ---------------------------------------


    POTLOK:  cpu time    0.0817: real time    0.0828
    SETDIJ:  cpu time    0.0073: real time    0.0074
     EDDAV:  cpu time    4.3955: real time    4.4402
       DOS:  cpu time    0.0071: real time    0.0071
    CHARGE:  cpu time    0.2021: real time    0.2033
    MIXING:  cpu time    0.0118: real time    0.0119
    --------------------------------------------
      LOOP:  cpu time    4.7056: real time    4.7526

 eigenvalue-minimisations  :  2904
 total energy-change (2. order) : 0.3625202E-01  (-0.1053303E+00)
 number of electron     214.9999999 magnetization 
 augmentation part      -12.6219602 magnetization 

 Broyden mixing:
  rms(total) = 0.13755E+00    rms(broyden)= 0.13755E+00
  rms(prec ) = 0.16096E+00
  weight for this iteration     100.00

 eigenvalues of (default mixing * dielectric matrix)
  average eigenvalue GAMMA=   2.4815
  5.0603  1.1922  1.1922

 Free energy of the ion-electron system (eV)
  ---------------------------------------------------
  alpha Z        PSCENC =        93.56316191
  Ewald energy   TEWEN  =     -6229.80980546
  -Hartree energ DENC   =      -411.60930516
  -exchange      EXHF   =         0.00000000
  -V(xc)+E(xc)   XCENC  =      -478.96617857
  PAW double counting   =     22869.09857936   -21934.65606600
  entropy T*S    EENTRO =        -0.00239823
  eigenvalues    EBANDS =       149.17188842
  atomic energy  EATOM  =      5638.56506835
  Solvation  Ediel_sol  =         0.00000000
  ---------------------------------------------------
  free energy    TOTEN  =      -304.64505537 eV

  energy without entropy =     -304.64265713  energy(sigma->0) =     -304.64385625


--------------------------------------------------------------------------------------------------------




--------------------------------------- Iteration      1(   9)  ---------------------------------------


    POTLOK:  cpu time    0.0744: real time    0.0781
    SETDIJ:  cpu time    0.0283: real time    0.0285
     EDDAV:  cpu time    4.1754: real time    4.2100
       DOS:  cpu time    0.0074: real time    0.0074
    CHARGE:  cpu time    0.2282: real time    0.2302
    MIXING:  cpu time    0.0193: real time    0.0194
    --------------------------------------------
      LOOP:  cpu time    4.5330: real time    4.5736

 eigenvalue-minimisations  :  2928
 total energy-change (2. order) :-0.1625841E-01  (-0.1329392E-01)
 number of electron     214.9999999 magnetization 
 augmentation part      -12.6247597 magnetization 

 Broyden mixing:
  rms(total) = 0.88016E-01    rms(broyden)= 0.88016E-01
  rms(prec ) = 0.10623E+00
  weight for this iteration     100.00

 eigenvalues of (default mixing * dielectric matrix)
  average eigenvalue GAMMA=   2.3557
  4.8969  0.9923  1.7669  1.7669

 Free energy of the ion-electron system (eV)
  ---------------------------------------------------
  alpha Z        PSCENC =        93.56316191
  Ewald energy   TEWEN  =     -6229.80980546
  -Hartree energ DENC   =      -412.87598894
  -exchange      EXHF   =         0.00000000
  -V(xc)+E(xc)   XCENC  =      -478.70872534
  PAW double counting   =     23290.11033688   -22355.61728500
  entropy T*S    EENTRO =        -0.00239682
  eigenvalues    EBANDS =       150.11432064
  atomic energy  EATOM  =      5638.56506835
  Solvation  Ediel_sol  =         0.00000000
  ---------------------------------------------------
  free energy    TOTEN  =      -304.66131377 eV

  energy without entropy =     -304.65891695  energy(sigma->0) =     -304.66011536


--------------------------------------------------------------------------------------------------------




--------------------------------------- Iteration      1(  10)  ---------------------------------------


    POTLOK:  cpu time    0.0749: real time    0.0764
    SETDIJ:  cpu time    0.1428: real time    0.1444
     EDDAV:  cpu time    4.3381: real time    4.3884
       DOS:  cpu time    0.4795: real time    0.4867
    CHARGE:  cpu time    0.2510: real time    0.2538
    MIXING:  cpu time    0.1863: real time    0.1884
    --------------------------------------------
      LOOP:  cpu time    5.4726: real time    5.5381

 eigenvalue-minimisations  :  2784
 total energy-change (2. order) :-0.1439403E-02  (-0.1725925E-02)
 number of electron     214.9999999 magnetization 
 augmentation part      -12.6318546 magnetization 

 Broyden mixing:
  rms(total) = 0.53518E-01    rms(broyden)= 0.53518E-01
  rms(prec ) = 0.65510E-01
  weight for this iteration     100.00

 eigenvalues of (default mixing * dielectric matrix)
  average eigenvalue GAMMA=   2.5844
  4.8090  4.0103  2.0860  1.0084  1.0084

 Free energy of the ion-electron system (eV)
  ---------------------------------------------------
  alpha Z        PSCENC =        93.56316191
  Ewald energy   TEWEN  =     -6229.80980546
  -Hartree energ DENC   =      -411.69677117
  -exchange      EXHF   =         0.00000000
  -V(xc)+E(xc)   XCENC  =      -478.81817518
  PAW double counting   =     23142.20259828   -22207.47842440
  entropy T*S    EENTRO =        -0.00239714
  eigenvalues    EBANDS =       148.81199164
  atomic energy  EATOM  =      5638.56506835
  Solvation  Ediel_sol  =         0.00000000
  ---------------------------------------------------
  free energy    TOTEN  =      -304.66275318 eV

  energy without entropy =     -304.66035603  energy(sigma->0) =     -304.66155461


--------------------------------------------------------------------------------------------------------




--------------------------------------- Iteration      1(  11)  ---------------------------------------


    POTLOK:  cpu time    0.0734: real time    0.0746
    SETDIJ:  cpu time    0.1588: real time    0.1602
     EDDAV:  cpu time    4.7667: real time    4.8143
       DOS:  cpu time    0.4631: real time    0.4698
    CHARGE:  cpu time    0.2511: real time    0.2538
    MIXING:  cpu time    0.0191: real time    0.0193
    --------------------------------------------
      LOOP:  cpu time    5.7323: real time    5.7920

 eigenvalue-minimisations  :  3216
 total energy-change (2. order) :-0.7854514E-02  (-0.2203575E-02)
 number of electron     214.9999999 magnetization 
 augmentation part      -12.6408133 magnetization 

 Broyden mixing:
  rms(total) = 0.22110E-01    rms(broyden)= 0.22110E-01
  rms(prec ) = 0.27065E-01
  weight for this iteration     100.00

 eigenvalues of (default mixing * dielectric matrix)
  average eigenvalue GAMMA=   2.3738
  4.7437  3.7132  2.1030  1.5309  0.8997  1.2520

 Free energy of the ion-electron system (eV)
  ---------------------------------------------------
  alpha Z        PSCENC =        93.56316191
  Ewald energy   TEWEN  =     -6229.80980546
  -Hartree energ DENC   =      -411.32107923
  -exchange      EXHF   =         0.00000000
  -V(xc)+E(xc)   XCENC  =      -478.75690946
  PAW double counting   =     23211.22174997   -22276.20185710
  entropy T*S    EENTRO =        -0.00239466
  eigenvalues    EBANDS =       148.07145798
  atomic energy  EATOM  =      5638.56506835
  Solvation  Ediel_sol  =         0.00000000
  ---------------------------------------------------
  free energy    TOTEN  =      -304.67060769 eV

  energy without entropy =     -304.66821303  energy(sigma->0) =     -304.66941036


--------------------------------------------------------------------------------------------------------




--------------------------------------- Iteration      1(  12)  ---------------------------------------


    POTLOK:  cpu time    0.0745: real time    0.0758
    SETDIJ:  cpu time    0.1417: real time    0.1430
     EDDAV:  cpu time    6.3015: real time    6.3694
       DOS:  cpu time    0.4570: real time    0.4637
    CHARGE:  cpu time    0.2378: real time    0.2404
    MIXING:  cpu time    0.0196: real time    0.0198
    --------------------------------------------
      LOOP:  cpu time    7.2320: real time    7.3120

 eigenvalue-minimisations  :  2856
 total energy-change (2. order) :-0.5405776E-03  (-0.4022038E-03)
 number of electron     214.9999999 magnetization 
 augmentation part      -12.6414987 magnetization 

 Broyden mixing:
  rms(total) = 0.20592E-01    rms(broyden)= 0.20592E-01
  rms(prec ) = 0.22690E-01
  weight for this iteration     100.00

 eigenvalues of (default mixing * dielectric matrix)
  average eigenvalue GAMMA=   2.3202
  4.7271  3.4303  3.4303  1.4916  1.4916  0.8352  0.8352

 Free energy of the ion-electron system (eV)
  ---------------------------------------------------
  alpha Z        PSCENC =        93.56316191
  Ewald energy   TEWEN  =     -6229.80980546
  -Hartree energ DENC   =      -411.65176514
  -exchange      EXHF   =         0.00000000
  -V(xc)+E(xc)   XCENC  =      -478.70739239
  PAW double counting   =     23185.89597605   -22250.89288317
  entropy T*S    EENTRO =        -0.00239481
  eigenvalues    EBANDS =       148.36888638
  atomic energy  EATOM  =      5638.56506835
  Solvation  Ediel_sol  =         0.00000000
  ---------------------------------------------------
  free energy    TOTEN  =      -304.67114827 eV

  energy without entropy =     -304.66875346  energy(sigma->0) =     -304.66995087


--------------------------------------------------------------------------------------------------------




--------------------------------------- Iteration      1(  13)  ---------------------------------------


    POTLOK:  cpu time    0.0739: real time    0.0751
    SETDIJ:  cpu time    0.2124: real time    0.2148
     EDDAV:  cpu time    5.6275: real time    5.6884
       DOS:  cpu time    0.4517: real time    0.4547
    CHARGE:  cpu time    0.2390: real time    0.2408
    MIXING:  cpu time    0.0191: real time    0.0193
    --------------------------------------------
      LOOP:  cpu time    6.6236: real time    6.6930

 eigenvalue-minimisations  :  3072
 total energy-change (2. order) :-0.7311545E-03  (-0.1030821E-03)
 number of electron     214.9999999 magnetization 
 augmentation part      -12.6425234 magnetization 

 Broyden mixing:
  rms(total) = 0.14405E-01    rms(broyden)= 0.14405E-01
  rms(prec ) = 0.15730E-01
  weight for this iteration     100.00

 eigenvalues of (default mixing * dielectric matrix)
  average eigenvalue GAMMA=   2.5685
  5.4849  5.4849  2.5256  2.5256  1.3670  1.3670  0.8965  0.8965

 Free energy of the ion-electron system (eV)
  ---------------------------------------------------
  alpha Z        PSCENC =        93.56316191
  Ewald energy   TEWEN  =     -6229.80980546
  -Hartree energ DENC   =      -411.74698385
  -exchange      EXHF   =         0.00000000
  -V(xc)+E(xc)   XCENC  =      -478.68577123
  PAW double counting   =     23130.40230138   -22195.37945303
  entropy T*S    EENTRO =        -0.00239502
  eigenvalues    EBANDS =       148.42199753
  atomic energy  EATOM  =      5638.56506835
  Solvation  Ediel_sol  =         0.00000000
  ---------------------------------------------------
  free energy    TOTEN  =      -304.67187942 eV

  energy without entropy =     -304.66948440  energy(sigma->0) =     -304.67068191


--------------------------------------------------------------------------------------------------------




--------------------------------------- Iteration      1(  14)  ---------------------------------------


    POTLOK:  cpu time    0.0759: real time    0.0774
    SETDIJ:  cpu time    0.1420: real time    0.1434
     EDDAV:  cpu time    6.0627: real time    6.1274
       DOS:  cpu time    0.4481: real time    0.4547
    CHARGE:  cpu time    0.2384: real time    0.2407
    MIXING:  cpu time    0.0191: real time    0.0194
    --------------------------------------------
      LOOP:  cpu time    6.9862: real time    7.0630

 eigenvalue-minimisations  :  2712
 total energy-change (2. order) :-0.7533200E-03  (-0.1272279E-03)
 number of electron     214.9999999 magnetization 
 augmentation part      -12.6443726 magnetization 

 Broyden mixing:
  rms(total) = 0.70816E-02    rms(broyden)= 0.70816E-02
  rms(prec ) = 0.93890E-02
  weight for this iteration     100.00

 eigenvalues of (default mixing * dielectric matrix)
  average eigenvalue GAMMA=   2.4553
  5.2093  5.2093  2.9825  2.9825  1.4984  1.4984  0.9138  0.9016  0.9016

 Free energy of the ion-electron system (eV)
  ---------------------------------------------------
  alpha Z        PSCENC =        93.56316191
  Ewald energy   TEWEN  =     -6229.80980546
  -Hartree energ DENC   =      -411.67516964
  -exchange      EXHF   =         0.00000000
  -V(xc)+E(xc)   XCENC  =      -478.67662514
  PAW double counting   =     23047.25953420   -22112.16398472
  entropy T*S    EENTRO =        -0.00239492
  eigenvalues    EBANDS =       148.26758268
  atomic energy  EATOM  =      5638.56506835
  Solvation  Ediel_sol  =         0.00000000
  ---------------------------------------------------
  free energy    TOTEN  =      -304.67263274 eV

  energy without entropy =     -304.67023783  energy(sigma->0) =     -304.67143528


--------------------------------------------------------------------------------------------------------




--------------------------------------- Iteration      1(  15)  ---------------------------------------


    POTLOK:  cpu time    0.0777: real time    0.0790
    SETDIJ:  cpu time    0.1407: real time    0.1418
     EDDAV:  cpu time    4.9101: real time    4.9634
       DOS:  cpu time    0.4485: real time    0.4547
    CHARGE:  cpu time    0.2381: real time    0.2407
    MIXING:  cpu time    0.0191: real time    0.0194
    --------------------------------------------
      LOOP:  cpu time    5.8342: real time    5.8990

 eigenvalue-minimisations  :  2736
 total energy-change (2. order) : 0.7299921E-04  (-0.1414519E-04)
 number of electron     214.9999999 magnetization 
 augmentation part      -12.6438527 magnetization 

 Broyden mixing:
  rms(total) = 0.41502E-02    rms(broyden)= 0.41502E-02
  rms(prec ) = 0.51496E-02
  weight for this iteration     100.00

 eigenvalues of (default mixing * dielectric matrix)
  average eigenvalue GAMMA=   2.4976
  5.9994  5.2475  3.2831  3.2831  1.5871  1.5871  1.0984  1.0984  0.8960  0.8960

 Free energy of the ion-electron system (eV)
  ---------------------------------------------------
  alpha Z        PSCENC =        93.56316191
  Ewald energy   TEWEN  =     -6229.80980546
  -Hartree energ DENC   =      -411.92517708
  -exchange      EXHF   =         0.00000000
  -V(xc)+E(xc)   XCENC  =      -478.64690302
  PAW double counting   =     23047.91188301   -22112.84220457
  entropy T*S    EENTRO =        -0.00239515
  eigenvalues    EBANDS =       148.51381227
  atomic energy  EATOM  =      5638.56506835
  Solvation  Ediel_sol  =         0.00000000
  ---------------------------------------------------
  free energy    TOTEN  =      -304.67255974 eV

  energy without entropy =     -304.67016460  energy(sigma->0) =     -304.67136217


--------------------------------------------------------------------------------------------------------




--------------------------------------- Iteration      1(  16)  ---------------------------------------


    POTLOK:  cpu time    0.0787: real time    0.0800
    SETDIJ:  cpu time    0.2100: real time    0.2116
     EDDAV:  cpu time    4.7653: real time    4.8082
       DOS:  cpu time    0.0061: real time    0.0061
    CHARGE:  cpu time    0.1619: real time    0.1642
    MIXING:  cpu time    0.0065: real time    0.0067
    --------------------------------------------
      LOOP:  cpu time    5.2285: real time    5.2769

 eigenvalue-minimisations  :  3384
 total energy-change (2. order) :-0.1109569E-04  (-0.1193073E-04)
 number of electron     214.9999999 magnetization 
 augmentation part      -12.6433182 magnetization 

 Broyden mixing:
  rms(total) = 0.26168E-02    rms(broyden)= 0.26168E-02
  rms(prec ) = 0.28130E-02
  weight for this iteration     100.00

 eigenvalues of (default mixing * dielectric matrix)
  average eigenvalue GAMMA=   2.4244
  5.8989  5.1509  3.3627  3.3627  1.8846  1.8846  1.2081  1.2081  0.9218  0.9218
  0.8647

 Free energy of the ion-electron system (eV)
  ---------------------------------------------------
  alpha Z        PSCENC =        93.56316191
  Ewald energy   TEWEN  =     -6229.80980546
  -Hartree energ DENC   =      -412.04465514
  -exchange      EXHF   =         0.00000000
  -V(xc)+E(xc)   XCENC  =      -478.63460523
  PAW double counting   =     23011.92132297   -22076.85867927
  entropy T*S    EENTRO =        -0.00239532
  eigenvalues    EBANDS =       148.62801635
  atomic energy  EATOM  =      5638.56506835
  Solvation  Ediel_sol  =         0.00000000
  ---------------------------------------------------
  free energy    TOTEN  =      -304.67257084 eV

  energy without entropy =     -304.67017552  energy(sigma->0) =     -304.67137318


--------------------------------------------------------------------------------------------------------




--------------------------------------- Iteration      1(  17)  ---------------------------------------


    POTLOK:  cpu time    0.0840: real time    0.0852
    SETDIJ:  cpu time    0.0062: real time    0.0062
     EDDAV:  cpu time    3.9047: real time    3.9606
       DOS:  cpu time    0.0064: real time    0.0064
    CHARGE:  cpu time    0.1610: real time    0.1620
    MIXING:  cpu time    0.0147: real time    0.0148
    --------------------------------------------
      LOOP:  cpu time    4.1769: real time    4.2352

 eigenvalue-minimisations  :  2808
 total energy-change (2. order) : 0.2300549E-06  (-0.2373861E-05)
 number of electron     214.9999999 magnetization 
 augmentation part      -12.6433526 magnetization 

 Broyden mixing:
  rms(total) = 0.19766E-02    rms(broyden)= 0.19766E-02
  rms(prec ) = 0.21265E-02
  weight for this iteration     100.00

 eigenvalues of (default mixing * dielectric matrix)
  average eigenvalue GAMMA=   2.3254
  5.9090  5.2215  3.6034  3.6034  1.9576  1.9576  1.2300  1.2300  0.9170  0.9170
  0.8376  0.5213

 Free energy of the ion-electron system (eV)
  ---------------------------------------------------
  alpha Z        PSCENC =        93.56316191
  Ewald energy   TEWEN  =     -6229.80980546
  -Hartree energ DENC   =      -412.05517341
  -exchange      EXHF   =         0.00000000
  -V(xc)+E(xc)   XCENC  =      -478.63287171
  PAW double counting   =     23022.70108847   -22087.63882689
  entropy T*S    EENTRO =        -0.00239522
  eigenvalues    EBANDS =       148.63718336
  atomic energy  EATOM  =      5638.56506835
  Solvation  Ediel_sol  =         0.00000000
  ---------------------------------------------------
  free energy    TOTEN  =      -304.67257061 eV

  energy without entropy =     -304.67017539  energy(sigma->0) =     -304.67137300


--------------------------------------------------------------------------------------------------------




--------------------------------------- Iteration      1(  18)  ---------------------------------------


    POTLOK:  cpu time    0.0854: real time    0.0865
    SETDIJ:  cpu time    0.0045: real time    0.0045
     EDDAV:  cpu time    4.0636: real time    4.1051
       DOS:  cpu time    0.4476: real time    0.4526
    --------------------------------------------
      LOOP:  cpu time    4.6009: real time    4.6487

 eigenvalue-minimisations  :  2088
 total energy-change (2. order) :-0.3569967E-06  (-0.1912073E-06)
 number of electron     214.9999999 magnetization 
 augmentation part      -12.6433526 magnetization 

 Free energy of the ion-electron system (eV)
  ---------------------------------------------------
  alpha Z        PSCENC =        93.56316191
  Ewald energy   TEWEN  =     -6229.80980546
  -Hartree energ DENC   =      -412.05696194
  -exchange      EXHF   =         0.00000000
  -V(xc)+E(xc)   XCENC  =      -478.63286420
  PAW double counting   =     23021.89343797   -22086.83129919
  entropy T*S    EENTRO =        -0.00239522
  eigenvalues    EBANDS =       148.63908680
  atomic energy  EATOM  =      5638.56506835
  Solvation  Ediel_sol  =         0.00000000
  ---------------------------------------------------
  free energy    TOTEN  =      -304.67257097 eV

  energy without entropy =     -304.67017575  energy(sigma->0) =     -304.67137336


--------------------------------------------------------------------------------------------------------




 average (electrostatic) potential at core
  the test charge radii are     0.9587  0.9892
  (the norm of the test charge is              1.0000)
       1 -83.7202       2 -83.3185       3 -83.3185       4 -83.3185       5 -83.2163
       6 -83.3185       7 -83.3185       8 -83.3185       9 -83.2115      10 -83.3185
      11 -83.2163      12 -83.3185      13 -83.2163      14 -83.2163      15 -83.1908
      16 -83.3185      17 -83.1908      18 -83.1908      19 -83.3185      20 -83.3185
      21 -83.2115      22 -83.3185      23 -83.1908      24 -83.1908      25 -83.2115
      26 -83.1908      27 -83.2115      28 -83.1861      29 -83.2282      30 -83.2282
      31 -83.2282      32 -83.7821      33 -83.2282      34 -83.2282      35 -83.2282
      36 -83.1866      37 -83.2282      38 -83.7821      39 -83.2282      40 -83.7821
      41 -83.7821      42 -83.3021      43 -83.2282      44 -83.3021      45 -83.3021
      46 -83.2282      47 -83.2282      48 -83.1866      49 -83.2282      50 -83.3021
      51 -83.3021      52 -83.1866      53 -83.3021      54 -83.1866
 
 
 
 E-fermi :   5.5157     XC(G=0):  -9.3796     alpha+bet :-11.9596


 k-point     1 :       0.0000    0.0000    0.0000
  band No.  band energies     occupation 
      1      -6.7265      2.00000
      2      -5.8201      2.00000
      3      -4.7811      2.00000
      4      -4.7811      2.00000
      5      -4.7811      2.00000
      6      -4.7245      2.00000
      7      -4.7245      2.00000
      8      -4.7245      2.00000
      9      -4.6938      2.00000
     10      -4.3643      2.00000
     11      -4.2244      2.00000
     12      -4.2244      2.00000
     13      -4.2244      2.00000
     14      -4.2046      2.00000
     15      -4.2046      2.00000
     16      -3.4166      2.00000
     17      -2.9528      2.00000
     18      -2.9528      2.00000
     19      -2.9528      2.00000
     20      -2.8585      2.00000
     21      -2.8585      2.00000
     22      -2.8585      2.00000
     23      -2.8353      2.00000
     24      -2.8353      2.00000
     25      -2.8094      2.00000
     26      -2.8094      2.00000
     27      -2.8094      2.00000
     28      -1.4385      2.00000
     29      -1.0782      2.00000
     30      -1.0782      2.00000
     31      -1.0782      2.00000
     32      -0.9379      2.00000
     33      -0.9379      2.00000
     34      -0.9379      2.00000
     35      -0.9073      2.00000
     36      -0.9073      2.00000
     37      -0.8839      2.00000
     38      -0.8839      2.00000
     39      -0.8839      2.00000
     40       0.2488      2.00000
     41       0.3353      2.00000
     42       0.3353      2.00000
     43       0.3353      2.00000
     44       0.5084      2.00000
     45       0.5084      2.00000
     46       0.5084      2.00000
     47       0.5256      2.00000
     48       0.7687      2.00000
     49       0.7890      2.00000
     50       0.7890      2.00000
     51       0.7890      2.00000
     52       0.8304      2.00000
     53       0.8304      2.00000
     54       1.2028      2.00000
     55       1.2028      2.00000
     56       1.2028      2.00000
     57       1.4123      2.00000
     58       1.4123      2.00000
     59       1.4766      2.00000
     60       1.4766      2.00000
     61       1.4766      2.00000
     62       1.4907      2.00000
     63       1.4907      2.00000
     64       1.4907      2.00000
     65       1.4930      2.00000
     66       2.9678      2.00000
     67       2.9678      2.00000
     68       2.9678      2.00000
     69       3.3940      2.00000
     70       3.3940      2.00000
     71       3.3940      2.00000
     72       3.4234      2.00000
     73       3.4234      2.00000
     74       3.4234      2.00000
     75       3.4475      2.00000
     76       3.4475      2.00000
     77       3.4475      2.00000
     78       3.6619      2.00000
     79       3.6619      2.00000
     80       3.6619      2.00000
     81       3.7211      2.00000
     82       3.7211      2.00000
     83       3.7211      2.00000
     84       3.7275      2.00000
     85       3.7275      2.00000
     86       3.7432      2.00000
     87       3.7558      2.00000
     88       3.7558      2.00000
     89       3.7558      2.00000
     90       4.5802      2.00000
     91       4.5802      2.00000
     92       4.5802      2.00000
     93       4.8123      2.00000
     94       4.8123      2.00000
     95       4.8145      2.00000
     96       4.8145      2.00000
     97       4.8145      2.00000
     98       4.8672      2.00000
     99       4.8672      2.00000
    100       4.8672      2.00000
    101       4.8697      2.00000
    102       4.8697      2.00000
    103       4.8702      2.00000
    104       4.8702      2.00000
    105       4.8702      2.00000
    106       5.8035      0.00000
    107       5.8035      0.00000
    108       5.8035      0.00000
    109       6.2880      0.00000
    110       6.5252      0.00000
    111       6.5252      0.00000
    112       6.5252      0.00000
    113       6.5828      0.00000
    114       6.5828      0.00000
    115       6.9257      0.00000
    116       7.3196      0.00000
    117       7.3196      0.00000
    118       7.3196      0.00000
    119       7.3897      0.00000
    120       7.3897      0.00000
    121       7.4261      0.00000
    122       7.4261      0.00000
    123       7.4261      0.00000
    124       7.4424      0.00000
    125       7.4424      0.00000
    126       7.4424      0.00000
    127       7.5443      0.00000
    128       7.5769      0.00000
    129       7.5769      0.00000
    130       7.5769      0.00000
    131       7.6420      0.00000
    132       7.6479      0.00000
    133       7.6479      0.00000
    134       7.6479      0.00000
    135       7.8490      0.00000
    136       7.8490      0.00000
    137       7.8490      0.00000
    138       7.8564      0.00000
    139       7.8564      0.00000
    140       7.8610      0.00000
    141       8.3532      0.00000
    142       8.3532      0.00000
    143       8.3532      0.00000
    144       9.1293      0.00000

 k-point     2 :       0.2500    0.0000    0.0000
  band No.  band energies     occupation 
      1      -6.7083      2.00000
      2      -5.7917      2.00000
      3      -5.2277      2.00000
      4      -4.8810      2.00000
      5      -4.8810      2.00000
      6      -4.7029      2.00000
      7      -4.6092      2.00000
      8      -4.6092      2.00000
      9      -4.5212      2.00000
     10      -4.4473      2.00000
     11      -4.4473      2.00000
     12      -4.1930      2.00000
     13      -3.8713      2.00000
     14      -3.6900      2.00000
     15      -3.6900      2.00000
     16      -3.5906      2.00000
     17      -3.4557      2.00000
     18      -3.4557      2.00000
     19      -3.1058      2.00000
     20      -2.9049      2.00000
     21      -2.9049      2.00000
     22      -2.8537      2.00000
     23      -2.8163      2.00000
     24      -2.8163      2.00000
     25      -2.6757      2.00000
     26      -2.5886      2.00000
     27      -2.5886      2.00000
     28      -1.5192      2.00000
     29      -1.2370      2.00000
     30      -1.2370      2.00000
     31      -1.1983      2.00000
     32      -1.0502      2.00000
     33      -1.0502      2.00000
     34      -0.9735      2.00000
     35      -0.9374      2.00000
     36      -0.9374      2.00000
     37      -0.6742      2.00000
     38      -0.5266      2.00000
     39      -0.4930      2.00000
     40      -0.4930      2.00000
     41      -0.1178      2.00000
     42      -0.0081      2.00000
     43      -0.0081      2.00000
     44       0.1092      2.00000
     45       0.1092      2.00000
     46       0.1374      2.00000
     47       0.8441      2.00000
     48       0.8788      2.00000
     49       0.8788      2.00000
     50       1.2593      2.00000
     51       1.2846      2.00000
     52       1.2846      2.00000
     53       1.4203      2.00000
     54       1.4733      2.00000
     55       1.4733      2.00000
     56       1.6148      2.00000
     57       1.6148      2.00000
     58       1.6511      2.00000
     59       1.6723      2.00000
     60       1.6728      2.00000
     61       1.6728      2.00000
     62       1.7723      2.00000
     63       1.8373      2.00000
     64       1.8373      2.00000
     65       1.9342      2.00000
     66       2.6861      2.00000
     67       2.8151      2.00000
     68       2.8151      2.00000
     69       3.0673      2.00000
     70       3.0673      2.00000
     71       3.1551      2.00000
     72       3.2754      2.00000
     73       3.3558      2.00000
     74       3.3558      2.00000
     75       3.4163      2.00000
     76       3.4163      2.00000
     77       3.4231      2.00000
     78       3.4400      2.00000
     79       3.4400      2.00000
     80       3.4539      2.00000
     81       3.5009      2.00000
     82       3.5143      2.00000
     83       3.5143      2.00000
     84       3.6519      2.00000
     85       3.6519      2.00000
     86       3.7137      2.00000
     87       3.8856      2.00000
     88       3.9867      2.00000
     89       3.9867      2.00000
     90       4.0556      2.00000
     91       4.0556      2.00000
     92       4.1249      2.00000
     93       4.4296      2.00000
     94       4.4296      2.00000
     95       4.4685      2.00000
     96       4.5280      2.00000
     97       4.5616      2.00000
     98       4.5616      2.00000
     99       4.6512      2.00000
    100       4.6512      2.00000
    101       4.8131      2.00000
    102       4.8131      2.00000
    103       4.8517      2.00000
    104       4.9613      2.00000
    105       5.0561      2.00000
    106       5.0561      2.00000
    107       5.6640      0.00003
    108       5.6640      0.00003
    109       6.5398      0.00000
    110       6.7023      0.00000
    111       6.7023      0.00000
    112       6.8242      0.00000
    113       7.0167      0.00000
    114       7.0167      0.00000
    115       7.0887      0.00000
    116       7.1196      0.00000
    117       7.1196      0.00000
    118       7.3300      0.00000
    119       7.5187      0.00000
    120       7.6856      0.00000
    121       7.6856      0.00000
    122       7.7638      0.00000
    123       7.8340      0.00000
    124       7.8340      0.00000
    125       7.8654      0.00000
    126       7.9144      0.00000
    127       7.9376      0.00000
    128       7.9376      0.00000
    129       7.9945      0.00000
    130       7.9945      0.00000
    131       8.0096      0.00000
    132       8.0426      0.00000
    133       8.0460      0.00000
    134       8.0460      0.00000
    135       8.1366      0.00000
    136       8.1545      0.00000
    137       8.1545      0.00000
    138       8.3963      0.00000
    139       8.5560      0.00000
    140       8.5560      0.00000
    141       8.6085      0.00000
    142       8.6354      0.00000
    143       8.6354      0.00000
    144       8.9887      0.00000

 k-point     3 :       0.5000    0.0000    0.0000
  band No.  band energies     occupation 
      1      -6.6889      2.00000
      2      -5.7300      2.00000
      3      -5.4674      2.00000
      4      -4.8708      2.00000
      5      -4.8708      2.00000
      6      -4.7821      2.00000
[...]
   32        0.752   0.900   0.000   1.652
   33        0.751   0.931   0.000   1.682
   34        0.751   0.931   0.000   1.682
   35        0.751   0.931   0.000   1.682
   36        0.751   0.931   0.000   1.682
   37        0.751   0.933   0.000   1.684
   38        0.754   0.898   0.000   1.652
   39        0.751   0.933   0.000   1.684
   40        0.755   0.898   0.000   1.652
   41        0.755   0.898   0.000   1.652
   42        0.751   0.933   0.000   1.684
   43        0.751   0.933   0.000   1.684
   44        0.750   0.931   0.000   1.681
   45        0.750   0.931   0.000   1.681
   46        0.751   0.931   0.000   1.682
   47        0.751   0.931   0.000   1.682
   48        0.751   0.931   0.000   1.682
   49        0.751   0.932   0.000   1.683
   50        0.750   0.929   0.000   1.679
   51        0.750   0.929   0.000   1.679
   52        0.751   0.931   0.000   1.682
   53        0.750   0.929   0.000   1.679
   54        0.751   0.931   0.000   1.682
--------------------------------------------------
tot         40.820  50.702   0.000  91.521
 
    CHARGE:  cpu time    0.1643: real time    0.1654
    FORLOC:  cpu time    0.0527: real time    0.0530
    FORNL :  cpu time    2.3531: real time    2.6128
    STRESS:  cpu time    6.7922: real time    6.8684
    FORCOR:  cpu time    0.1144: real time    0.1156
    FORHAR:  cpu time    0.0451: real time    0.0454
    MIXING:  cpu time    0.0255: real time    0.0256
    OFIELD:  cpu time    0.0002: real time    0.0004

  FORCE on cell =-STRESS in cart. coord.  units (eV):
  Direction    XX          YY          ZZ          XY          YZ          ZX
  --------------------------------------------------------------------------------------
  Alpha Z    93.56316    93.56316    93.56316
  Ewald   -2076.61550 -2076.61550 -2076.61550    -0.00000    -0.00000    -0.00000
  Hartree   137.37991   137.37991   137.37991    -0.00000     0.00000     0.00000
  E(xc)    -682.10240  -682.10240  -682.10242    -0.00001    -0.00001    -0.00001
  Local    -801.91865  -801.91875  -801.91825     0.00014     0.00024     0.00035
  n-local  2093.12297  2108.15953  2118.71385    -3.19117    -0.97588     0.69007
  augment  -318.43025  -318.43016  -318.43059    -0.00012    -0.00021    -0.00030
  Kinetic  1512.58073  1535.06000  1551.37069    -2.86670    -1.34497     0.95104
  Fock        0.00000     0.00000     0.00000     0.00000     0.00000     0.00000
  -------------------------------------------------------------------------------------
  Total      -8.45446    -8.45446    -8.45446     0.00000     0.00000    -0.00000
  in kB     -12.53065   -12.53065   -12.53065     0.00000     0.00000    -0.00000
  external pressure =      -12.53 kB  Pullay stress =        0.00 kB


 VOLUME and BASIS-vectors are now :
 -----------------------------------------------------------------------------
  energy-cutoff  :      550.00
  volume of cell :     1080.99
      direct lattice vectors                 reciprocal lattice vectors
     9.976465530  0.000000000  5.759915070     0.100235900 -0.035438742  0.000000000
     3.325488510  9.405901920  5.759915070     0.000000000  0.106316227  0.000000000
     0.000000000  0.000000000 11.519830140    -0.050117950 -0.035438742  0.086806836

  length of vectors
    11.519830124 11.519830136 11.519830140     0.106316227  0.106316227  0.106316227


 FORCES acting on ions
    electron-ion (+dipol)            ewald-force                    non-local-force                 convergence-correction
 -----------------------------------------------------------------------------------------------
   -.547E-06 -.287E-06 -.826E-06   0.149E-06 -.790E-07 0.129E-10   0.260E-17 -.139E-16 -.659E-16   0.273E-07 0.193E-07 0.473E-07
   -.478E+00 -.338E+00 -.280E+01   0.119E-06 -.632E-07 0.298E+01   0.277E+00 0.196E+00 -.211E+00   -.192E-03 -.136E-03 -.247E-03
   -.478E+00 -.338E+00 0.280E+01   0.119E-06 -.632E-07 -.298E+01   0.277E+00 0.196E+00 0.211E+00   -.192E-03 -.136E-03 0.247E-03
   -.105E+01 -.194E+01 -.181E+01   0.861E+00 0.244E+01 0.149E+01   0.774E-01 -.368E+00 0.134E+00   -.167E-03 -.658E-04 -.290E-03
   -.715E-01 0.253E-01 0.181E-05   -.715E-01 0.253E-01 0.239E-12   0.104E+00 -.368E-01 0.555E-16   0.955E-03 -.337E-03 -.891E-08
   -.105E+01 -.194E+01 0.181E+01   0.861E+00 0.244E+01 -.149E+01   0.774E-01 -.368E+00 -.134E+00   -.167E-03 -.658E-04 0.290E-03
   0.568E+00 0.262E+01 0.984E+00   -.861E+00 -.244E+01 -.149E+01   0.199E+00 -.232E-01 0.345E+00   -.248E-04 0.337E-03 -.429E-04
   0.568E+00 0.262E+01 -.984E+00   -.861E+00 -.244E+01 0.149E+01   0.199E+00 -.232E-01 -.345E+00   -.247E-04 0.338E-03 0.429E-04
   -.207E+00 0.734E-01 0.512E-06   0.715E-01 -.253E-01 -.503E-11   0.959E-01 -.339E-01 0.278E-16   -.117E-02 0.415E-03 -.245E-07
   -.218E+01 -.338E+00 -.181E+01   0.258E+01 -.630E-07 0.149E+01   -.321E+00 0.196E+00 0.134E+00   -.118E-03 -.136E-03 -.290E-03
   0.979E-06 -.758E-01 0.181E-05   0.115E-06 -.758E-01 0.232E-12   0.147E-16 0.111E+00 0.278E-16   -.514E-08 0.101E-02 -.891E-08
   -.218E+01 -.338E+00 0.181E+01   0.258E+01 -.630E-07 -.149E+01   -.321E+00 0.196E+00 -.134E+00   -.118E-03 -.136E-03 0.290E-03
   0.357E-01 0.253E-01 -.619E-01   0.357E-01 0.253E-01 -.619E-01   -.521E-01 -.368E-01 0.902E-01   -.477E-03 -.337E-03 0.827E-03
   0.357E-01 0.253E-01 0.619E-01   0.357E-01 0.253E-01 0.619E-01   -.521E-01 -.368E-01 -.902E-01   -.477E-03 -.337E-03 -.827E-03
   -.834E+00 -.590E+00 0.366E-06   0.868E+00 0.614E+00 0.362E-12   -.270E-01 -.191E-01 -.382E-16   -.412E-03 -.291E-03 -.240E-07
   -.114E+01 0.262E+01 -.179E-05   0.172E+01 -.244E+01 0.479E-11   -.399E+00 -.232E-01 -.191E-16   0.495E-04 0.338E-03 0.330E-07
   -.417E+00 0.590E+00 -.723E+00   0.434E+00 -.614E+00 0.752E+00   -.135E-01 0.191E-01 -.234E-01   -.206E-03 0.291E-03 -.356E-03
   -.417E+00 0.590E+00 0.723E+00   0.434E+00 -.614E+00 -.752E+00   -.135E-01 0.191E-01 0.234E-01   -.206E-03 0.291E-03 0.356E-03
   0.266E+01 -.338E+00 0.984E+00   -.258E+01 -.634E-07 -.149E+01   0.445E-01 0.196E+00 0.345E+00   0.310E-03 -.136E-03 -.429E-04
   0.266E+01 -.338E+00 -.984E+00   -.258E+01 -.634E-07 0.149E+01   0.445E-01 0.196E+00 -.345E+00   0.310E-03 -.136E-03 0.429E-04
   0.224E-06 -.220E+00 0.512E-06   0.124E-06 0.758E-01 -.504E-11   -.139E-16 0.102E+00 -.312E-16   -.141E-07 -.125E-02 -.245E-07
   0.209E+01 -.194E+01 -.179E-05   -.172E+01 0.244E+01 0.479E-11   -.155E+00 -.368E+00 -.173E-16   0.335E-03 -.658E-04 0.330E-07
   0.417E+00 -.590E+00 -.723E+00   -.434E+00 0.614E+00 0.752E+00   0.135E-01 -.191E-01 -.234E-01   0.206E-03 -.291E-03 -.356E-03
   0.417E+00 -.590E+00 0.723E+00   -.434E+00 0.614E+00 -.752E+00   0.135E-01 -.191E-01 0.234E-01   0.206E-03 -.291E-03 0.356E-03
   0.104E+00 0.734E-01 -.180E+00   -.357E-01 -.253E-01 0.619E-01   -.479E-01 -.339E-01 0.830E-01   0.587E-03 0.415E-03 -.102E-02
   0.834E+00 0.590E+00 0.150E-05   -.868E+00 -.614E+00 -.107E-10   0.270E-01 0.191E-01 -.278E-16   0.412E-03 0.291E-03 -.750E-08
   0.104E+00 0.734E-01 0.180E+00   -.357E-01 -.253E-01 -.619E-01   -.479E-01 -.339E-01 -.830E-01   0.587E-03 0.415E-03 0.102E-02
   0.739E-06 0.441E-06 0.116E-05   -.116E-06 0.615E-07 0.105E-10   -.460E-16 0.139E-16 0.798E-16   -.465E-08 -.329E-08 -.806E-08
   0.128E+01 0.908E+00 0.819E+00   -.142E+01 -.101E+01 -.718E+00   0.107E+00 0.758E-01 -.679E-01   0.274E-03 0.194E-03 -.706E-03
   0.128E+01 0.908E+00 -.819E+00   -.142E+01 -.101E+01 0.718E+00   0.107E+00 0.758E-01 0.679E-01   0.274E-03 0.194E-03 0.706E-03
   0.878E+00 -.239E+00 0.152E+01   -.919E+00 0.420E+00 -.159E+01   0.340E-01 -.131E+00 0.589E-01   -.666E-04 -.770E-03 -.115E-03
   0.582E+01 -.206E+01 -.148E-05   -.932E+01 0.329E+01 0.597E-11   0.355E+01 -.126E+01 0.139E-15   0.762E-03 -.269E-03 0.380E-07
   0.878E+00 -.239E+00 -.152E+01   -.919E+00 0.420E+00 0.159E+01   0.340E-01 -.131E+00 -.589E-01   -.666E-04 -.770E-03 0.115E-03
   0.406E+00 -.158E+01 0.703E+00   -.504E+00 0.159E+01 -.873E+00   0.732E-01 -.204E-01 0.127E+00   0.341E-03 0.382E-03 0.590E-03
   0.406E+00 -.158E+01 -.703E+00   -.504E+00 0.159E+01 0.873E+00   0.732E-01 -.204E-01 -.127E+00   0.341E-03 0.382E-03 -.590E-03
   0.315E+00 -.111E+00 -.256E-07   -.334E+00 0.118E+00 -.490E-11   0.198E-01 -.698E-02 -.694E-17   0.692E-03 -.245E-03 -.217E-07
   0.670E-01 0.908E+00 0.152E+01   0.899E-01 -.101E+01 -.159E+01   -.112E+00 0.758E-01 0.589E-01   -.748E-03 0.194E-03 -.115E-03
   -.776E-06 0.617E+01 -.148E-05   -.120E-06 -.988E+01 0.595E-11   0.347E-16 0.377E+01 0.146E-15   0.219E-07 0.809E-03 0.380E-07
   0.670E-01 0.908E+00 -.152E+01   0.899E-01 -.101E+01 0.159E+01   -.112E+00 0.758E-01 -.589E-01   -.748E-03 0.194E-03 0.115E-03
   -.291E+01 -.206E+01 0.504E+01   0.466E+01 0.329E+01 -.807E+01   -.178E+01 -.126E+01 0.308E+01   -.381E-03 -.269E-03 0.660E-03
   -.291E+01 -.206E+01 -.504E+01   0.466E+01 0.329E+01 0.807E+01   -.178E+01 -.126E+01 -.308E+01   -.381E-03 -.270E-03 -.660E-03
   0.264E+00 0.187E+00 -.216E-06   0.215E+00 0.152E+00 -.104E-10   -.303E+00 -.214E+00 0.278E-16   0.591E-03 0.418E-03 -.237E-07
   -.811E+00 -.158E+01 0.130E-05   0.101E+01 0.159E+01 -.457E-12   -.146E+00 -.204E-01 -.694E-17   -.682E-03 0.382E-03 -.812E-08
   0.132E+00 -.187E+00 0.229E+00   0.108E+00 -.152E+00 0.186E+00   -.152E+00 0.214E+00 -.262E+00   0.296E-03 -.418E-03 0.512E-03
   0.132E+00 -.187E+00 -.229E+00   0.108E+00 -.152E+00 -.186E+00   -.152E+00 0.214E+00 0.262E+00   0.296E-03 -.418E-03 -.512E-03
   -.135E+01 0.908E+00 0.703E+00   0.133E+01 -.101E+01 -.873E+00   0.519E-02 0.758E-01 0.127E+00   0.474E-03 0.194E-03 0.590E-03
   -.135E+01 0.908E+00 -.703E+00   0.133E+01 -.101E+01 0.873E+00   0.519E-02 0.758E-01 -.127E+00   0.474E-03 0.194E-03 -.590E-03
   0.579E-07 0.334E+00 -.256E-07   -.122E-06 -.354E+00 -.492E-11   -.113E-16 0.210E-01 0.278E-16   -.126E-07 0.734E-03 -.217E-07
   -.176E+01 -.239E+00 0.130E-05   0.184E+01 0.420E+00 -.453E-12   -.680E-01 -.131E+00 -.243E-16   0.133E-03 -.770E-03 -.812E-08
   -.132E+00 0.187E+00 0.229E+00   -.108E+00 0.152E+00 0.186E+00   0.152E+00 -.214E+00 -.262E+00   -.296E-03 0.418E-03 0.512E-03
   -.132E+00 0.187E+00 -.229E+00   -.108E+00 0.152E+00 -.186E+00   0.152E+00 -.214E+00 0.262E+00   -.296E-03 0.418E-03 -.512E-03
   -.157E+00 -.111E+00 0.273E+00   0.167E+00 0.118E+00 -.289E+00   -.988E-02 -.698E-02 0.171E-01   -.346E-03 -.245E-03 0.599E-03
   -.264E+00 -.187E+00 -.176E-05   -.215E+00 -.152E+00 -.393E-12   0.303E+00 0.214E+00 -.347E-17   -.591E-03 -.418E-03 0.312E-07
   -.157E+00 -.111E+00 -.273E+00   0.167E+00 0.118E+00 0.289E+00   -.988E-02 -.698E-02 -.171E-01   -.346E-03 -.245E-03 -.599E-03
 -----------------------------------------------------------------------------------------------
   0.550E-06 0.370E-06 0.912E-06   0.167E-13 -.902E-15 -.152E-13   0.208E-14 0.808E-15 -.241E-14   0.619E-08 0.439E-08 0.107E-07
 
 
 POSITION                                       TOTAL-FORCE (eV/Angst)
 -----------------------------------------------------------------------------------
      3.87974      2.74339      6.71990         0.000000     -0.000000      0.000000
      3.87974      2.74339     10.55984        -0.201321     -0.142356     -0.023521
      3.87974      2.74339     14.39979        -0.201321     -0.142356      0.023521
      4.98823      5.87869      8.63987        -0.107451      0.123151     -0.186110
      4.98823      5.87869     12.47982        -0.037796      0.013363     -0.000000
      4.98823      5.87869     16.31976        -0.107451      0.123151      0.186110
      6.09673      9.01399     10.55984        -0.093871      0.161561     -0.162589
      6.09673      9.01399     14.39979        -0.093871      0.161561      0.162589
      6.09673      9.01399     18.23973        -0.041285      0.014597      0.000000
      7.20523      2.74339      8.63987         0.080291     -0.142356     -0.186110
      7.20523      2.74339     12.47982         0.000000     -0.040089     -0.000000
      7.20523      2.74339     16.31976         0.080291     -0.142356      0.186110
      8.31372      5.87869     10.55984         0.018898      0.013363     -0.032732
      8.31372      5.87869     14.39979         0.018898      0.013363      0.032732
      8.31372      5.87869     18.23973         0.006374      0.004507      0.000000
      9.42222      9.01399     12.47982         0.187741      0.161561     -0.000000
      9.42222      9.01399     16.31976         0.003187     -0.004507      0.005520
      9.42222      9.01399     20.15970         0.003187     -0.004507     -0.005520
     10.53071      2.74339     10.55984         0.121031     -0.142356     -0.162589
     10.53071      2.74339     14.39979         0.121031     -0.142356      0.162589
     10.53071      2.74339     18.23973         0.000000     -0.043790     -0.000000
     11.63921      5.87869     12.47982         0.214901      0.123151     -0.000000
     11.63921      5.87869     16.31976        -0.003187      0.004507      0.005520
     11.63921      5.87869     20.15970        -0.003187      0.004507     -0.005520
     12.74771      9.01399     14.39979         0.020643      0.014597     -0.035754
     12.74771      9.01399     18.23973        -0.006374     -0.004507      0.000000
     12.74771      9.01399     22.07967         0.020643      0.014597      0.035754
      0.55425      0.39191      0.95999         0.000000     -0.000000      0.000000
      0.55425      0.39191      4.79993        -0.031758     -0.022456      0.032209
      0.55425      0.39191      8.63987        -0.031758     -0.022456     -0.032209
      1.66274      3.52721      2.87996        -0.006581      0.048755     -0.011398
      1.66274      3.52721      6.71990         0.052176     -0.018447     -0.000000
      1.66274      3.52721     10.55984        -0.006581      0.048755      0.011398
      2.77124      6.66251      4.79993        -0.025177     -0.003843     -0.043608
      2.77124      6.66251      8.63987        -0.025177     -0.003843      0.043608
      2.77124      6.66251     12.47982         0.001470     -0.000520      0.000000
      3.87974      0.39191      2.87996         0.043773     -0.022456     -0.011398
      3.87974      0.39191      6.71990         0.000000      0.055341      0.000000
      3.87974      0.39191     10.55984         0.043773     -0.022456      0.011398
      4.98823      3.52721      4.79993        -0.026088     -0.018447      0.045186
      4.98823      3.52721      8.63987        -0.026088     -0.018447     -0.045186
      4.98823      3.52721     12.47982         0.176523      0.124821     -0.000000
      6.09673      6.66251      6.71990         0.050354     -0.003843      0.000000
      6.09673      6.66251     10.55984         0.088262     -0.124821      0.152874
      6.09673      6.66251     14.39979         0.088262     -0.124821     -0.152874
      7.20523      0.39191      4.79993        -0.012015     -0.022456     -0.043608
      7.20523      0.39191      8.63987        -0.012015     -0.022456      0.043608
      7.20523      0.39191     12.47982         0.000000      0.001559      0.000000
      8.31372      3.52721      6.71990         0.013162      0.048755      0.000000
      8.31372      3.52721     10.55984        -0.088262      0.124821      0.152874
      8.31372      3.52721     14.39979        -0.088262      0.124821     -0.152874
      9.42222      6.66251      8.63987        -0.000735     -0.000520      0.001273
      9.42222      6.66251     12.47982        -0.176523     -0.124821     -0.000000
      9.42222      6.66251     16.31976        -0.000735     -0.000520     -0.001273
 -----------------------------------------------------------------------------------
    total drift:                                0.000001      0.000000      0.000001


--------------------------------------------------------------------------------------------------------



  FREE ENERGIE OF THE ION-ELECTRON SYSTEM (eV)
  ---------------------------------------------------
  free  energy   TOTEN  =      -304.67257097 eV

  energy  without entropy=     -304.67017575  energy(sigma->0) =     -304.67137336
 


--------------------------------------------------------------------------------------------------------


    POTLOK:  cpu time    0.0915: real time    0.0922


--------------------------------------------------------------------------------------------------------


 writing wavefunctions
     LOOP+:  cpu time  111.8505: real time  113.4099
    4ORBIT:  cpu time    0.0000: real time    0.0000
 


 total charge     
 
# of ion       s       p       d       tot
------------------------------------------
    1        1.018   1.463   0.000   2.481
    2        0.752   0.935   0.000   1.686
    3        0.752   0.935   0.000   1.686
    4        0.751   0.933   0.000   1.684
    5        0.751   0.933   0.000   1.684
    6        0.751   0.933   0.000   1.684
    7        0.751   0.933   0.000   1.684
    8        0.751   0.933   0.000   1.684
    9        0.751   0.933   0.000   1.683
   10        0.750   0.932   0.000   1.682
   11        0.751   0.932   0.000   1.683
   12        0.750   0.932   0.000   1.682
   13        0.751   0.931   0.000   1.682
   14        0.751   0.931   0.000   1.682
   15        0.751   0.931   0.000   1.682
   16        0.750   0.931   0.000   1.682
   17        0.751   0.931   0.000   1.682
   18        0.751   0.931   0.000   1.682
   19        0.750   0.932   0.000   1.682
   20        0.750   0.931   0.000   1.682
   21        0.751   0.931   0.000   1.682
   22        0.751   0.931   0.000   1.682
   23        0.751   0.931   0.000   1.682
   24        0.751   0.931   0.000   1.682
   25        0.751   0.931   0.000   1.681
   26        0.751   0.931   0.000   1.682
   27        0.751   0.931   0.000   1.681
   28        0.751   0.931   0.000   1.682
   29        0.751   0.931   0.000   1.682
   30        0.751   0.931   0.000   1.682
   31        0.751   0.931   0.000   1.682
   32        0.752   0.900   0.000   1.652
   33        0.751   0.931   0.000   1.682
   34        0.751   0.931   0.000   1.682
   35        0.751   0.931   0.000   1.682
   36        0.751   0.931   0.000   1.682
   37        0.751   0.933   0.000   1.684
   38        0.754   0.898   0.000   1.652
   39        0.751   0.933   0.000   1.684
   40        0.755   0.898   0.000   1.652
   41        0.755   0.898   0.000   1.652
   42        0.751   0.933   0.000   1.684
   43        0.751   0.933   0.000   1.684
   44        0.750   0.931   0.000   1.681
   45        0.750   0.931   0.000   1.681
   46        0.751   0.931   0.000   1.682
   47        0.751   0.931   0.000   1.682
   48        0.751   0.931   0.000   1.682
   49        0.751   0.932   0.000   1.683
   50        0.750   0.929   0.000   1.679
   51        0.750   0.929   0.000   1.679
   52        0.751   0.931   0.000   1.682
   53        0.750   0.929   0.000   1.679
   54        0.751   0.931   0.000   1.682
--------------------------------------------------
tot         40.820  50.702   0.000  91.521
 

 total amount of memory used by VASP MPI-rank0   140598. kBytes
=======================================================================

   base      :      30000. kBytes
   nonl-proj :      59902. kBytes
   fftplans  :       5382. kBytes
   grid      :      20451. kBytes
   one-center:        165. kBytes
   wavefun   :      24698. kBytes
 
  
  
 General timing and accounting informations for this job:
 ========================================================
  
                  Total CPU time used (sec):      125.761
                            User time (sec):      119.425
                          System time (sec):        6.335
                         Elapsed time (sec):      133.019
  
                   Maximum memory used (kb):      375648.
                   Average memory used (kb):           0.
  
                          Minor page faults:        42635
                          Major page faults:            0
                 Voluntary context switches:         6683
