 vasp.5.4.4.18Apr17-6-g9f103f2a35 (build Jun 19 2019 10:34:07) complex          
  
 executed on               LB-5.4 date 2023.05.15  18:42:11
 running on   96 total cores
 distrk:  each k-point on   24 cores,    4 groups
 distr:  one band on NCORES_PER_BAND=   1 cores,   24 groups


--------------------------------------------------------------------------------------------------------


 INCAR:
 POTCAR:    PAW_PBE Si 05Jan2001                  

 ----------------------------------------------------------------------------- 
|                                                                             |
|           W    W    AA    RRRRR   N    N  II  N    N   GGGG   !!!           |
|           W    W   A  A   R    R  NN   N  II  NN   N  G    G  !!!           |
|           W    W  A    A  R    R  N N  N  II  N N  N  G       !!!           |
|           W WW W  AAAAAA  RRRRR   N  N N  II  N  N N  G  GGG   !            |
|           WW  WW  A    A  R   R   N   NN  II  N   NN  G    G                |
|           W    W  A    A  R    R  N    N  II  N    N   GGGG   !!!           |
|                                                                             |
|      For optimal performance we recommend to set                            |
|        NCORE= 4 - approx SQRT( number of cores)                             |
|      NCORE specifies how many cores store one orbital (NPAR=cpu/NCORE).     |
|      This setting can  greatly improve the performance of VASP for DFT.     |
|      The default,   NCORE=1            might be grossly inefficient         |
|      on modern multi-core architectures or massively parallel machines.     |
|      Do your own testing !!!!                                               |
|      Unfortunately you need to use the default for GW and RPA calculations. |
|      (for HF NCORE is supported but not extensively tested yet)             |
|                                                                             |
 ----------------------------------------------------------------------------- 


 ----------------------------------------------------------------------------- 
|                                                                             |
|           W    W    AA    RRRRR   N    N  II  N    N   GGGG   !!!           |
|           W    W   A  A   R    R  NN   N  II  NN   N  G    G  !!!           |
|           W    W  A    A  R    R  N N  N  II  N N  N  G       !!!           |
|           W WW W  AAAAAA  RRRRR   N  N N  II  N  N N  G  GGG   !            |
|           WW  WW  A    A  R   R   N   NN  II  N   NN  G    G                |
|           W    W  A    A  R    R  N    N  II  N    N   GGGG   !!!           |
|                                                                             |
|      You have enabled k-point parallelism (KPAR>1).                         |
|      This developmental code was originally  written by Paul Kent at ORNL,  |
|      and carefully double checked in Vienna.                                |
|      GW as well as linear response parallelism added by Martijn Marsman     |
|      and Georg Kresse.                                                      |
|      Carefully verify results versus KPAR=1.                                |
|      Report problems to Paul Kent and Vienna.                               |
|                                                                             |
 ----------------------------------------------------------------------------- 

 POTCAR:    PAW_PBE Si 05Jan2001                  
   VRHFIN =Si: s2p2                                                             
   LEXCH  = PE                                                                  
   EATOM  =   103.0669 eV,    7.5752 Ry                                         
                                                                                
   TITEL  = PAW_PBE Si 05Jan2001                                                
   LULTRA =        F    use ultrasoft PP ?                                      
   IUNSCR =        1    unscreen: 0-lin 1-nonlin 2-no                           
   RPACOR =    1.500    partial core radius                                     
   POMASS =   28.085; ZVAL   =    4.000    mass and valenz                      
   RCORE  =    1.900    outmost cutoff radius                                   
   RWIGS  =    2.480; RWIGS  =    1.312    wigner-seitz radius (au A)           
   ENMAX  =  245.345; ENMIN  =  184.009 eV                                      
   ICORE  =        2    local potential                                         
   LCOR   =        T    correct aug charges                                     
   LPAW   =        T    paw PP                                                  
   EAUG   =  322.069                                                            
   DEXC   =    0.000                                                            
   RMAX   =    1.950    core radius for proj-oper                               
   RAUG   =    1.300    factor for augmentation sphere                          
   RDEP   =    1.993    radius for radial grids                                 
   RDEPT  =    1.837    core radius for aug-charge                              
                                                                                
   Atomic configuration                                                         
    6 entries                                                                   
     n  l   j            E        occ.                                          
     1  0  0.50     -1785.8828   2.0000                                         
     2  0  0.50      -139.4969   2.0000                                         
     2  1  1.50       -95.5546   6.0000                                         
     3  0  0.50       -10.8127   2.0000                                         
     3  1  0.50        -4.0811   2.0000                                         
     3  2  1.50        -4.0817   0.0000                                         
   Description                                                                  
     l       E           TYP  RCUT    TYP  RCUT                                 
     0    -10.8127223     23  1.900                                             
     0     -7.6451159     23  1.900                                             
     1     -4.0811372     23  1.900                                             
     1      2.4879257     23  1.900                                             
     2     -4.0817478      7  1.900                                             
  local pseudopotential read in
  partial core-charges read in
  partial kinetic energy density read in
  atomic valenz-charges read in
  non local Contribution for L=           0  read in
    real space projection operators read in
  non local Contribution for L=           0  read in
    real space projection operators read in
  non local Contribution for L=           1  read in
    real space projection operators read in
  non local Contribution for L=           1  read in
    real space projection operators read in
    PAW grid and wavefunctions read in
 
   number of l-projection  operators is LMAX  =           4
   number of lm-projection operators is LMMAX =           8
 

 ----------------------------------------------------------------------------- 
|                                                                             |
|  ADVICE TO THIS USER RUNNING 'VASP/VAMP'   (HEAR YOUR MASTER'S VOICE ...):  |
|                                                                             |
|      You have a (more or less) 'large supercell' and for larger cells       |
|      it might be more efficient to use real space projection opertators     |
|      So try LREAL= Auto  in the INCAR   file.                               |
|      Mind:          For very  accurate calculation you might also keep the  |
|      reciprocal projection scheme          (i.e. LREAL=.FALSE.)             |
|                                                                             |
 ----------------------------------------------------------------------------- 

  PAW_PBE Si 05Jan2001                  :
 energy of atom  1       EATOM= -103.0669
 kinetic energy error for atom=    0.0004 (will be added to EATOM!!)
 
 
 POSCAR: Si55                                    
  positions in direct lattice
  velocities in cartesian coordinates
 exchange correlation table for  LEXCH =        8
   RHO(1)=    0.500       N(1)  =     2000
   RHO(2)=  100.500       N(2)  =     4000
 


--------------------------------------------------------------------------------------------------------


 ion  position               nearest neighbor table
   1  0.292  0.292  0.292-  32 2.35  40 2.35  41 2.35  38 2.35
   2  0.292  0.292  0.625-  33 2.35  41 2.35  42 2.35  39 2.35
   3  0.292  0.292  0.958-  31 2.35  40 2.35  42 2.35  37 2.35
   4  0.292  0.625  0.292-  35 2.35  43 2.35  44 2.35  41 2.35
   5  0.292  0.625  0.625-  36 2.35  55 2.35  44 2.35  45 2.35  42 2.35
   6  0.292  0.625  0.958-  34 2.35  43 2.35  45 2.35  40 2.35
   7  0.292  0.958  0.292-  29 2.35  37 2.35  38 2.35  44 2.35
   8  0.292  0.958  0.625-  30 2.35  38 2.35  39 2.35  45 2.35
   9  0.292  0.958  0.958-  28 2.35  37 2.35  39 2.35  43 2.35
  10  0.625  0.292  0.292-  41 2.35  49 2.35  50 2.35  47 2.35
  11  0.625  0.292  0.625-  42 2.35  55 2.35  50 2.35  51 2.35  48 2.35
  12  0.625  0.292  0.958-  40 2.35  49 2.35  51 2.35  46 2.35
  13  0.625  0.625  0.292-  44 2.35  55 2.35  52 2.35  53 2.35  50 2.35
  14  0.625  0.625  0.625-  45 2.35  55 2.35  53 2.35  54 2.35  51 2.35
  15  0.625  0.625  0.958-  43 2.35  52 2.35  54 2.35  49 2.35
  16  0.625  0.958  0.292-  38 2.35  46 2.35  47 2.35  53 2.35
  17  0.625  0.958  0.625-  39 2.35  47 2.35  48 2.35  54 2.35
  18  0.625  0.958  0.958-  37 2.35  46 2.35  48 2.35  52 2.35
  19  0.958  0.292  0.292-  50 2.35  32 2.35  31 2.35  29 2.35
  20  0.958  0.292  0.625-  51 2.35  33 2.35  32 2.35  30 2.35
  21  0.958  0.292  0.958-  49 2.35  31 2.35  33 2.35  28 2.35
  22  0.958  0.625  0.292-  53 2.35  35 2.35  34 2.35  32 2.35
  23  0.958  0.625  0.625-  54 2.35  36 2.35  35 2.35  33 2.35
  24  0.958  0.625  0.958-  52 2.35  34 2.35  36 2.35  31 2.35
  25  0.958  0.958  0.292-  47 2.35  29 2.35  28 2.35  35 2.35
  26  0.958  0.958  0.625-  48 2.35  30 2.35  29 2.35  36 2.35
  27  0.958  0.958  0.958-  46 2.35  28 2.35  30 2.35  34 2.35
  28  0.042  0.042  0.042-   9 2.35  27 2.35  25 2.35  21 2.35
  29  0.042  0.042  0.375-   7 2.35  25 2.35  26 2.35  19 2.35
  30  0.042  0.042  0.708-   8 2.35  26 2.35  27 2.35  20 2.35
  31  0.042  0.375  0.042-   3 2.35  21 2.35  19 2.35  24 2.35
  32  0.042  0.375  0.375-   1 2.35  19 2.35  20 2.35  22 2.35
  33  0.042  0.375  0.708-   2 2.35  20 2.35  21 2.35  23 2.35
  34  0.042  0.708  0.042-   6 2.35  24 2.35  22 2.35  27 2.35
  35  0.042  0.708  0.375-   4 2.35  22 2.35  23 2.35  25 2.35
  36  0.042  0.708  0.708-   5 2.35  23 2.35  24 2.35  26 2.35
  37  0.375  0.042  0.042-  18 2.35   9 2.35   7 2.35   3 2.35
  38  0.375  0.042  0.375-  16 2.35   8 2.35   7 2.35   1 2.35
  39  0.375  0.042  0.708-  17 2.35   9 2.35   8 2.35   2 2.35
  40  0.375  0.375  0.042-  12 2.35   3 2.35   1 2.35   6 2.35
  41  0.375  0.375  0.375-  10 2.35   2 2.35   1 2.35   4 2.35
  42  0.375  0.375  0.708-  11 2.35   3 2.35   2 2.35   5 2.35  55 2.72
  43  0.375  0.708  0.042-  15 2.35   6 2.35   4 2.35   9 2.35
  44  0.375  0.708  0.375-  13 2.35   5 2.35   4 2.35   7 2.35  55 2.72
  45  0.375  0.708  0.708-  14 2.35   6 2.35   5 2.35   8 2.35  55 2.72
  46  0.708  0.042  0.042-  27 2.35  18 2.35  16 2.35  12 2.35
  47  0.708  0.042  0.375-  25 2.35  17 2.35  16 2.35  10 2.35
  48  0.708  0.042  0.708-  26 2.35  18 2.35  17 2.35  11 2.35
  49  0.708  0.375  0.042-  21 2.35  12 2.35  10 2.35  15 2.35
  50  0.708  0.375  0.375-  19 2.35  11 2.35  10 2.35  13 2.35  55 2.72
  51  0.708  0.375  0.708-  20 2.35  12 2.35  11 2.35  14 2.35  55 2.72
  52  0.708  0.708  0.042-  24 2.35  15 2.35  13 2.35  18 2.35
  53  0.708  0.708  0.375-  22 2.35  14 2.35  13 2.35  16 2.35  55 2.72
  54  0.708  0.708  0.708-  23 2.35  15 2.35  14 2.35  17 2.35
  55  0.542  0.542  0.542-  14 2.35   5 2.35  13 2.35  11 2.35  53 2.72  42 2.72  51 2.72  50 2.72
                            45 2.72  44 2.72
 
  LATTYP: Found a face centered cubic cell.
 ALAT       =    16.2915000202
  
  Lattice vectors:
  
 A1 = (   9.9764655300,   0.0000000000,   5.7599150700)
 A2 = (   3.3254885100,   9.4059019200,   5.7599150700)
 A3 = (   0.0000000000,   0.0000000000,  11.5198301400)


Analysis of symmetry for initial positions (statically):
=====================================================================
 Subroutine PRICEL returns:
 Original cell was already a primitive cell.
 

 Routine SETGRP: Setting up the symmetry group for a 
 face centered cubic supercell.


 Subroutine GETGRP returns: Found 24 space group operations
 (whereof  6 operations were pure point group operations)
 out of a pool of 48 trial point group operations.


The static configuration has the point symmetry C_3v.
 The point group associated with its full space group is T_d .


Analysis of symmetry for dynamics (positions and initial velocities):
=====================================================================
 Subroutine PRICEL returns:
 Original cell was already a primitive cell.
 

 Routine SETGRP: Setting up the symmetry group for a 
 face centered cubic supercell.


 Subroutine GETGRP returns: Found 24 space group operations
 (whereof  6 operations were pure point group operations)
 out of a pool of 48 trial point group operations.


The dynamic configuration has the point symmetry C_3v.
 The point group associated with its full space group is T_d .


 Subroutine INISYM returns: Found 24 space group operations
 (whereof  6 operations are pure point group operations),
 and found     1 'primitive' translations

 
 
 KPOINTS: Automatic kpoint scheme                 

Automatic generation of k-mesh.
Space group operators:
 irot       det(A)        alpha          n_x          n_y          n_z        tau_x        tau_y        tau_z
    1     1.000000     0.000000     1.000000     0.000000     0.000000     0.000000     0.000000     0.000000
    2     1.000000   120.000000    -0.471405    -0.333333    -0.816497     0.000000     0.000000     0.000000
    3     1.000000   120.000000     0.471405     0.333333     0.816497     0.000000     0.000000     0.000000
    4    -1.000000   180.000000     0.288675     0.816497    -0.500000     0.000000     0.000000     0.000000
    5    -1.000000   180.000000     0.577350    -0.816497     0.000000     0.000000     0.000000     0.000000
    6    -1.000000   180.000000     0.866025     0.000000    -0.500000     0.000000     0.000000     0.000000
    7    -1.000000    90.000000    -0.816497    -0.577350    -0.000000     0.166667     0.000000     0.000000
    8    -1.000000   180.000000     0.866025     0.000000     0.500000     0.166667     0.000000     0.000000
    9    -1.000000    90.000000     0.408248    -0.577350     0.707107     0.166667     0.000000     0.000000
   10     1.000000   180.000000     0.816497     0.577350     0.000000     0.000000     0.000000     0.166667
   11     1.000000   120.000000     0.942809    -0.333333     0.000000     0.000000     0.000000     0.166667
   12     1.000000   120.000000    -0.000000    -1.000000    -0.000000     0.000000     0.000000     0.166667
   13    -1.000000    90.000000     0.816497     0.577350    -0.000000     0.000000     0.166667     0.000000
   14    -1.000000    90.000000     0.408248    -0.577350    -0.707107     0.000000     0.166667    -0.000000
   15    -1.000000   180.000000     0.288675     0.816497     0.500000    -0.000000     0.166667     0.000000
   16     1.000000   120.000000    -0.000000     1.000000    -0.000000     0.166667     0.000000     0.000000
   17     1.000000   120.000000     0.471405     0.333333    -0.816497     0.166667     0.000000     0.000000
   18     1.000000   180.000000    -0.408248     0.577350     0.707107     0.166667     0.000000     0.000000
   19    -1.000000    90.000000    -0.408248     0.577350    -0.707107     0.000000     0.000000     0.166667
   20    -1.000000   180.000000     0.000000    -0.000000     1.000000     0.000000     0.000000     0.166667
   21    -1.000000    90.000000    -0.408248     0.577350     0.707107     0.000000     0.000000     0.166667
   22     1.000000   120.000000    -0.942809     0.333333     0.000000    -0.000000     0.166667     0.000000
   23     1.000000   180.000000    -0.408248     0.577350    -0.707107     0.000000     0.166667    -0.000000
   24     1.000000   120.000000    -0.471405    -0.333333     0.816497     0.000000     0.166667    -0.000000
 
 Subroutine IBZKPT returns following result:
 ===========================================
 
 Found      8 irreducible k-points:
 
 Following reciprocal coordinates:
            Coordinates               Weight
  0.000000  0.000000  0.000000      1.000000
  0.250000  0.000000  0.000000      8.000000
  0.500000  0.000000  0.000000      4.000000
  0.250000  0.250000  0.000000      6.000000
  0.500000  0.250000  0.000000     24.000000
 -0.250000  0.250000  0.000000     12.000000
  0.500000  0.500000  0.000000      3.000000
 -0.250000  0.500000  0.250000      6.000000
 
 Following cartesian coordinates:
            Coordinates               Weight
  0.000000  0.000000  0.000000      1.000000
  0.025059 -0.008860  0.000000      8.000000
  0.050118 -0.017719  0.000000      4.000000
  0.025059  0.017719  0.000000      6.000000
  0.050118  0.008860  0.000000     24.000000
 -0.025059  0.035439  0.000000     12.000000
  0.050118  0.035439  0.000000      3.000000
 -0.037588  0.053158  0.021702      6.000000
 


--------------------------------------------------------------------------------------------------------




 Dimension of arrays:
   k-points           NKPTS =      8   k-points in BZ     NKDIM =      8   number of bands    NBANDS=    144
   number of dos      NEDOS =    301   number of ions     NIONS =     55
   non local maximal  LDIM  =      4   non local SUM 2l+1 LMDIM =      8
   total plane-waves  NPLWV = 343000
   max r-space proj   IRMAX =      1   max aug-charges    IRDMAX=  10807
   dimension x,y,z NGX =    70 NGY =   70 NGZ =   70
   dimension x,y,z NGXF=   140 NGYF=  140 NGZF=  140
   support grid    NGXF=   140 NGYF=  140 NGZF=  140
   ions per type =              55
   NGX,Y,Z   is equivalent  to a cutoff of  10.10, 10.10, 10.10 a.u.
   NGXF,Y,Z  is equivalent  to a cutoff of  20.20, 20.20, 20.20 a.u.

 SYSTEM =  Si                                      
 POSCAR =  Si55                                    

 Startparameter for this run:
   NWRITE =      2    write-flag & timer
   PREC   = normal    normal or accurate (medium, high low for compatibility)
   ISTART =      1    job   : 0-new  1-cont  2-samecut
   ICHARG =      0    charge: 1-file 2-atom 10-const
   ISPIN  =      1    spin polarized calculation?
   LNONCOLLINEAR =      F non collinear calculations
   LSORBIT =      F    spin-orbit coupling
   INIWAV =      1    electr: 0-lowe 1-rand  2-diag
   LASPH  =      F    aspherical Exc in radial PAW
   METAGGA=      F    non-selfconsistent MetaGGA calc.

 Electronic Relaxation 1
   ENCUT  =  550.0 eV  40.42 Ry    6.36 a.u.  22.03 22.03 22.03*2*pi/ulx,y,z
   ENINI  =  550.0     initial cutoff
   ENAUG  =  322.1 eV  augmentation charge cutoff
   NELM   =    200;   NELMIN=  2; NELMDL=  0     # of ELM steps 
   EDIFF  = 0.1E-04   stopping-criterion for ELM
   LREAL  =      F    real-space projection
   NLSPLINE    = F    spline interpolate recip. space projectors
   LCOMPAT=      F    compatible to vasp.4.4
   GGA_COMPAT  = T    GGA compatible to vasp.4.4-vasp.4.6
   LMAXPAW     = -100 max onsite density
   LMAXMIX     =    2 max onsite mixed and CHGCAR
   VOSKOWN=      0    Vosko Wilk Nusair interpolation
   ROPT   =    0.00000
 Ionic relaxation
   EDIFFG = -.5E-01   stopping-criterion for IOM
   NSW    =    100    number of steps for IOM
   NBLOCK =      1;   KBLOCK =    100    inner block; outer block 
   IBRION =      2    ionic relax: 0-MD 1-quasi-New 2-CG
   NFREE  =      1    steps in history (QN), initial steepest desc. (CG)
   ISIF   =      2    stress and relaxation
   IWAVPR =     11    prediction:  0-non 1-charg 2-wave 3-comb
   ISYM   =      2    0-nonsym 1-usesym 2-fastsym
   LCORR  =      T    Harris-Foulkes like correction to forces

   POTIM  = 0.5000    time-step for ionic-motion
   TEIN   =    0.0    initial temperature
   TEBEG  =    0.0;   TEEND  =   0.0 temperature during run
   SMASS  =  -3.00    Nose mass-parameter (am)
   estimated Nose-frequenzy (Omega)   =  0.10E-29 period in steps =****** mass=  -0.303E-26a.u.
   SCALEE = 1.0000    scale energy and forces
   NPACO  =    256;   APACO  = 16.0  distance and # of slots for P.C.
   PSTRESS=    0.0 pullay stress

  Mass of Ions in am
   POMASS =  28.09
  Ionic Valenz
   ZVAL   =   4.00
  Atomic Wigner-Seitz radii
   RWIGS  =  -1.00
  virtual crystal weights 
   VCA    =   1.00
   NELECT =     220.0000    total number of electrons
   NUPDOWN=      -1.0000    fix difference up-down

 DOS related values:
   EMIN   =  10.00;   EMAX   =-10.00  energy-range for DOS
   EFERMI =   0.00
   ISMEAR =     0;   SIGMA  =   0.05  broadening in eV -4-tet -1-fermi 0-gaus

 Electronic relaxation 2 (details)
   IALGO  =     38    algorithm
   LDIAG  =      T    sub-space diagonalisation (order eigenvalues)
   LSUBROT=      F    optimize rotation matrix (better conditioning)
   TURBO    =      0    0=normal 1=particle mesh
   IRESTART =      0    0=no restart 2=restart with 2 vectors
   NREBOOT  =      0    no. of reboots
   NMIN     =      0    reboot dimension
   EREF     =   0.00    reference energy to select bands
   IMIX   =      4    mixing-type and parameters
     AMIX     =   0.20;   BMIX     =  1.00
     AMIX_MAG =   0.80;   BMIX_MAG =  1.00
     AMIN     =   0.10
     WC   =   100.;   INIMIX=   1;  MIXPRE=   1;  MAXMIX= -45

 Intra band minimization:
   WEIMIN = 0.0010     energy-eigenvalue tresh-hold
   EBREAK =  0.17E-07  absolut break condition
   DEPER  =   0.30     relativ break condition  

   TIME   =   0.40     timestep for ELM

  volume/ion in A,a.u.               =      19.65       132.63
  Fermi-wavevector in a.u.,A,eV,Ry     =   0.962959  1.819729 12.616558  0.927291
  Thomas-Fermi vector in A             =   2.092463
 
 Write flags
   LWAVE        =      T    write WAVECAR
   LDOWNSAMPLE  =      F    k-point downsampling of WAVECAR
   LCHARG       =      T    write CHGCAR
   LVTOT        =      F    write LOCPOT, total local potential
   LVHAR        =      F    write LOCPOT, Hartree potential only
   LELF         =      F    write electronic localiz. function (ELF)
   LORBIT       =     10    0 simple, 1 ext, 2 COOP (PROOUT), +10 PAW based schemes


 Dipole corrections
   LMONO  =      F    monopole corrections only (constant potential shift)
   LDIPOL =      F    correct potential (dipole corrections)
   IDIPOL =      0    1-x, 2-y, 3-z, 4-all directions 
   EPSILON=  1.0000000 bulk dielectric constant

 Exchange correlation treatment:
   GGA     =    --    GGA type
   LEXCH   =     8    internal setting for exchange type
   VOSKOWN=      0    Vosko Wilk Nusair interpolation
   LHFCALC =     F    Hartree Fock is set to
   LHFONE  =     F    Hartree Fock one center treatment
   AEXX    =    0.0000 exact exchange contribution

 Linear response parameters
   LEPSILON=     F    determine dielectric tensor
   LRPA    =     F    only Hartree local field effects (RPA)
   LNABLA  =     F    use nabla operator in PAW spheres
   LVEL    =     F    velocity operator in full k-point grid
   LINTERFAST=   F  fast interpolation
   KINTER  =     0    interpolate to denser k-point grid
   CSHIFT  =0.1000    complex shift for real part using Kramers Kronig
   OMEGAMAX=  -1.0    maximum frequency
   DEG_THRESHOLD= 0.2000000E-02 threshold for treating states as degnerate
   RTIME   =   -0.100 relaxation time in fs
  (WPLASMAI=    0.000 imaginary part of plasma frequency in eV, 0.658/RTIME)
   DFIELD  = 0.0000000 0.0000000 0.0000000 field for delta impulse in time
 
 Orbital magnetization related:
   ORBITALMAG=     F  switch on orbital magnetization
   LCHIMAG   =     F  perturbation theory with respect to B field
   DQ        =  0.001000  dq finite difference perturbation B field
   LLRAUG    =     F  two centre corrections for induced B field



--------------------------------------------------------------------------------------------------------


 conjugate gradient relaxation of ions
 charge density and potential will be updated during run
 non-spin polarized calculation
 Variant of blocked Davidson
 Davidson routine will perform the subspace rotation
 perform sub-space diagonalisation
    after iterative eigenvector-optimisation
 modified Broyden-mixing scheme, WC =      100.0
 initial mixing is a Kerker type mixing with AMIX =  0.2000 and BMIX =      1.0000
 Hartree-type preconditioning will be used
 using additional bands           34
 reciprocal scheme for non local part
 use partial core corrections
 calculate Harris-corrections to forces 
   (improved forces if not selfconsistent)
 use gradient corrections 
 use of overlap-Matrix (Vanderbilt PP)
 Gauss-broadening in eV      SIGMA  =   0.05


--------------------------------------------------------------------------------------------------------


  energy-cutoff  :      550.00
  volume of cell :     1080.99
      direct lattice vectors                 reciprocal lattice vectors
     9.976465530  0.000000000  5.759915070     0.100235900 -0.035438742  0.000000000
     3.325488510  9.405901920  5.759915070     0.000000000  0.106316227  0.000000000
     0.000000000  0.000000000 11.519830140    -0.050117950 -0.035438742  0.086806836

  length of vectors
    11.519830124 11.519830136 11.519830140     0.106316227  0.106316227  0.106316227


 
 old parameters found on file WAVECAR:
  energy-cutoff  :      550.00
  volume of cell :     1080.99
      direct lattice vectors                 reciprocal lattice vectors
     9.976465530  0.000000000  5.759915070     0.100235900 -0.035438742  0.000000000
     3.325488510  9.405901920  5.759915070     0.000000000  0.106316227  0.000000000
     0.000000000  0.000000000 11.519830140    -0.050117950 -0.035438742  0.086806836

  length of vectors

 
 k-points in units of 2pi/SCALE and weight: Automatic kpoint scheme                 
   0.00000000  0.00000000  0.00000000       0.016
   0.02505897 -0.00885969  0.00000000       0.125
   0.05011795 -0.01771937  0.00000000       0.062
   0.02505897  0.01771937  0.00000000       0.094
   0.05011795  0.00885969  0.00000000       0.375
  -0.02505897  0.03543874  0.00000000       0.188
   0.05011795  0.03543874  0.00000000       0.047
  -0.03758846  0.05315811  0.02170171       0.094
 
 k-points in reciprocal lattice and weights: Automatic kpoint scheme                 
   0.00000000  0.00000000  0.00000000       0.016
   0.25000000  0.00000000  0.00000000       0.125
   0.50000000  0.00000000  0.00000000       0.062
   0.25000000  0.25000000  0.00000000       0.094
   0.50000000  0.25000000  0.00000000       0.375
  -0.25000000  0.25000000  0.00000000       0.188
   0.50000000  0.50000000  0.00000000       0.047
  -0.25000000  0.50000000  0.25000000       0.094
 
 position of ions in fractional coordinates (direct lattice) 
   0.29166667  0.29166667  0.29166667
   0.29166667  0.29166667  0.62500000
   0.29166667  0.29166667  0.95833333
   0.29166667  0.62500000  0.29166667
   0.29166667  0.62500000  0.62500000
   0.29166667  0.62500000  0.95833333
   0.29166667  0.95833333  0.29166667
   0.29166667  0.95833333  0.62500000
   0.29166667  0.95833333  0.95833333
   0.62500000  0.29166667  0.29166667
   0.62500000  0.29166667  0.62500000
   0.62500000  0.29166667  0.95833333
   0.62500000  0.62500000  0.29166667
   0.62500000  0.62500000  0.62500000
   0.62500000  0.62500000  0.95833333
   0.62500000  0.95833333  0.29166667
   0.62500000  0.95833333  0.62500000
   0.62500000  0.95833333  0.95833333
   0.95833333  0.29166667  0.29166667
   0.95833333  0.29166667  0.62500000
   0.95833333  0.29166667  0.95833333
   0.95833333  0.62500000  0.29166667
   0.95833333  0.62500000  0.62500000
   0.95833333  0.62500000  0.95833333
   0.95833333  0.95833333  0.29166667
   0.95833333  0.95833333  0.62500000
   0.95833333  0.95833333  0.95833333
   0.04166667  0.04166667  0.04166667
   0.04166667  0.04166667  0.37500000
   0.04166667  0.04166667  0.70833333
   0.04166667  0.37500000  0.04166667
   0.04166667  0.37500000  0.37500000
   0.04166667  0.37500000  0.70833333
   0.04166667  0.70833333  0.04166667
   0.04166667  0.70833333  0.37500000
   0.04166667  0.70833333  0.70833333
   0.37500000  0.04166667  0.04166667
   0.37500000  0.04166667  0.37500000
   0.37500000  0.04166667  0.70833333
   0.37500000  0.37500000  0.04166667
   0.37500000  0.37500000  0.37500000
   0.37500000  0.37500000  0.70833333
   0.37500000  0.70833333  0.04166667
   0.37500000  0.70833333  0.37500000
   0.37500000  0.70833333  0.70833333
   0.70833333  0.04166667  0.04166667
   0.70833333  0.04166667  0.37500000
   0.70833333  0.04166667  0.70833333
   0.70833333  0.37500000  0.04166667
   0.70833333  0.37500000  0.37500000
   0.70833333  0.37500000  0.70833333
   0.70833333  0.70833333  0.04166667
   0.70833333  0.70833333  0.37500000
   0.70833333  0.70833333  0.70833333
   0.54166667  0.54166667  0.54166667
 
 position of ions in cartesian coordinates  (Angst):
   3.87973659  2.74338806  6.71990091
   3.87973659  2.74338806 10.55984429
   3.87973659  2.74338806 14.39978767
   4.98823276  5.87868870  8.63987260
   4.98823276  5.87868870 12.47981598
   4.98823276  5.87868870 16.31975937
   6.09672893  9.01398934 10.55984429
   6.09672893  9.01398934 14.39978767
   6.09672893  9.01398934 18.23973106
   7.20522510  2.74338806  8.63987260
   7.20522510  2.74338806 12.47981598
   7.20522510  2.74338806 16.31975937
   8.31372128  5.87868870 10.55984429
   8.31372128  5.87868870 14.39978767
   8.31372128  5.87868870 18.23973106
   9.42221745  9.01398934 12.47981598
   9.42221745  9.01398934 16.31975937
   9.42221745  9.01398934 20.15970275
  10.53071362  2.74338806 10.55984429
  10.53071362  2.74338806 14.39978767
  10.53071362  2.74338806 18.23973106
  11.63920979  5.87868870 12.47981598
  11.63920979  5.87868870 16.31975937
  11.63920979  5.87868870 20.15970275
  12.74770596  9.01398934 14.39978767
  12.74770596  9.01398934 18.23973106
  12.74770596  9.01398934 22.07967444
   0.55424808  0.39191258  0.95998584
   0.55424808  0.39191258  4.79992922
   0.55424808  0.39191258  8.63987260
   1.66274425  3.52721322  2.87995753
   1.66274425  3.52721322  6.71990091
   1.66274425  3.52721322 10.55984430
   2.77124042  6.66251386  4.79992922
   2.77124042  6.66251386  8.63987261
   2.77124042  6.66251386 12.47981599
   3.87973659  0.39191258  2.87995753
   3.87973659  0.39191258  6.71990091
   3.87973659  0.39191258 10.55984430
   4.98823277  3.52721322  4.79992922
   4.98823277  3.52721322  8.63987261
   4.98823277  3.52721322 12.47981599
   6.09672894  6.66251386  6.71990091
   6.09672894  6.66251386 10.55984430
   6.09672894  6.66251386 14.39978768
   7.20522511  0.39191258  4.79992922
   7.20522511  0.39191258  8.63987261
   7.20522511  0.39191258 12.47981599
   8.31372128  3.52721322  6.71990091
   8.31372128  3.52721322 10.55984430
   8.31372128  3.52721322 14.39978768
   9.42221745  6.66251386  8.63987260
   9.42221745  6.66251386 12.47981599
   9.42221745  6.66251386 16.31975937
   7.20522511  5.09486354 12.47981599
 


--------------------------------------------------------------------------------------------------------


 k-point  1 :   0.0000 0.0000 0.0000  plane waves:   31415
 k-point  2 :   0.2500 0.0000 0.0000  plane waves:   31608
 k-point  3 :   0.5000 0.0000 0.0000  plane waves:   31638
 k-point  4 :   0.2500 0.2500 0.0000  plane waves:   31695
 k-point  5 :   0.5000 0.2500 0.0000  plane waves:   31649
 k-point  6 :  -0.2500 0.2500 0.0000  plane waves:   31674
 k-point  7 :   0.5000 0.5000 0.0000  plane waves:   31716
 k-point  8 :  -0.2500 0.5000 0.2500  plane waves:   31684

 maximum and minimum number of plane-waves per node :     31716    31415

 maximum number of plane-waves:     31716
 maximum index in each direction: 
   IXMAX=   22   IYMAX=   22   IZMAX=   22
   IXMIN=  -22   IYMIN=  -22   IZMIN=  -22


 serial   3D FFT for wavefunctions
 parallel 3D FFT for charge:
    minimum data exchange during FFTs selected (reduces bandwidth)


 total amount of memory used by VASP MPI-rank0   123928. kBytes
=======================================================================

   base      :      30000. kBytes
   nonl-proj :      44165. kBytes
   fftplans  :       5382. kBytes
   grid      :      19496. kBytes
   one-center:        168. kBytes
   wavefun   :      24717. kBytes
 
     INWAV:  cpu time   12.9855: real time   15.1872
 Broyden mixing: mesh for mixing (old mesh)
   NGX = 45   NGY = 45   NGZ = 45
  (NGX  =140   NGY  =140   NGZ  =140)
  gives a total of  91125 points

 charge density for first step will be calculated from the start-wavefunctions


--------------------------------------------------------------------------------------------------------


 Maximum index for augmentation-charges          503 (set IRDMAX)


--------------------------------------------------------------------------------------------------------


 initial charge from wavefunction
 First call to EWALD:  gamma=   0.173
 Maximum number of real-space cells 3x 3x 3
 Maximum number of reciprocal cells 3x 3x 3

    FEWALD:  cpu time    0.0086: real time    0.0086


--------------------------------------- Iteration      1(   1)  ---------------------------------------


    POTLOK:  cpu time    0.1005: real time    0.1114
    SETDIJ:  cpu time    0.0181: real time    0.0187
     EDDAV:  cpu time    3.0419: real time    3.4344
       DOS:  cpu time    0.5287: real time    0.5364
    CHARGE:  cpu time    0.2776: real time    0.2803
    MIXING:  cpu time    0.0053: real time    0.0058
    --------------------------------------------
      LOOP:  cpu time    3.9721: real time    4.3872

 eigenvalue-minimisations  :  1656
 total energy-change (2. order) :-0.2940533E+03  (-0.1169376E-06)
 number of electron     220.0000000 magnetization 
 augmentation part      -12.6922563 magnetization 

 Broyden mixing:
  rms(total) = 0.10058E-03    rms(broyden)= 0.10058E-03
  rms(prec ) = 0.25538E-03
  weight for this iteration     100.00

 Free energy of the ion-electron system (eV)
  ---------------------------------------------------
  alpha Z        PSCENC =        94.20124788
  Ewald energy   TEWEN  =     -6283.32455330
  -Hartree energ DENC   =      -437.49412696
  -exchange      EXHF   =         0.00000000
  -V(xc)+E(xc)   XCENC  =      -492.38687694
  PAW double counting   =     24065.94890708   -23104.32525463
  entropy T*S    EENTRO =        -0.02087641
  eigenvalues    EBANDS =       194.69247407
  atomic energy  EATOM  =      5668.65580356
  Solvation  Ediel_sol  =         0.00000000
  ---------------------------------------------------
  free energy    TOTEN  =      -294.05325565 eV

  energy without entropy =     -294.03237924  energy(sigma->0) =     -294.04281744


--------------------------------------------------------------------------------------------------------




--------------------------------------- Iteration      1(   2)  ---------------------------------------


    POTLOK:  cpu time    0.5258: real time    0.5309
    SETDIJ:  cpu time    0.1592: real time    0.1612
     EDDAV:  cpu time    3.5172: real time    3.5561
       DOS:  cpu time    0.6796: real time    0.6890
    --------------------------------------------
      LOOP:  cpu time    4.8818: real time    4.9371

 eigenvalue-minimisations  :  1656
 total energy-change (2. order) : 0.7911876E-07  (-0.3613447E-07)
 number of electron     220.0000000 magnetization 
 augmentation part      -12.6922563 magnetization 

 Free energy of the ion-electron system (eV)
  ---------------------------------------------------
  alpha Z        PSCENC =        94.20124788
  Ewald energy   TEWEN  =     -6283.32455330
  -Hartree energ DENC   =      -437.49474240
  -exchange      EXHF   =         0.00000000
  -V(xc)+E(xc)   XCENC  =      -492.38687626
  PAW double counting   =     24065.99497760   -23104.37130862
  entropy T*S    EENTRO =        -0.02087656
  eigenvalues    EBANDS =       194.69307253
  atomic energy  EATOM  =      5668.65580356
  Solvation  Ediel_sol  =         0.00000000
  ---------------------------------------------------
  free energy    TOTEN  =      -294.05325557 eV

  energy without entropy =     -294.03237900  energy(sigma->0) =     -294.04281729


--------------------------------------------------------------------------------------------------------




 average (electrostatic) potential at core
  the test charge radii are     0.9892
  (the norm of the test charge is              1.0000)
       1 -83.0291       2 -83.0919       3 -83.0919       4 -83.0919       5 -83.3813
       6 -83.0919       7 -83.0919       8 -83.0919       9 -82.9897      10 -83.0919
      11 -83.3813      12 -83.0919      13 -83.3813      14 -83.3813      15 -83.0441
      16 -83.0919      17 -83.0441      18 -83.0441      19 -83.0919      20 -83.0919
      21 -82.9897      22 -83.0919      23 -83.0441      24 -83.0441      25 -82.9897
      26 -83.0441      27 -82.9897      28 -82.9812      29 -83.0416      30 -83.0416
      31 -83.0416      32 -83.0233      33 -83.0416      34 -83.0416      35 -83.0416
      36 -83.1224      37 -83.0416      38 -83.0233      39 -83.0416      40 -83.0233
      41 -83.0233      42 -83.3507      43 -83.0416      44 -83.3507      45 -83.3507
      46 -83.0416      47 -83.0416      48 -83.1224      49 -83.0416      50 -83.3507
      51 -83.3507      52 -83.1224      53 -83.3507      54 -83.1224      55 -83.9170
 
 
 
 E-fermi :   6.7104     XC(G=0):  -9.4942     alpha+bet :-12.2031


 k-point     1 :       0.0000    0.0000    0.0000
  band No.  band energies     occupation 
      1      -6.8478      2.00000
      2      -5.5726      2.00000
      3      -4.9027      2.00000
      4      -4.9027      2.00000
      5      -4.9027      2.00000
      6      -4.5527      2.00000
      7      -4.5527      2.00000
      8      -4.5527      2.00000
      9      -4.5524      2.00000
     10      -4.1824      2.00000
     11      -4.1443      2.00000
     12      -4.1443      2.00000
     13      -4.1443      2.00000
     14      -4.0883      2.00000
     15      -4.0883      2.00000
     16      -3.0851      2.00000
     17      -3.0851      2.00000
     18      -3.0851      2.00000
     19      -2.7932      2.00000
     20      -2.7909      2.00000
     21      -2.7909      2.00000
     22      -2.6985      2.00000
     23      -2.6985      2.00000
     24      -2.6985      2.00000
     25      -2.6701      2.00000
     26      -2.6701      2.00000
     27      -2.6701      2.00000
     28      -1.5498      2.00000
     29      -1.0190      2.00000
     30      -1.0190      2.00000
     31      -1.0190      2.00000
     32      -0.9156      2.00000
     33      -0.9156      2.00000
     34      -0.8752      2.00000
     35      -0.8752      2.00000
     36      -0.8752      2.00000
     37      -0.7470      2.00000
     38      -0.7470      2.00000
     39      -0.7470      2.00000
     40      -0.3322      2.00000
     41       0.4770      2.00000
     42       0.4770      2.00000
     43       0.4770      2.00000
     44       0.5699      2.00000
     45       0.5699      2.00000
     46       0.5699      2.00000
     47       0.6324      2.00000
     48       0.8726      2.00000
     49       0.8726      2.00000
     50       0.8884      2.00000
     51       0.8884      2.00000
     52       0.8884      2.00000
     53       0.9277      2.00000
     54       1.0360      2.00000
     55       1.3450      2.00000
     56       1.3450      2.00000
     57       1.3450      2.00000
     58       1.5153      2.00000
     59       1.5153      2.00000
     60       1.5153      2.00000
     61       1.6033      2.00000
     62       1.6033      2.00000
     63       1.6369      2.00000
     64       1.6369      2.00000
     65       1.6369      2.00000
     66       2.8368      2.00000
     67       2.8368      2.00000
     68       2.8368      2.00000
     69       3.4760      2.00000
     70       3.4760      2.00000
     71       3.4760      2.00000
     72       3.5305      2.00000
     73       3.5305      2.00000
     74       3.5305      2.00000
     75       3.5964      2.00000
     76       3.5964      2.00000
     77       3.5964      2.00000
     78       3.6718      2.00000
     79       3.6718      2.00000
     80       3.8135      2.00000
     81       3.8135      2.00000
     82       3.8135      2.00000
     83       3.8535      2.00000
     84       3.8535      2.00000
     85       3.8535      2.00000
     86       3.8886      2.00000
     87       3.8886      2.00000
     88       3.8886      2.00000
     89       3.9131      2.00000
     90       4.3736      2.00000
     91       4.7611      2.00000
     92       4.7611      2.00000
     93       4.7896      2.00000
     94       4.7896      2.00000
     95       4.7896      2.00000
     96       4.9262      2.00000
     97       4.9262      2.00000
     98       4.9262      2.00000
     99       4.9405      2.00000
    100       4.9405      2.00000
    101       4.9405      2.00000
    102       5.0354      2.00000
    103       5.0354      2.00000
    104       5.0354      2.00000
    105       5.0370      2.00000
    106       5.0370      2.00000
    107       5.9259      2.00000
    108       5.9259      2.00000
    109       5.9259      2.00000
    110       6.5551      1.99999
    111       6.5551      1.99999
    112       6.5551      1.99999
    113       6.6715      1.72905
    114       6.6715      1.72905
    115       6.7026      1.17423
    116       6.7026      1.17422
    117       6.7026      1.17422
    118       7.0178      0.00000
    119       7.4271      0.00000
    120       7.4271      0.00000
    121       7.4271      0.00000
    122       7.5189      0.00000
    123       7.5189      0.00000
    124       7.5350      0.00000
    125       7.5350      0.00000
    126       7.5350      0.00000
    127       7.6679      0.00000
    128       7.7063      0.00000
    129       7.7063      0.00000
    130       7.7063      0.00000
    131       7.7278      0.00000
    132       7.7278      0.00000
    133       7.7278      0.00000
    134       7.7279      0.00000
    135       7.8733      0.00000
    136       7.8733      0.00000
    137       7.8733      0.00000
    138       7.9176      0.00000
    139       7.9691      0.00000
    140       7.9691      0.00000
    141       8.3067      0.00000
    142       8.3067      0.00000
    143       8.3067      0.00000
    144       8.9176      0.00000

 k-point     2 :       0.2500    0.0000    0.0000
  band No.  band energies     occupation 
      1      -6.8316      2.00000
      2      -5.6011      2.00000
      3      -5.0883      2.00000
      4      -4.9329      2.00000
      5      -4.9329      2.00000
      6      -4.5767      2.00000
      7      -4.5233      2.00000
      8      -4.5233      2.00000
      9      -4.4975      2.00000
     10      -4.3299      2.00000
     11      -4.3299      2.00000
     12      -4.0837      2.00000
     13      -3.6556      2.00000
     14      -3.6142      2.00000
     15      -3.6142      2.00000
     16      -3.5395      2.00000
     17      -3.3992      2.00000
     18      -3.3992      2.00000
     19      -2.9253      2.00000
     20      -2.9253      2.00000
     21      -2.7768      2.00000
     22      -2.7332      2.00000
     23      -2.7332      2.00000
     24      -2.6649      2.00000
     25      -2.5917      2.00000
     26      -2.4649      2.00000
     27      -2.4649      2.00000
     28      -1.6551      2.00000
     29      -1.2139      2.00000
     30      -1.2139      2.00000
     31      -1.0862      2.00000
     32      -0.9803      2.00000
     33      -0.9803      2.00000
     34      -0.8911      2.00000
     35      -0.8911      2.00000
     36      -0.7869      2.00000
     37      -0.6789      2.00000
     38      -0.5037      2.00000
     39      -0.3977      2.00000
     40      -0.3977      2.00000
     41      -0.0987      2.00000
     42       0.0806      2.00000
     43       0.0806      2.00000
     44       0.1585      2.00000
     45       0.2033      2.00000
     46       0.2033      2.00000
     47       0.5223      2.00000
     48       0.9928      2.00000
     49       0.9928      2.00000
     50       1.1772      2.00000
     51       1.2857      2.00000
     52       1.4293      2.00000
     53       1.4293      2.00000
     54       1.5721      2.00000
     55       1.5721      2.00000
     56       1.6109      2.00000
     57       1.6873      2.00000
     58       1.7421      2.00000
     59       1.7421      2.00000
     60       1.8070      2.00000
     61       1.8070      2.00000
     62       1.8980      2.00000
     63       1.9373      2.00000
     64       1.9373      2.00000
     65       2.0582      2.00000
     66       2.5081      2.00000
     67       2.7235      2.00000
     68       2.7235      2.00000
     69       3.0960      2.00000
     70       3.0960      2.00000
     71       3.3182      2.00000
     72       3.3749      2.00000
     73       3.3886      2.00000
     74       3.3886      2.00000
     75       3.4783      2.00000
     76       3.4783      2.00000
     77       3.5576      2.00000
     78       3.5576      2.00000
     79       3.5737      2.00000
     80       3.6052      2.00000
     81       3.6183      2.00000
     82       3.6564      2.00000
     83       3.6564      2.00000
     84       3.7562      2.00000
     85       3.7562      2.00000
     86       3.8430      2.00000
     87       3.9968      2.00000
     88       4.0936      2.00000
     89       4.0936      2.00000
     90       4.1678      2.00000
     91       4.1678      2.00000
     92       4.2635      2.00000
     93       4.5273      2.00000
     94       4.5273      2.00000
     95       4.5340      2.00000
     96       4.6451      2.00000
     97       4.6451      2.00000
     98       4.6582      2.00000
     99       4.7802      2.00000
    100       4.7802      2.00000
    101       4.9207      2.00000
    102       4.9400      2.00000
    103       4.9400      2.00000
    104       4.9968      2.00000
    105       5.0983      2.00000
    106       5.1742      2.00000
    107       5.1742      2.00000
    108       5.7855      2.00000
    109       5.7855      2.00000
    110       6.5623      1.99997
    111       6.7445      0.33461
    112       6.7445      0.33461
    113       6.8564      0.00004
    114       6.8564      0.00004
    115       6.8853      0.00000
    116       7.1644      0.00000
    117       7.1644      0.00000
    118       7.3180      0.00000
    119       7.3903      0.00000
    120       7.3903      0.00000
    121       7.5316      0.00000
    122       7.5958      0.00000
    123       7.8241      0.00000
    124       7.8241      0.00000
    125       7.9378      0.00000
    126       7.9975      0.00000
    127       7.9975      0.00000
    128       8.0030      0.00000
    129       8.0732      0.00000
    130       8.0732      0.00000
    131       8.1047      0.00000
    132       8.1068      0.00000
    133       8.1557      0.00000
    134       8.1557      0.00000
    135       8.2356      0.00000
    136       8.2356      0.00000
    137       8.2402      0.00000
    138       8.4003      0.00000
    139       8.5056      0.00000
    140       8.5056      0.00000
    141       8.5922      0.00000
    142       8.7045      0.00000
    143       8.7045      0.00000
    144       8.9005      0.00000

 k-point     3 :       0.5000    0.0000    0.0000
  band No.  band energies     occupation 
      1      -6.8144      2.00000
      2      -5.6273      2.00000
      3      -5.2239      2.00000
      4      -4.9429      2.00000
      5      -4.9429      2.00000
      6      -4.6433      2.00000
      7      -4.6433      2.00000
      8      -4.6267      2.00000
      9      -4.2691      2.00000
     10      -4.0743      2.00000
     11      -4.0274      2.00000
     12      -4.0274      2.00000
     13      -3.8600      2.00000
     14      -3.8600      2.00000
     15      -3.6807      2.00000
     16      -3.1213      2.00000
     17      -3.0842      2.00000
     18      -3.0743      2.00000
     19      -3.0743      2.00000
     20      -2.9665      2.00000
     21      -2.9665      2.00000
     22      -2.8142      2.00000
     23      -2.8142      2.00000
     24      -2.7200      2.00000
     25      -2.7097      2.00000
     26      -2.7097      2.00000
     27      -2.6596      2.00000
     28      -1.6732      2.00000
     29      -1.0940      2.00000
     30      -1.0940      2.00000
     31      -1.0120      2.00000
     32      -0.9326      2.00000
     33      -0.9326      2.00000
     34      -0.8246      2.00000
     35      -0.7646      2.00000
     36      -0.7646      2.00000
     37      -0.6634      2.00000
     38      -0.5756      2.00000
     39      -0.5749      2.00000
     40      -0.5749      2.00000
     41      -0.4866      2.00000
     42      -0.1071      2.00000
     43      -0.1071      2.00000
     44      -0.0644      2.00000
     45      -0.0644      2.00000
     46      -0.0204      2.00000
     47       0.7354      2.00000
     48       1.0270      2.00000
     49       1.4291      2.00000
     50       1.4291      2.00000
     51       1.4469      2.00000
     52       1.4469      2.00000
     53       1.6342      2.00000
     54       1.7577      2.00000
     55       1.8508      2.00000
     56       1.8508      2.00000
     57       1.9047      2.00000
     58       2.0257      2.00000
     59       2.0257      2.00000
     60       2.1675      2.00000
     61       2.1675      2.00000
     62       2.2878      2.00000
     63       2.3492      2.00000
     64       2.3492      2.00000
     65       2.6326      2.00000
     66       2.6326      2.00000
     67       2.7239      2.00000
     68       2.7971      2.00000
     69       2.8068      2.00000
     70       2.8068      2.00000
     71       3.0110      2.00000
     72       3.0110      2.00000
     73       3.1388      2.00000
     74       3.1826      2.00000
     75       3.1826      2.00000
     76       3.2489      2.00000
     77       3.2689      2.00000
     78       3.2689      2.00000
     79       3.3519      2.00000
     80       3.4321      2.00000
     81       3.4321      2.00000
     82       3.4859      2.00000
     83       3.4956      2.00000
     84       3.5616      2.00000
     85       3.8047      2.00000
     86       3.8565      2.00000
     87       3.8565      2.00000
     88       3.9750      2.00000
     89       3.9750      2.00000
     90       4.0385      2.00000
     91       4.0886      2.00000
     92       4.0886      2.00000
     93       4.1509      2.00000
     94       4.1509      2.00000
     95       4.1990      2.00000
     96       4.2508      2.00000
     97       4.5537      2.00000
     98       4.5537      2.00000
     99       4.6223      2.00000
    100       4.6223      2.00000
    101       4.6722      2.00000
    102       4.7112      2.00000
    103       4.7776      2.00000
    104       4.7776      2.00000
    105       5.2395      2.00000
    106       5.4308      2.00000
    107       5.4308      2.00000
    108       5.5228      2.00000
    109       5.5228      2.00000
    110       6.5703      1.99993
    111       6.7838      0.03786
    112       6.7838      0.03786
    113       6.9838      0.00000
    114       6.9838      0.00000
    115       7.0986      0.00000
    116       7.3380      0.00000
    117       7.5721      0.00000
    118       7.6967      0.00000
    119       7.6967      0.00000
    120       7.8393      0.00000
    121       7.8393      0.00000
    122       7.9287      0.00000
    123       7.9287      0.00000
    124       7.9565      0.00000
    125       8.1774      0.00000
    126       8.2895      0.00000
    127       8.3423      0.00000
    128       8.3783      0.00000
    129       8.3783      0.00000
    130       8.4580      0.00000
    131       8.4731      0.00000
    132       8.4731      0.00000
    133       8.5372      0.00000
    134       8.5372      0.00000
    135       8.6736      0.00000
    136       8.8007      0.00000
    137       8.8007      0.00000
    138       9.0306      0.00000
    139       9.1269      0.00000
    140       9.1269      0.00000
    141       9.1301      0.00000
    142       9.1749      0.00000
    143       9.1755      0.00000
    144       9.2918      0.00000

 k-point     4 :       0.2500    0.2500    0.0000
  band No.  band energies     occupation 
      1      -6.8265      2.00000
      2      -5.5885      2.00000
      3      -5.0620      2.00000
      4      -5.0620      2.00000
      5      -4.9194      2.00000
      6      -4.8610      2.00000
      7      -4.6413      2.00000
      8      -4.3046      2.00000
      9      -4.3046      2.00000
     10      -4.0693      2.00000
     11      -4.0120      2.00000
     12      -3.9926      2.00000
     13      -3.9816      2.00000
     14      -3.9816      2.00000
     15      -3.5782      2.00000
     16      -3.3763      2.00000
     17      -3.3763      2.00000
     18      -3.2570      2.00000
     19      -3.1485      2.00000
     20      -3.0175      2.00000
     21      -2.9885      2.00000
     22      -2.9885      2.00000
     23      -2.9342      2.00000
     24      -2.2912      2.00000
     25      -2.2824      2.00000
     26      -2.2824      2.00000
     27      -2.2077      2.00000
     28      -1.7512      2.00000
     29      -1.3964      2.00000
     30      -1.3964      2.00000
     31      -1.3107      2.00000
     32      -1.2632      2.00000
     33      -0.9002      2.00000
     34      -0.8744      2.00000
     35      -0.8744      2.00000
     36      -0.6322      2.00000
     37      -0.5146      2.00000
     38      -0.3526      2.00000
     39      -0.3526      2.00000
     40      -0.2887      2.00000
     41      -0.2725      2.00000
     42      -0.1918      2.00000
     43      -0.1918      2.00000
     44      -0.1291      2.00000
     45       0.4651      2.00000
     46       0.7048      2.00000
     47       0.7048      2.00000
     48       0.7172      2.00000
     49       0.7520      2.00000
     50       1.3304      2.00000
     51       1.3304      2.00000
     52       1.4368      2.00000
     53       1.5452      2.00000
     54       1.6391      2.00000
     55       1.6391      2.00000
     56       1.7043      2.00000
     57       1.7142      2.00000
     58       1.7911      2.00000
     59       1.7911      2.00000
     60       1.8309      2.00000
     61       1.9174      2.00000
     62       2.0203      2.00000
     63       2.0850      2.00000
     64       2.0850      2.00000
     65       2.3759      2.00000
     66       2.4634      2.00000
     67       2.6823      2.00000
     68       2.6823      2.00000
     69       3.0935      2.00000
     70       3.1375      2.00000
     71       3.1375      2.00000
     72       3.1540      2.00000
     73       3.2034      2.00000
     74       3.2194      2.00000
     75       3.2194      2.00000
     76       3.4345      2.00000
     77       3.4517      2.00000
     78       3.4517      2.00000
     79       3.5618      2.00000
     80       3.7507      2.00000
     81       3.7526      2.00000
     82       3.7526      2.00000
     83       3.7643      2.00000
     84       3.8934      2.00000
     85       3.8934      2.00000
     86       3.9356      2.00000
     87       3.9572      2.00000
     88       4.0550      2.00000
     89       4.0903      2.00000
     90       4.0903      2.00000
     91       4.1890      2.00000
     92       4.2299      2.00000
     93       4.2299      2.00000
     94       4.3273      2.00000
     95       4.4032      2.00000
     96       4.4032      2.00000
     97       4.4101      2.00000
     98       4.5010      2.00000
     99       4.5058      2.00000
    100       4.5058      2.00000
    101       4.5757      2.00000
    102       5.0172      2.00000
    103       5.2163      2.00000
    104       5.2301      2.00000
    105       5.2301      2.00000
    106       5.2641      2.00000
    107       5.3007      2.00000
    108       5.5049      2.00000
    109       5.5049      2.00000
    110       6.4937      2.00000
    111       6.7029      1.16912
    112       6.9107      0.00000
    113       6.9107      0.00000
    114       7.0720      0.00000
    115       7.2393      0.00000
    116       7.2393      0.00000
    117       7.3237      0.00000
    118       7.3855      0.00000
    119       7.4912      0.00000
    120       7.6656      0.00000
    121       7.6720      0.00000
    122       7.6720      0.00000
    123       7.7013      0.00000
    124       7.8266      0.00000
    125       7.9483      0.00000
    126       7.9574      0.00000
    127       7.9574      0.00000
    128       8.0558      0.00000
    129       8.1511      0.00000
    130       8.1511      0.00000
    131       8.2493      0.00000
    132       8.3223      0.00000
    133       8.3721      0.00000
    134       8.3721      0.00000
    135       8.4067      0.00000
    136       8.4498      0.00000
    137       8.4874      0.00000
    138       8.5055      0.00000
    139       8.5260      0.00000
    140       8.5260      0.00000
    141       8.6649      0.00000
    142       8.7464      0.00000
    143       8.7464      0.00000
    144       9.0343      0.00000

 k-point     5 :       0.5000    0.2500    0.0000
  band No.  band energies     occupation 
      1      -6.8096      2.00000
      2      -5.5608      2.00000
      3      -5.3239      2.00000
      4      -5.0778      2.00000
      5      -5.0417      2.00000
      6      -4.6591      2.00000
      7      -4.5866      2.00000
      8      -4.3779      2.00000
      9      -4.2042      2.00000
     10      -4.0818      2.00000
     11      -3.9563      2.00000
     12      -3.9387      2.00000
     13      -3.7896      2.00000
     14      -3.6810      2.00000
     15      -3.5630      2.00000
     16      -3.4337      2.00000
     17      -3.4286      2.00000
     18      -3.3574      2.00000
     19      -3.2076      2.00000
     20      -3.1892      2.00000
     21      -3.0888      2.00000
     22      -3.0524      2.00000
     23      -2.5588      2.00000
     24      -2.5204      2.00000
     25      -2.4308      2.00000
     26      -2.2755      2.00000
     27      -2.2670      2.00000
     28      -1.6635      2.00000
     29      -1.3784      2.00000
     30      -1.3223      2.00000
     31      -1.2973      2.00000
     32      -1.1827      2.00000
     33      -1.0998      2.00000
     34      -0.8955      2.00000
     35      -0.8371      2.00000
     36      -0.8217      2.00000
     37      -0.5649      2.00000
     38      -0.5455      2.00000
     39      -0.5035      2.00000
     40      -0.4418      2.00000
     41      -0.4335      2.00000
     42      -0.1141      2.00000
     43      -0.1133      2.00000
     44       0.0775      2.00000
     45       0.2127      2.00000
     46       0.2535      2.00000
     47       0.7189      2.00000
     48       0.8850      2.00000
     49       0.9293      2.00000
     50       1.1242      2.00000
     51       1.5236      2.00000
     52       1.6961      2.00000
     53       1.8204      2.00000
     54       1.9014      2.00000
     55       1.9623      2.00000
     56       2.0480      2.00000
     57       2.1236      2.00000
     58       2.1443      2.00000
     59       2.2974      2.00000
     60       2.3046      2.00000
     61       2.3642      2.00000
     62       2.4337      2.00000
     63       2.5009      2.00000
     64       2.5399      2.00000
     65       2.5417      2.00000
     66       2.6301      2.00000
     67       2.6540      2.00000
     68       2.7661      2.00000
     69       2.7936      2.00000
     70       2.8253      2.00000
     71       2.8991      2.00000
     72       2.9946      2.00000
     73       3.0047      2.00000
     74       3.0377      2.00000
     75       3.0669      2.00000
     76       3.1273      2.00000
     77       3.2193      2.00000
     78       3.2589      2.00000
     79       3.2807      2.00000
     80       3.3300      2.00000
     81       3.3557      2.00000
     82       3.4148      2.00000
     83       3.5230      2.00000
     84       3.6534      2.00000
     85       3.6607      2.00000
     86       3.7276      2.00000
     87       3.7641      2.00000
     88       3.8098      2.00000
     89       3.9253      2.00000
     90       4.0028      2.00000
     91       4.0134      2.00000
     92       4.0820      2.00000
     93       4.0843      2.00000
     94       4.2203      2.00000
     95       4.2501      2.00000
     96       4.3255      2.00000
     97       4.3589      2.00000
     98       4.3950      2.00000
     99       4.4011      2.00000
    100       4.4500      2.00000
    101       4.5521      2.00000
    102       4.5622      2.00000
    103       4.9314      2.00000
    104       4.9365      2.00000
    105       5.0159      2.00000
    106       5.1442      2.00000
    107       5.3112      2.00000
    108       5.4680      2.00000
    109       5.5852      2.00000
    110       6.6737      1.70131
    111       6.7920      0.02107
    112       7.0720      0.00000
    113       7.1476      0.00000
    114       7.4049      0.00000
    115       7.5390      0.00000
    116       7.5523      0.00000
    117       7.5838      0.00000
    118       7.7053      0.00000
    119       7.7853      0.00000
    120       7.8740      0.00000
    121       7.9948      0.00000
    122       8.0204      0.00000
    123       8.0833      0.00000
    124       8.1555      0.00000
    125       8.2417      0.00000
    126       8.3374      0.00000
    127       8.3854      0.00000
    128       8.4822      0.00000
    129       8.4887      0.00000
    130       8.5473      0.00000
    131       8.5732      0.00000
    132       8.6698      0.00000
    133       8.6718      0.00000
    134       8.6942      0.00000
    135       8.7783      0.00000
    136       8.8423      0.00000
    137       8.8987      0.00000
    138       8.9863      0.00000
    139       8.9881      0.00000
    140       9.0186      0.00000
    141       9.0639      0.00000
    142       9.1149      0.00000
    143       9.1252      0.00000
    144       9.1841      0.00000

 k-point     6 :      -0.2500    0.2500    0.0000
  band No.  band energies     occupation 
      1      -6.8150      2.00000
      2      -5.5818      2.00000
      3      -5.3074      2.00000
      4      -4.9826      2.00000
      5      -4.9632      2.00000
      6      -4.6780      2.00000
      7      -4.5226      2.00000
      8      -4.5201      2.00000
      9      -4.3172      2.00000
     10      -4.1559      2.00000
     11      -4.0555      2.00000
     12      -3.9628      2.00000
     13      -3.8306      2.00000
     14      -3.7199      2.00000
     15      -3.5046      2.00000
     16      -3.4627      2.00000
     17      -3.3267      2.00000
     18      -3.2361      2.00000
     19      -3.1047      2.00000
     20      -3.0199      2.00000
     21      -2.9820      2.00000
     22      -2.8539      2.00000
     23      -2.8087      2.00000
     24      -2.7456      2.00000
     25      -2.5470      2.00000
     26      -2.5252      2.00000
     27      -2.0769      2.00000
     28      -1.7563      2.00000
     29      -1.5121      2.00000
     30      -1.1215      2.00000
     31      -1.0187      2.00000
     32      -0.9683      2.00000
     33      -0.8771      2.00000
     34      -0.8376      2.00000
     35      -0.8154      2.00000
     36      -0.7378      2.00000
     37      -0.6727      2.00000
     38      -0.6595      2.00000
     39      -0.5841      2.00000
     40      -0.5704      2.00000
     41      -0.5201      2.00000
     42      -0.4978      2.00000
     43       0.0660      2.00000
     44       0.3712      2.00000
     45       0.3978      2.00000
     46       0.5475      2.00000
     47       0.5904      2.00000
     48       0.6565      2.00000
     49       0.6716      2.00000
     50       1.0459      2.00000
     51       1.4376      2.00000
     52       1.6188      2.00000
     53       1.7239      2.00000
     54       1.9099      2.00000
     55       1.9228      2.00000
     56       1.9702      2.00000
     57       2.0626      2.00000
     58       2.0834      2.00000
     59       2.1641      2.00000
     60       2.2194      2.00000
     61       2.2291      2.00000
     62       2.2911      2.00000
     63       2.4053      2.00000
     64       2.4200      2.00000
     65       2.5092      2.00000
     66       2.5178      2.00000
     67       2.5493      2.00000
     68       2.6454      2.00000
     69       2.8398      2.00000
     70       2.8513      2.00000
     71       2.9530      2.00000
     72       3.0153      2.00000
     73       3.0162      2.00000
     74       3.0445      2.00000
     75       3.2210      2.00000
     76       3.3047      2.00000
     77       3.3327      2.00000
     78       3.3334      2.00000
     79       3.4196      2.00000
     80       3.4672      2.00000
     81       3.4930      2.00000
     82       3.5440      2.00000
     83       3.5667      2.00000
     84       3.5990      2.00000
     85       3.6417      2.00000
     86       3.7442      2.00000
     87       3.7814      2.00000
     88       3.8734      2.00000
     89       3.9401      2.00000
     90       4.0176      2.00000
     91       4.0586      2.00000
     92       4.0849      2.00000
     93       4.2755      2.00000
     94       4.3148      2.00000
     95       4.3677      2.00000
     96       4.4884      2.00000
     97       4.4975      2.00000
     98       4.5455      2.00000
     99       4.6482      2.00000
    100       4.6498      2.00000
    101       4.7173      2.00000
    102       4.7488      2.00000
    103       4.8274      2.00000
    104       4.8853      2.00000
    105       4.9493      2.00000
    106       4.9979      2.00000
    107       5.0712      2.00000
    108       5.3707      2.00000
    109       5.8175      2.00000
    110       6.6847      1.53227
    111       6.8310      0.00065
    112       7.0674      0.00000
    113       7.1482      0.00000
    114       7.1683      0.00000
    115       7.2481      0.00000
    116       7.3790      0.00000
    117       7.5369      0.00000
    118       7.6597      0.00000
    119       7.7514      0.00000
    120       7.8139      0.00000
    121       7.8167      0.00000
    122       7.8663      0.00000
    123       7.9739      0.00000
    124       8.0124      0.00000
    125       8.1110      0.00000
    126       8.1427      0.00000
    127       8.1643      0.00000
    128       8.3258      0.00000
    129       8.4297      0.00000
    130       8.4501      0.00000
    131       8.4789      0.00000
    132       8.5485      0.00000
    133       8.5958      0.00000
    134       8.6130      0.00000
    135       8.6331      0.00000
    136       8.6979      0.00000
    137       8.7437      0.00000
    138       8.7615      0.00000
    139       8.8706      0.00000
    140       8.9106      0.00000
    141       9.0216      0.00000
    142       9.0447      0.00000
    143       9.1516      0.00000
    144       9.2224      0.00000

 k-point     7 :       0.5000    0.5000    0.0000
  band No.  band energies     occupation 
      1      -6.8046      2.00000
      2      -5.5287      2.00000
      3      -5.2498      2.00000
      4      -5.1527      2.00000
      5      -5.1527      2.00000
      6      -4.9877      2.00000
      7      -4.2077      2.00000
      8      -4.1845      2.00000
      9      -4.1073      2.00000
     10      -4.1073      2.00000
     11      -3.7728      2.00000
     12      -3.6507      2.00000
     13      -3.6507      2.00000
     14      -3.6291      2.00000
     15      -3.5687      2.00000
     16      -3.5474      2.00000
     17      -3.5247      2.00000
     18      -3.5247      2.00000
     19      -3.4680      2.00000
     20      -3.4451      2.00000
     21      -3.4451      2.00000
     22      -3.4242      2.00000
     23      -2.0586      2.00000
     24      -2.0158      2.00000
     25      -1.9650      2.00000
     26      -1.9650      2.00000
     27      -1.9359      2.00000
     28      -1.8094      2.00000
     29      -1.7105      2.00000
     30      -1.7105      2.00000
     31      -1.7101      2.00000
     32      -1.6810      2.00000
     33      -1.4073      2.00000
     34      -0.7526      2.00000
     35      -0.7526      2.00000
     36      -0.7475      2.00000
     37      -0.6459      2.00000
     38      -0.6459      2.00000
     39      -0.6206      2.00000
     40      -0.5955      2.00000
     41       0.1317      2.00000
     42       0.1317      2.00000
     43       0.1486      2.00000
     44       0.1650      2.00000
     45       0.2893      2.00000
     46       0.3512      2.00000
     47       0.3512      2.00000
     48       0.3834      2.00000
     49       0.8225      2.00000
     50       1.4197      2.00000
     51       1.7351      2.00000
     52       1.7351      2.00000
     53       2.1981      2.00000
     54       2.2280      2.00000
     55       2.2502      2.00000
     56       2.2502      2.00000
     57       2.2552      2.00000
     58       2.2992      2.00000
     59       2.2992      2.00000
     60       2.3335      2.00000
     61       2.3939      2.00000
     62       2.4000      2.00000
     63       2.4000      2.00000
     64       2.4256      2.00000
     65       2.4256      2.00000
     66       2.4345      2.00000
     67       2.4372      2.00000
     68       2.4420      2.00000
     69       2.9010      2.00000
     70       2.9010      2.00000
     71       2.9089      2.00000
     72       3.0175      2.00000
     73       3.0697      2.00000
     74       3.1328      2.00000
     75       3.1328      2.00000
     76       3.1420      2.00000
     77       3.2288      2.00000
     78       3.2288      2.00000
     79       3.3607      2.00000
     80       3.3607      2.00000
     81       3.3857      2.00000
     82       3.4787      2.00000
     83       3.6014      2.00000
     84       3.6105      2.00000
     85       3.6105      2.00000
     86       3.6315      2.00000
     87       3.6388      2.00000
     88       3.7309      2.00000
     89       3.7309      2.00000
     90       3.7421      2.00000
     91       3.9123      2.00000
     92       3.9436      2.00000
     93       4.0010      2.00000
     94       4.0166      2.00000
     95       4.0166      2.00000
     96       4.1456      2.00000
     97       4.1814      2.00000
     98       4.1814      2.00000
     99       4.2626      2.00000
    100       4.2640      2.00000
    101       4.7074      2.00000
    102       4.7074      2.00000
    103       4.7547      2.00000
    104       4.7547      2.00000
    105       5.3152      2.00000
    106       5.3813      2.00000
    107       5.3813      2.00000
    108       5.4171      2.00000
    109       5.5106      2.00000
    110       6.4289      2.00000
    111       6.8657      0.00001
    112       6.9876      0.00000
    113       7.2325      0.00000
    114       7.2325      0.00000
    115       7.6221      0.00000
    116       7.7364      0.00000
    117       7.9547      0.00000
    118       8.0178      0.00000
    119       8.0554      0.00000
    120       8.0554      0.00000
    121       8.1685      0.00000
    122       8.2246      0.00000
    123       8.2246      0.00000
    124       8.3078      0.00000
    125       8.3288      0.00000
    126       8.3288      0.00000
    127       8.5322      0.00000
    128       8.6800      0.00000
    129       8.7286      0.00000
    130       8.7757      0.00000
    131       8.7970      0.00000
    132       8.7970      0.00000
    133       8.8069      0.00000
    134       8.8069      0.00000
    135       8.8466      0.00000
    136       8.8540      0.00000
    137       8.9207      0.00000
    138       8.9207      0.00000
    139       8.9648      0.00000
    140       9.0029      0.00000
    141       9.1617      0.00000
    142       9.1617      0.00000
    143       9.2764      0.00000
    144       9.3699      0.00000

 k-point     8 :      -0.2500    0.5000    0.2500
  band No.  band energies     occupation 
      1      -6.8042      2.00000
      2      -5.4327      2.00000
      3      -5.3991      2.00000
      4      -5.3709      2.00000
      5      -4.7786      2.00000
      6      -4.7070      2.00000
      7      -4.5913      2.00000
      8      -4.4767      2.00000
      9      -4.0744      2.00000
     10      -4.0013      2.00000
     11      -3.9781      2.00000
     12      -3.7690      2.00000
     13      -3.6302      2.00000
     14      -3.5791      2.00000
     15      -3.5788      2.00000
     16      -3.5715      2.00000
     17      -3.5285      2.00000
     18      -3.4530      2.00000
     19      -3.3943      2.00000
     20      -3.3850      2.00000
     21      -2.9287      2.00000
     22      -2.9102      2.00000
     23      -2.7609      2.00000
     24      -2.7427      2.00000
     25      -2.0166      2.00000
     26      -1.9549      2.00000
     27      -1.9486      2.00000
     28      -1.9073      2.00000
     29      -1.7378      2.00000
     30      -1.6933      2.00000
     31      -1.4909      2.00000
     32      -1.0046      2.00000
     33      -0.9407      2.00000
     34      -0.9302      2.00000
     35      -0.8457      2.00000
     36      -0.7630      2.00000
     37      -0.7427      2.00000
     38      -0.6334      2.00000
     39      -0.3301      2.00000
     40      -0.2250      2.00000
     41      -0.2035      2.00000
     42      -0.1603      2.00000
     43      -0.1026      2.00000
     44      -0.0687      2.00000
     45      -0.0432      2.00000
     46      -0.0168      2.00000
     47       0.8438      2.00000
     48       0.9173      2.00000
     49       1.2213      2.00000
     50       1.2386      2.00000
     51       1.3218      2.00000
     52       1.7336      2.00000
     53       1.8679      2.00000
     54       1.9000      2.00000
     55       2.1054      2.00000
     56       2.1312      2.00000
     57       2.2294      2.00000
     58       2.2893      2.00000
     59       2.4085      2.00000
     60       2.4639      2.00000
     61       2.6306      2.00000
     62       2.6700      2.00000
     63       2.6833      2.00000
     64       2.6970      2.00000
     65       2.7371      2.00000
     66       2.7768      2.00000
     67       2.8024      2.00000
     68       2.8119      2.00000
     69       2.8279      2.00000
     70       2.8487      2.00000
     71       2.8533      2.00000
     72       2.8589      2.00000
     73       2.8888      2.00000
     74       2.9024      2.00000
     75       2.9114      2.00000
     76       2.9126      2.00000
     77       3.1636      2.00000
     78       3.1651      2.00000
     79       3.2378      2.00000
     80       3.2398      2.00000
     81       3.3098      2.00000
     82       3.3112      2.00000
     83       3.3508      2.00000
     84       3.3569      2.00000
     85       3.5115      2.00000
     86       3.6257      2.00000
     87       3.7721      2.00000
     88       3.8012      2.00000
     89       3.8177      2.00000
     90       3.8338      2.00000
     91       3.8396      2.00000
     92       3.8494      2.00000
     93       4.1496      2.00000
     94       4.1910      2.00000
     95       4.2001      2.00000
     96       4.2234      2.00000
     97       4.2571      2.00000
     98       4.3431      2.00000
     99       4.3737      2.00000
    100       4.3791      2.00000
    101       4.6319      2.00000
    102       4.6369      2.00000
    103       4.6967      2.00000
    104       4.7017      2.00000
    105       5.1356      2.00000
    106       5.1988      2.00000
    107       5.2696      2.00000
    108       5.2903      2.00000
    109       5.6530      2.00000
    110       6.7681      0.10260
    111       7.0475      0.00000
    112       7.0886      0.00000
    113       7.3007      0.00000
    114       7.3734      0.00000
    115       7.5827      0.00000
    116       7.6156      0.00000
    117       7.9786      0.00000
    118       8.0350      0.00000
    119       8.1312      0.00000
    120       8.1703      0.00000
    121       8.2256      0.00000
    122       8.2664      0.00000
    123       8.2737      0.00000
    124       8.2831      0.00000
    125       8.3303      0.00000
    126       8.3528      0.00000
    127       8.3781      0.00000
    128       8.4046      0.00000
    129       8.5122      0.00000
    130       8.5567      0.00000
    131       8.5597      0.00000
    132       8.6039      0.00000
    133       8.7172      0.00000
    134       8.8003      0.00000
    135       8.8243      0.00000
    136       8.8539      0.00000
    137       8.9389      0.00000
    138       9.0041      0.00000
    139       9.0195      0.00000
    140       9.0701      0.00000
    141       9.0720      0.00000
    142       9.1403      0.00000
    143       9.1447      0.00000
    144       9.2111      0.00000


--------------------------------------------------------------------------------------------------------


 soft charge-density along one line, spin component           1
         0         1         2         3         4         5         6         7         8         9
 total charge-density along one line
 
 pseudopotential strength for first ion, spin component:           1
 18.386  25.652  -0.000  -0.000  -0.000  -0.000  -0.000  -0.000
 25.652  35.793  -0.000  -0.000  -0.000  -0.000  -0.000  -0.000
 -0.000  -0.000   4.174   0.000   0.000   7.777   0.000   0.000
 -0.000  -0.000   0.000   4.174   0.000   0.000   7.777   0.000
 -0.000  -0.000   0.000   0.000   4.174   0.000   0.000   7.777
 -0.000  -0.000   7.777   0.000   0.000  14.503   0.000   0.000
 -0.000  -0.000   0.000   7.777   0.000   0.000  14.503   0.000
 -0.000  -0.000   0.000   0.000   7.777   0.000   0.000  14.503
 total augmentation occupancy for first ion, spin component:           1
  5.688  -2.156  -0.000   0.000   0.000  -0.000   0.000   0.000
 -2.156   0.938  -0.000  -0.000   0.000  -0.000  -0.000  -0.000
 -0.000   0.000   2.970   0.000  -0.000  -0.670   0.000   0.000
  0.000   0.000   0.000   2.970  -0.000   0.000  -0.670   0.000
 -0.000  -0.000  -0.000   0.000   2.970   0.000  -0.000  -0.670
 -0.000  -0.000  -0.670   0.000   0.000   0.160  -0.000  -0.000
  0.000  -0.000   0.000  -0.670   0.000   0.000   0.160   0.000
  0.000  -0.000   0.000   0.000  -0.670  -0.000   0.000   0.160


------------------------ aborting loop because EDIFF is reached ----------------------------------------


 


 total charge     
 
# of ion       s       p       d       tot
------------------------------------------
    1        0.753   0.937   0.000   1.690
    2        0.755   0.934   0.000   1.689
[...]
tot         41.678  51.199   0.000  92.877
 
    CHARGE:  cpu time    0.1659: real time    0.1671
    FORLOC:  cpu time    0.0335: real time    0.0337
    FORNL :  cpu time    1.5615: real time    1.5760
    STRESS:  cpu time    5.6135: real time    5.6694
    FORCOR:  cpu time    0.1001: real time    0.1009
    FORHAR:  cpu time    0.0461: real time    0.0463
    MIXING:  cpu time    0.0065: real time    0.0065
    OFIELD:  cpu time    0.0001: real time    0.0001

  FORCE on cell =-STRESS in cart. coord.  units (eV):
  Direction    XX          YY          ZZ          XY          YZ          ZX
  --------------------------------------------------------------------------------------
  Alpha Z    94.20125    94.20125    94.20125
  Ewald   -2101.80102 -2101.80103 -2101.80103    -0.00000     0.00000     0.00000
  Hartree   139.41175   139.41174   139.41175     0.00000     0.00000     0.00000
  E(xc)    -698.44408  -698.44408  -698.44410    -0.00001    -0.00001    -0.00001
  Local    -801.39967  -801.39977  -801.39926     0.00015     0.00025     0.00036
  n-local  2132.32233  2144.62926  2152.24425    -0.26588    -0.89645     0.63390
  augment  -322.39903  -322.39892  -322.39947    -0.00016    -0.00027    -0.00038
  Kinetic  1534.81321  1563.89058  1596.84305    -1.26015    -1.39965     0.98970
  Fock        0.00000     0.00000     0.00000     0.00000     0.00000     0.00000
  -------------------------------------------------------------------------------------
  Total      17.81674    17.81674    17.81674     0.00000     0.00000     0.00000
  in kB      26.40679    26.40679    26.40679     0.00000     0.00000     0.00000
  external pressure =       26.41 kB  Pullay stress =        0.00 kB


 VOLUME and BASIS-vectors are now :
 -----------------------------------------------------------------------------
  energy-cutoff  :      550.00
  volume of cell :     1080.99
      direct lattice vectors                 reciprocal lattice vectors
     9.976465530  0.000000000  5.759915070     0.100235900 -0.035438742  0.000000000
     3.325488510  9.405901920  5.759915070     0.000000000  0.106316227  0.000000000
     0.000000000  0.000000000 11.519830140    -0.050117950 -0.035438742  0.086806836

  length of vectors
    11.519830124 11.519830136 11.519830140     0.106316227  0.106316227  0.106316227


 FORCES acting on ions
    electron-ion (+dipol)            ewald-force                    non-local-force                 convergence-correction
 -----------------------------------------------------------------------------------------------
   -.906E-06 -.641E-06 -.152E-05   0.130E-06 -.690E-07 0.913E-11   0.867E-17 -.121E-16 -.330E-16   0.187E-07 0.132E-07 0.324E-07
   0.346E+01 0.245E+01 0.205E+01   -.364E+01 -.257E+01 -.214E+01   0.196E+00 0.139E+00 0.102E+00   -.140E-02 -.988E-03 0.127E-02
   0.346E+01 0.245E+01 -.205E+01   -.364E+01 -.257E+01 0.214E+01   0.196E+00 0.139E+00 -.102E+00   -.140E-02 -.988E-03 -.127E-02
   0.232E+01 -.770E+00 0.402E+01   -.244E+01 0.823E+00 -.422E+01   0.127E+00 -.557E-01 0.221E+00   -.332E-03 0.203E-02 -.575E-03
   0.268E+02 -.946E+01 -.606E-06   -.272E+02 0.963E+01 -.552E-11   0.436E+00 -.154E+00 -.104E-16   -.100E-03 0.354E-04 0.516E-08
   0.232E+01 -.770E+00 -.402E+01   -.244E+01 0.823E+00 0.422E+01   0.127E+00 -.557E-01 -.221E+00   -.332E-03 0.203E-02 0.575E-03
   0.114E+01 -.413E+01 0.197E+01   -.120E+01 0.433E+01 -.208E+01   0.687E-01 -.222E+00 0.119E+00   -.107E-02 -.496E-04 -.185E-02
   0.114E+01 -.413E+01 -.197E+01   -.120E+01 0.433E+01 0.208E+01   0.687E-01 -.222E+00 -.119E+00   -.107E-02 -.496E-04 0.185E-02
   0.166E+01 -.588E+00 0.798E-06   -.166E+01 0.586E+00 -.415E-11   -.104E-01 0.369E-02 0.173E-16   0.778E-04 -.275E-04 -.428E-08
   0.485E-01 0.245E+01 0.402E+01   -.371E-01 -.257E+01 -.422E+01   -.100E-01 0.139E+00 0.221E+00   0.180E-02 -.988E-03 -.575E-03
   -.304E-06 0.284E+02 -.605E-06   0.754E-07 -.289E+02 -.552E-11   0.867E-18 0.463E+00 -.651E-17   0.302E-08 -.106E-03 0.516E-08
   0.485E-01 0.245E+01 -.402E+01   -.371E-01 -.257E+01 0.422E+01   -.100E-01 0.139E+00 -.221E+00   0.180E-02 -.988E-03 0.575E-03
   -.134E+02 -.946E+01 0.232E+02   0.136E+02 0.963E+01 -.236E+02   -.218E+00 -.154E+00 0.378E+00   0.501E-04 0.354E-04 -.868E-04
   -.134E+02 -.946E+01 -.232E+02   0.136E+02 0.963E+01 0.236E+02   -.218E+00 -.154E+00 -.378E+00   0.501E-04 0.354E-04 0.867E-04
   0.229E+01 0.162E+01 0.513E-06   -.213E+01 -.151E+01 0.694E-11   -.181E+00 -.128E+00 0.121E-16   -.272E-02 -.192E-02 0.991E-07
   -.228E+01 -.413E+01 -.601E-06   0.240E+01 0.433E+01 -.986E-13   -.137E+00 -.222E+00 -.173E-17   0.213E-02 -.496E-04 -.182E-07
   0.114E+01 -.162E+01 0.198E+01   -.107E+01 0.151E+01 -.185E+01   -.905E-01 0.128E+00 -.157E+00   -.136E-02 0.192E-02 -.235E-02
   0.114E+01 -.162E+01 -.198E+01   -.107E+01 0.151E+01 0.185E+01   -.905E-01 0.128E+00 0.157E+00   -.136E-02 0.192E-02 0.235E-02
   -.351E+01 0.245E+01 0.197E+01   0.368E+01 -.257E+01 -.208E+01   -.186E+00 0.139E+00 0.119E+00   -.402E-03 -.988E-03 -.185E-02
   -.351E+01 0.245E+01 -.197E+01   0.368E+01 -.257E+01 0.208E+01   -.186E+00 0.139E+00 -.119E+00   -.402E-03 -.988E-03 0.185E-02
   0.451E-06 0.176E+01 0.793E-06   0.114E-06 -.176E+01 -.415E-11   0.390E-17 -.111E-01 -.173E-17   -.254E-08 0.826E-04 -.427E-08
   -.465E+01 -.770E+00 -.616E-06   0.488E+01 0.823E+00 -.611E-13   -.255E+00 -.557E-01 -.217E-18   0.664E-03 0.203E-02 -.182E-07
   -.114E+01 0.162E+01 0.198E+01   0.107E+01 -.151E+01 -.185E+01   0.905E-01 -.128E+00 -.157E+00   0.136E-02 -.192E-02 -.235E-02
   -.114E+01 0.162E+01 -.198E+01   0.107E+01 -.151E+01 0.185E+01   0.905E-01 -.128E+00 0.157E+00   0.136E-02 -.192E-02 0.235E-02
   -.831E+00 -.588E+00 0.144E+01   0.829E+00 0.586E+00 -.144E+01   0.522E-02 0.369E-02 -.904E-02   -.389E-04 -.275E-04 0.674E-04
   -.229E+01 -.162E+01 0.467E-06   0.213E+01 0.151E+01 0.586E-12   0.181E+00 0.128E+00 0.173E-16   0.272E-02 0.192E-02 -.136E-07
   -.831E+00 -.588E+00 -.144E+01   0.829E+00 0.586E+00 0.144E+01   0.522E-02 0.369E-02 0.904E-02   -.389E-04 -.275E-04 -.674E-04
   0.757E-06 0.351E-06 0.108E-05   -.119E-06 0.629E-07 0.442E-11   0.208E-16 -.347E-17 0.156E-16   -.561E-08 -.390E-08 -.965E-08
   -.134E+00 -.949E-01 0.168E+01   0.166E+00 0.117E+00 -.175E+01   -.208E-01 -.147E-01 0.401E-01   -.220E-03 -.155E-03 -.146E-02
   -.134E+00 -.949E-01 -.168E+01   0.166E+00 0.117E+00 0.175E+01   -.208E-01 -.147E-01 -.401E-01   -.220E-03 -.155E-03 0.146E-02
   0.419E+00 0.147E+01 0.726E+00   -.421E+00 -.154E+01 -.730E+00   0.116E-02 0.474E-01 0.201E-02   -.532E-03 -.104E-02 -.921E-03
   -.326E+01 0.115E+01 -.210E-05   0.339E+01 -.120E+01 0.676E-11   -.123E+00 0.436E-01 0.173E-16   0.270E-02 -.953E-03 -.194E-07
   0.419E+00 0.147E+01 -.726E+00   -.421E+00 -.154E+01 0.730E+00   0.116E-02 0.474E-01 -.201E-02   -.532E-03 -.104E-02 0.921E-03
   -.553E+00 -.128E+01 -.958E+00   0.587E+00 0.131E+01 0.102E+01   -.220E-01 -.180E-01 -.380E-01   0.312E-03 0.135E-02 0.540E-03
   -.553E+00 -.128E+01 0.958E+00   0.587E+00 0.131E+01 -.102E+01   -.220E-01 -.180E-01 0.380E-01   0.312E-03 0.135E-02 -.540E-03
   0.303E+01 -.107E+01 -.379E-06   -.294E+01 0.104E+01 -.331E-11   -.107E+00 0.379E-01 0.000E+00   0.484E-02 -.171E-02 0.542E-07
   0.153E+01 -.949E-01 0.726E+00   -.160E+01 0.117E+00 -.730E+00   0.451E-01 -.147E-01 0.201E-02   -.116E-02 -.155E-03 -.921E-03
   -.110E-05 -.346E+01 -.210E-05   -.119E-06 0.359E+01 0.677E-11   -.104E-16 -.131E+00 -.104E-16   -.111E-07 0.286E-02 -.194E-07
   0.153E+01 -.949E-01 -.726E+00   -.160E+01 0.117E+00 0.730E+00   0.451E-01 -.147E-01 -.201E-02   -.116E-02 -.155E-03 0.921E-03
   0.163E+01 0.115E+01 -.282E+01   -.169E+01 -.120E+01 0.293E+01   0.617E-01 0.436E-01 -.107E+00   -.135E-02 -.953E-03 0.234E-02
   0.163E+01 0.115E+01 0.282E+01   -.169E+01 -.120E+01 -.293E+01   0.617E-01 0.436E-01 0.107E+00   -.135E-02 -.953E-03 -.234E-02
   0.154E+02 0.109E+02 0.748E-06   -.167E+02 -.118E+02 -.146E-10   0.135E+01 0.957E+00 0.694E-17   0.314E-03 0.222E-03 -.291E-07
   0.111E+01 -.128E+01 0.150E-05   -.117E+01 0.131E+01 0.523E-11   0.439E-01 -.180E-01 0.104E-16   -.624E-03 0.135E-02 0.408E-07
   0.769E+01 -.109E+02 0.133E+02   -.835E+01 0.118E+02 -.145E+02   0.676E+00 -.957E+00 0.117E+01   0.157E-03 -.222E-03 0.272E-03
   0.769E+01 -.109E+02 -.133E+02   -.835E+01 0.118E+02 0.145E+02   0.676E+00 -.957E+00 -.117E+01   0.157E-03 -.222E-03 -.272E-03
   -.139E+01 -.949E-01 -.958E+00   0.143E+01 0.117E+00 0.102E+01   -.243E-01 -.147E-01 -.380E-01   0.138E-02 -.155E-03 0.540E-03
   -.139E+01 -.949E-01 0.958E+00   0.143E+01 0.117E+00 -.102E+01   -.243E-01 -.147E-01 0.380E-01   0.138E-02 -.155E-03 -.540E-03
   -.895E-07 0.321E+01 -.384E-06   -.134E-06 -.312E+01 -.330E-11   0.347E-17 -.114E+00 0.694E-17   0.313E-07 0.513E-02 0.542E-07
   -.838E+00 0.147E+01 0.150E-05   0.843E+00 -.154E+01 0.522E-11   -.232E-02 0.474E-01 0.113E-16   0.106E-02 -.104E-02 0.408E-07
   -.769E+01 0.109E+02 0.133E+02   0.835E+01 -.118E+02 -.145E+02   -.676E+00 0.957E+00 0.117E+01   -.157E-03 0.222E-03 0.272E-03
   -.769E+01 0.109E+02 -.133E+02   0.835E+01 -.118E+02 0.145E+02   -.676E+00 0.957E+00 -.117E+01   -.157E-03 0.222E-03 -.272E-03
   -.152E+01 -.107E+01 0.262E+01   0.147E+01 0.104E+01 -.254E+01   0.536E-01 0.379E-01 -.928E-01   -.242E-02 -.171E-02 0.419E-02
   -.154E+02 -.109E+02 -.158E-05   0.167E+02 0.118E+02 0.525E-12   -.135E+01 -.957E+00 0.208E-16   -.314E-03 -.222E-03 -.282E-07
   -.152E+01 -.107E+01 -.262E+01   0.147E+01 0.104E+01 0.254E+01   0.536E-01 0.379E-01 0.928E-01   -.242E-02 -.171E-02 -.419E-02
   0.216E-06 0.398E-06 0.657E-06   0.804E-08 -.427E-08 -.237E-11   0.165E-16 -.208E-16 0.694E-17   -.153E-07 -.109E-07 -.266E-07
 -----------------------------------------------------------------------------------------------
   0.438E-05 -.202E-05 0.194E-05   -.202E-13 -.382E-13 0.177E-14   -.358E-15 -.694E-16 0.101E-14   0.112E-08 0.730E-09 0.183E-08
 
 
 POSITION                                       TOTAL-FORCE (eV/Angst)
 -----------------------------------------------------------------------------------
      3.87974      2.74339      6.71990         0.000000     -0.000000      0.000000
      3.87004      2.73653     10.54116         0.015927      0.011262      0.012857
      3.87004      2.73653     14.41847         0.015927      0.011262     -0.012857
      4.97799      5.87029      8.62213         0.011675     -0.000764      0.020222
      4.89864      5.91036     12.47982        -0.034669      0.012257      0.000000
      4.97799      5.87029     16.33750         0.011675     -0.000764     -0.020222
      6.09728      9.03610     10.56079         0.004252     -0.021760      0.007364
      6.09728      9.03610     14.39884         0.004252     -0.021760     -0.007364
      6.09405      9.01494     18.23973        -0.006431      0.002274      0.000000
      7.19389      2.73653      8.62213         0.003171      0.011262      0.020222
      7.20523      2.64836     12.47982         0.000000     -0.036772     -0.000000
      7.19389      2.73653     16.33750         0.003171      0.011262     -0.020222
      8.35852      5.91036     10.48225         0.017334      0.012257     -0.030024
      8.35852      5.91036     14.47738         0.017334      0.012257      0.030024
      8.30138      5.86996     18.23973        -0.027928     -0.019748      0.000000
      9.42113      9.03610     12.47982        -0.008504     -0.021760      0.000000
      9.41605      9.02272     16.30907        -0.013964      0.019748     -0.024186
      9.41605      9.02272     20.17039        -0.013964      0.019748      0.024186
     10.55174      2.73653     10.56079        -0.019098      0.011262      0.007364
     10.55174      2.73653     14.39884        -0.019098      0.011262     -0.007364
     10.53071      2.74054     18.23973         0.000000     -0.006821      0.000000
     11.65969      5.87029     12.47982        -0.023350     -0.000764      0.000000
     11.64538      5.86996     16.30907         0.013964     -0.019748     -0.024186
     11.64538      5.86996     20.17039         0.013964     -0.019748      0.024186
     12.74905      9.01494     14.39747         0.003216      0.002274     -0.005570
     12.76005      9.02272     18.23973         0.027928      0.019748      0.000000
     12.74905      9.01494     22.08200         0.003216      0.002274      0.005570
      0.55425      0.39191      0.95999         0.000000     -0.000000      0.000000
      0.54894      0.38816      4.79629         0.010447      0.007387     -0.023932
      0.54894      0.38816      8.64352         0.010447      0.007387      0.023932
      1.65904      3.52799      2.87354        -0.001685     -0.026928     -0.002919
      1.66721      3.52564      6.71990         0.003994     -0.001412      0.000000
      1.65904      3.52799     10.56627        -0.001685     -0.026928      0.002919
      2.76964      6.66924      4.79715         0.012132      0.012153      0.021013
      2.76964      6.66924      8.64265         0.012132      0.012153     -0.021013
      2.69177      6.69061     12.47982        -0.009609      0.003397      0.000000
      3.87924      0.38816      2.87354        -0.025949      0.007387     -0.002919
      3.87974      0.39665      6.71990         0.000000      0.004237      0.000000
      3.87924      0.38816     10.56627        -0.025949      0.007387      0.002919
      4.98600      3.52564      4.80379        -0.001997     -0.001412      0.003459
      4.98600      3.52564      8.63601        -0.001997     -0.001412     -0.003459
      4.95596      3.50440     12.47982         0.030603      0.021640      0.000000
      6.09994      6.66924      6.71990        -0.024264      0.012153      0.000000
      6.08059      6.68533     10.53190         0.015301     -0.021640      0.026503
      6.08059      6.68533     14.42773         0.015301     -0.021640     -0.026503
      7.21104      0.38816      4.79715         0.015502      0.007387      0.021013
      7.21104      0.38816      8.64265         0.015502      0.007387     -0.021013
      7.20523      0.30763     12.47982         0.000000     -0.010192      0.000000
      8.32114      3.52799      6.71990         0.003370     -0.026928      0.000000
      8.32986      3.50440     10.53190        -0.015301      0.021640      0.026503
      8.32986      3.50440     14.42773        -0.015301      0.021640     -0.026503
      9.46195      6.69061      8.57105         0.004805      0.003397     -0.008322
      9.45449      6.68533     12.47982        -0.030603     -0.021640      0.000000
      9.46195      6.69061     16.38858         0.004805      0.003397      0.008322
      7.20523      5.09486     12.47982         0.000000     -0.000000      0.000000
 -----------------------------------------------------------------------------------
    total drift:                                0.000004     -0.000002      0.000002


--------------------------------------------------------------------------------------------------------



  FREE ENERGIE OF THE ION-ELECTRON SYSTEM (eV)
  ---------------------------------------------------
  free  energy   TOTEN  =      -294.42694518 eV

  energy  without entropy=     -294.40638492  energy(sigma->0) =     -294.41666505
 
 d Force = 0.4592885E-02[ 0.315E-02, 0.603E-02]  d Energy = 0.4595375E-02-0.249E-05
 d Force = 0.2954630E+00[ 0.292E+00, 0.299E+00]  d Ewald  = 0.2954729E+00-0.984E-05


--------------------------------------------------------------------------------------------------------


    POTLOK:  cpu time    0.0881: real time    0.0888


--------------------------------------------------------------------------------------------------------


 Conjugate gradient step on ions:
 trial-energy change:   -0.004595  1 .order   -0.004593   -0.006034   -0.003152
  (g-gl).g = 0.607E-02      g.g   = 0.517E-02  gl.gl    = 0.926E-01
 g(Force)  = 0.517E-02   g(Stress)= 0.000E+00 ortho     = 0.301E-03
 gamma     =   0.06551
 trial     =   1.16272
 opt step  =   2.43463  (harmonic =   2.43463) maximal distance =0.00802577
 next E    =  -294.428667   (d E  =  -0.00632)


--------------------------------------------------------------------------------------------------------


  
 reached required accuracy - stopping structural energy minimisation
 writing wavefunctions
     LOOP+:  cpu time   29.7488: real time   30.8128
    4ORBIT:  cpu time    0.0000: real time    0.0000
 


 total charge     
 
# of ion       s       p       d       tot
------------------------------------------
    1        0.753   0.941   0.000   1.694
    2        0.755   0.937   0.000   1.692
    3        0.755   0.937   0.000   1.692
    4        0.755   0.937   0.000   1.692
    5        0.760   0.906   0.000   1.667
    6        0.755   0.937   0.000   1.691
    7        0.754   0.936   0.000   1.691
    8        0.754   0.936   0.000   1.690
    9        0.752   0.943   0.000   1.694
   10        0.756   0.938   0.000   1.694
   11        0.765   0.908   0.000   1.673
   12        0.756   0.939   0.000   1.694
   13        0.763   0.913   0.000   1.675
   14        0.763   0.913   0.000   1.675
   15        0.756   0.948   0.000   1.704
   16        0.756   0.937   0.000   1.694
   17        0.753   0.946   0.000   1.700
   18        0.753   0.947   0.000   1.700
   19        0.752   0.936   0.000   1.689
   20        0.752   0.937   0.000   1.689
   21        0.752   0.943   0.000   1.695
   22        0.754   0.936   0.000   1.690
   23        0.752   0.945   0.000   1.698
   24        0.752   0.945   0.000   1.697
   25        0.752   0.943   0.000   1.695
   26        0.753   0.947   0.000   1.700
   27        0.752   0.943   0.000   1.695
   28        0.751   0.942   0.000   1.693
   29        0.751   0.941   0.000   1.692
   30        0.751   0.941   0.000   1.692
   31        0.751   0.940   0.000   1.691
   32        0.753   0.943   0.000   1.695
   33        0.751   0.940   0.000   1.691
   34        0.752   0.940   0.000   1.692
   35        0.752   0.940   0.000   1.692
   36        0.759   0.944   0.000   1.703
   37        0.752   0.942   0.000   1.694
   38        0.752   0.943   0.000   1.695
   39        0.752   0.942   0.000   1.694
   40        0.752   0.944   0.000   1.695
   41        0.752   0.944   0.000   1.695
   42        0.761   0.907   0.000   1.668
   43        0.753   0.943   0.000   1.696
   44        0.761   0.908   0.000   1.669
   45        0.760   0.908   0.000   1.669
   46        0.752   0.941   0.000   1.693
   47        0.752   0.941   0.000   1.693
   48        0.761   0.943   0.000   1.704
   49        0.753   0.942   0.000   1.695
   50        0.760   0.908   0.000   1.667
   51        0.760   0.908   0.000   1.668
   52        0.762   0.939   0.000   1.701
   53        0.758   0.906   0.000   1.664
   54        0.762   0.939   0.000   1.701
   55        0.910   0.706   0.000   1.616
--------------------------------------------------
tot         41.678  51.199   0.000  92.877
 

 total amount of memory used by VASP MPI-rank0   123928. kBytes
=======================================================================

   base      :      30000. kBytes
   nonl-proj :      44165. kBytes
   fftplans  :       5382. kBytes
   grid      :      19496. kBytes
   one-center:        168. kBytes
   wavefun   :      24717. kBytes
 
  
  
 General timing and accounting informations for this job:
 ========================================================
  
                  Total CPU time used (sec):      214.819
                            User time (sec):      208.116
                          System time (sec):        6.704
                         Elapsed time (sec):      224.498
  
                   Maximum memory used (kb):      400096.
                   Average memory used (kb):           0.
  
                          Minor page faults:        47350
                          Major page faults:            0
                 Voluntary context switches:         6847
