<?xml version="1.0" encoding="ISO-8859-1"?>
<modeling>
 <generator>
  <i name="program" type="string">vasp </i>
  <i name="version" type="string">5.4.4.18Apr17-6-g9f103f2a35  </i>
  <i name="subversion" type="string">(build Jun 19 2019 10:34:07) complex            parallel </i>
  <i name="platform" type="string">LB-5.4 </i>
  <i name="date" type="string">2023 05 15 </i>
  <i name="time" type="string">18:42:11 </i>
 </generator>
 <incar>
  <i type="string" name="SYSTEM"> Si</i>
  <i type="string" name="PREC">normal</i>
  <i type="string" name="ALGO"> Normal</i>
  <i type="int" name="ISPIN">     1</i>
  <i name="AMIX">      0.20000000</i>
  <i type="int" name="NELM">   200</i>
  <i type="int" name="IBRION">     2</i>
  <i name="EDIFF">      0.00001000</i>
  <i name="EDIFFG">     -0.05000000</i>
  <i type="int" name="NSW">   100</i>
  <i type="int" name="ISIF">     2</i>
  <i type="int" name="ISYM">     2</i>
  <i name="ENCUT">    550.00000000</i>
  <i name="NELECT">    220.00000000</i>
  <i type="logical" name="LREAL"> F  </i>
  <i type="int" name="ISMEAR">     0</i>
  <i name="SIGMA">      0.05000000</i>
  <i type="logical" name="LWAVE"> T  </i>
  <i type="logical" name="LCHARG"> T  </i>
  <i type="int" name="LORBIT">    10</i>
  <v type="int" name="KPOINT_BSE">    -1     0     0     0</v>
  <i type="int" name="NELM">   200</i>
 </incar>
 <structure name="primitive_cell" >
  <crystal>
   <varray name="basis" >
    <v>       9.97646553       0.00000000       5.75991507 </v>
    <v>       3.32548851       9.40590192       5.75991507 </v>
    <v>       0.00000000       0.00000000      11.51983014 </v>
   </varray>
   <i name="volume">   1080.99386112 </i>
   <varray name="rec_basis" >
    <v>       0.10023590      -0.03543874       0.00000000 </v>
    <v>       0.00000000       0.10631623       0.00000000 </v>
    <v>      -0.05011795      -0.03543874       0.08680684 </v>
   </varray>
  </crystal>
  <varray name="positions" >
   <v>       0.29166667       0.29166667       0.29166667 </v>
   <v>       0.04166667       0.37500000       0.37500000 </v>
   <v>       0.37500000       0.37500000       0.04166667 </v>
   <v>       0.37500000       0.37500000       0.37500000 </v>
   <v>       0.37500000       0.04166667       0.37500000 </v>
   <v>      -0.04166667       0.29166667       0.29166667 </v>
   <v>      -0.37500000       0.29166667      -0.04166667 </v>
   <v>      -0.04166667       0.29166667      -0.37500000 </v>
   <v>      -0.37500000       0.29166667       0.29166667 </v>
   <v>      -0.37500000      -0.04166667       0.29166667 </v>
   <v>      -0.04166667      -0.37500000       0.29166667 </v>
   <v>       0.29166667      -0.04166667       0.29166667 </v>
   <v>       0.29166667      -0.37500000      -0.04166667 </v>
   <v>       0.29166667      -0.04166667      -0.37500000 </v>
   <v>       0.29166667      -0.37500000       0.29166667 </v>
   <v>       0.29166667       0.29166667      -0.04166667 </v>
   <v>       0.29166667       0.29166667      -0.37500000 </v>
   <v>      -0.29166667       0.37500000       0.04166667 </v>
   <v>       0.04166667       0.04166667       0.37500000 </v>
   <v>      -0.29166667       0.04166667       0.04166667 </v>
   <v>       0.04166667       0.04166667      -0.29166667 </v>
   <v>      -0.29166667       0.04166667       0.37500000 </v>
   <v>       0.37500000      -0.29166667       0.04166667 </v>
   <v>       0.04166667       0.37500000       0.04166667 </v>
   <v>       0.04166667       0.37500000      -0.29166667 </v>
   <v>       0.04166667      -0.29166667       0.04166667 </v>
   <v>       0.04166667      -0.29166667       0.37500000 </v>
   <v>       0.37500000       0.04166667       0.04166667 </v>
   <v>       0.37500000       0.04166667      -0.29166667 </v>
   <v>      -0.04166667      -0.04166667      -0.37500000 </v>
   <v>      -0.37500000      -0.37500000      -0.04166667 </v>
   <v>      -0.37500000      -0.04166667      -0.04166667 </v>
   <v>      -0.04166667      -0.37500000      -0.04166667 </v>
   <v>      -0.37500000      -0.04166667      -0.37500000 </v>
   <v>      -0.04166667      -0.37500000      -0.37500000 </v>
   <v>      -0.29166667       0.37500000       0.37500000 </v>
   <v>      -0.29166667       0.37500000      -0.29166667 </v>
   <v>      -0.29166667      -0.29166667       0.37500000 </v>
   <v>       0.37500000      -0.29166667      -0.29166667 </v>
   <v>       0.37500000      -0.29166667       0.37500000 </v>
   <v>       0.37500000       0.37500000      -0.29166667 </v>
   <v>      -0.37500000       0.29166667      -0.37500000 </v>
   <v>      -0.04166667       0.29166667      -0.04166667 </v>
   <v>      -0.37500000      -0.37500000       0.29166667 </v>
   <v>      -0.04166667      -0.04166667      -0.04166667 </v>
   <v>      -0.37500000      -0.37500000      -0.37500000 </v>
   <v>      -0.04166667      -0.04166667       0.29166667 </v>
   <v>       0.29166667      -0.37500000      -0.37500000 </v>
   <v>       0.29166667      -0.04166667      -0.04166667 </v>
   <v>      -0.45833333      -0.45833333      -0.45833333 </v>
   <v>      -0.29166667       0.04166667      -0.29166667 </v>
   <v>       0.04166667       0.04166667       0.04166667 </v>
   <v>      -0.29166667      -0.29166667      -0.29166667 </v>
   <v>      -0.29166667      -0.29166667       0.04166667 </v>
   <v>       0.04166667      -0.29166667      -0.29166667 </v>
  </varray>
 </structure>
 <varray name="primitive_index" >
  <v type="int" >        1 </v>
  <v type="int" >       32 </v>
  <v type="int" >       40 </v>
  <v type="int" >       41 </v>
  <v type="int" >       38 </v>
  <v type="int" >       19 </v>
  <v type="int" >       12 </v>
  <v type="int" >       20 </v>
  <v type="int" >       10 </v>
  <v type="int" >       16 </v>
  <v type="int" >       22 </v>
  <v type="int" >        7 </v>
  <v type="int" >        6 </v>
  <v type="int" >        8 </v>
  <v type="int" >        4 </v>
  <v type="int" >        3 </v>
  <v type="int" >        2 </v>
  <v type="int" >       49 </v>
  <v type="int" >       29 </v>
  <v type="int" >       46 </v>
  <v type="int" >       30 </v>
  <v type="int" >       47 </v>
  <v type="int" >       43 </v>
  <v type="int" >       31 </v>
  <v type="int" >       33 </v>
  <v type="int" >       34 </v>
  <v type="int" >       35 </v>
  <v type="int" >       37 </v>
  <v type="int" >       39 </v>
  <v type="int" >       26 </v>
  <v type="int" >       15 </v>
  <v type="int" >       18 </v>
  <v type="int" >       24 </v>
  <v type="int" >       17 </v>
  <v type="int" >       23 </v>
  <v type="int" >       50 </v>
  <v type="int" >       51 </v>
  <v type="int" >       53 </v>
  <v type="int" >       45 </v>
  <v type="int" >       44 </v>
  <v type="int" >       42 </v>
  <v type="int" >       11 </v>
  <v type="int" >       21 </v>
  <v type="int" >       13 </v>
  <v type="int" >       27 </v>
  <v type="int" >       14 </v>
  <v type="int" >       25 </v>
  <v type="int" >        5 </v>
  <v type="int" >        9 </v>
  <v type="int" >       55 </v>
  <v type="int" >       48 </v>
  <v type="int" >       28 </v>
  <v type="int" >       54 </v>
  <v type="int" >       52 </v>
  <v type="int" >       36 </v>
 </varray>
 <kpoints>
  <generation param="Gamma">
   <v type="int" name="divisions">       4        4        4 </v>
   <v name="usershift">      0.00000000       0.00000000       0.00000000 </v>
   <v name="genvec1">      0.25000000       0.00000000       0.00000000 </v>
   <v name="genvec2">      0.00000000       0.25000000       0.00000000 </v>
   <v name="genvec3">     -0.00000000      -0.00000000       0.25000000 </v>
   <v name="shift">      0.00000000       0.00000000       0.00000000 </v>
  </generation>
  <varray name="kpointlist" >
   <v>       0.00000000       0.00000000       0.00000000 </v>
   <v>       0.25000000       0.00000000       0.00000000 </v>
   <v>       0.50000000       0.00000000       0.00000000 </v>
   <v>       0.25000000       0.25000000       0.00000000 </v>
   <v>       0.50000000       0.25000000       0.00000000 </v>
   <v>      -0.25000000       0.25000000       0.00000000 </v>
   <v>       0.50000000       0.50000000       0.00000000 </v>
   <v>      -0.25000000       0.50000000       0.25000000 </v>
  </varray>
  <varray name="weights" >
   <v>       0.01562500 </v>
   <v>       0.12500000 </v>
   <v>       0.06250000 </v>
   <v>       0.09375000 </v>
   <v>       0.37500000 </v>
   <v>       0.18750000 </v>
   <v>       0.04687500 </v>
   <v>       0.09375000 </v>
  </varray>
 </kpoints>
 <parameters>
  <separator name="general" >
   <i type="string" name="SYSTEM">Si</i>
   <i type="logical" name="LCOMPAT"> F  </i>
  </separator>
  <separator name="electronic" >
   <i type="string" name="PREC">normal</i>
   <i name="ENMAX">    550.00000000</i>
   <i name="ENAUG">    322.06900000</i>
   <i name="EDIFF">      0.00001000</i>
   <i type="int" name="IALGO">    38</i>
   <i type="int" name="IWAVPR">    11</i>
   <i type="int" name="NBANDS">   144</i>
   <i name="NELECT">    220.00000000</i>
   <i type="int" name="TURBO">     0</i>
   <i type="int" name="IRESTART">     0</i>
   <i type="int" name="NREBOOT">     0</i>
   <i type="int" name="NMIN">     0</i>
   <i name="EREF">      0.00000000</i>
   <separator name="electronic smearing" >
    <i type="int" name="ISMEAR">     0</i>
    <i name="SIGMA">      0.05000000</i>
    <i name="KSPACING">      0.50000000</i>
    <i type="logical" name="KGAMMA"> T  </i>
   </separator>
   <separator name="electronic projectors" >
    <i type="logical" name="LREAL"> F  </i>
    <v name="ROPT">      0.00000000</v>
    <i type="int" name="LMAXPAW">  -100</i>
    <i type="int" name="LMAXMIX">     2</i>
    <i type="logical" name="NLSPLINE"> F  </i>
   </separator>
   <separator name="electronic startup" >
    <i type="int" name="ISTART">     1</i>
    <i type="int" name="ICHARG">     0</i>
    <i type="int" name="INIWAV">     1</i>
   </separator>
   <separator name="electronic spin" >
    <i type="int" name="ISPIN">     1</i>
    <i type="logical" name="LNONCOLLINEAR"> F  </i>
    <v name="MAGMOM">      1.00000000      1.00000000      1.00000000      1.00000000      1.00000000      1.00000000      1.00000000      1.00000000      1.00000000      1.00000000      1.00000000      1.00000000      1.00000000      1.00000000      1.00000000      1.00000000      1.00000000      1.00000000      1.00000000      1.00000000
      1.00000000      1.00000000      1.00000000      1.00000000      1.00000000      1.00000000      1.00000000      1.00000000      1.00000000      1.00000000      1.00000000      1.00000000      1.00000000      1.00000000      1.00000000      1.00000000      1.00000000      1.00000000      1.00000000      1.00000000
      1.00000000      1.00000000      1.00000000      1.00000000      1.00000000      1.00000000      1.00000000      1.00000000      1.00000000      1.00000000      1.00000000      1.00000000      1.00000000      1.00000000      1.00000000</v>
    <i name="NUPDOWN">     -1.00000000</i>
    <i type="logical" name="LSORBIT"> F  </i>
    <v name="SAXIS">      0.00000000      0.00000000      1.00000000</v>
    <i type="logical" name="LSPIRAL"> F  </i>
    <v name="QSPIRAL">      0.00000000      0.00000000      0.00000000</v>
    <i type="logical" name="LZEROZ"> F  </i>
   </separator>
   <separator name="electronic exchange-correlation" >
    <i type="logical" name="LASPH"> F  </i>
    <i type="logical" name="LMETAGGA"> F  </i>
   </separator>
   <separator name="electronic convergence" >
    <i type="int" name="NELM">   200</i>
    <i type="int" name="NELMDL">     0</i>
    <i type="int" name="NELMIN">     2</i>
    <i name="ENINI">    550.00000000</i>
    <separator name="electronic convergence detail" >
     <i type="logical" name="LDIAG"> T  </i>
     <i type="logical" name="LSUBROT"> F  </i>
     <i name="WEIMIN">      0.00100000</i>
     <i name="EBREAK">      0.00000002</i>
     <i name="DEPER">      0.30000000</i>
     <i type="int" name="NRMM">     4</i>
     <i name="TIME">      0.40000000</i>
    </separator>
   </separator>
   <separator name="electronic mixer" >
    <i name="AMIX">      0.20000000</i>
    <i name="BMIX">      1.00000000</i>
    <i name="AMIN">      0.10000000</i>
    <i name="AMIX_MAG">      0.80000000</i>
    <i name="BMIX_MAG">      1.00000000</i>
    <separator name="electronic mixer details" >
     <i type="int" name="IMIX">     4</i>
     <i type="logical" name="MIXFIRST"> F  </i>
     <i type="int" name="MAXMIX">   -45</i>
     <i name="WC">    100.00000000</i>
     <i type="int" name="INIMIX">     1</i>
     <i type="int" name="MIXPRE">     1</i>
     <i type="int" name="MREMOVE">     5</i>
    </separator>
   </separator>
   <separator name="electronic dipolcorrection" >
    <i type="logical" name="LDIPOL"> F  </i>
    <i type="logical" name="LMONO"> F  </i>
    <i type="int" name="IDIPOL">     0</i>
    <i name="EPSILON">      1.00000000</i>
    <v name="DIPOL">   -100.00000000   -100.00000000   -100.00000000</v>
    <i name="EFIELD">      0.00000000</i>
   </separator>
  </separator>
  <separator name="grids" >
   <i type="int" name="NGX">    70</i>
   <i type="int" name="NGY">    70</i>
   <i type="int" name="NGZ">    70</i>
   <i type="int" name="NGXF">   140</i>
   <i type="int" name="NGYF">   140</i>
   <i type="int" name="NGZF">   140</i>
   <i type="logical" name="ADDGRID"> F  </i>
  </separator>
  <separator name="ionic" >
   <i type="int" name="NSW">   100</i>
   <i type="int" name="IBRION">     2</i>
   <i type="int" name="MDALGO">     0</i>
   <i type="int" name="ISIF">     2</i>
   <i name="PSTRESS">      0.00000000</i>
   <i name="EDIFFG">     -0.05000000</i>
   <i type="int" name="NFREE">     1</i>
   <i name="POTIM">      0.50000000</i>
   <i name="SMASS">     -3.00000000</i>
   <i name="SCALEE">      1.00000000</i>
  </separator>
  <separator name="ionic md" >
   <i name="TEBEG">      0.00010000</i>
   <i name="TEEND">      0.00010000</i>
   <i type="int" name="NBLOCK">     1</i>
   <i type="int" name="KBLOCK">   100</i>
   <i type="int" name="NPACO">   256</i>
   <i name="APACO">     16.00000000</i>
  </separator>
  <separator name="symmetry" >
   <i type="int" name="ISYM">     2</i>
   <i name="SYMPREC">      0.00001000</i>
  </separator>
  <separator name="dos" >
   <i type="int" name="LORBIT">    10</i>
   <v name="RWIGS">     -1.00000000</v>
   <i type="int" name="NEDOS">   301</i>
   <i name="EMIN">     10.00000000</i>
   <i name="EMAX">    -10.00000000</i>
   <i name="EFERMI">      0.00000000</i>
  </separator>
  <separator name="writing" >
   <i type="int" name="NWRITE">     2</i>
   <i type="logical" name="LWAVE"> T  </i>
   <i type="logical" name="LDOWNSAMPLE"> F  </i>
   <i type="logical" name="LCHARG"> T  </i>
   <i type="logical" name="LPARD"> F  </i>
   <i type="logical" name="LVTOT"> F  </i>
   <i type="logical" name="LVHAR"> F  </i>
   <i type="logical" name="LELF"> F  </i>
   <i type="logical" name="LOPTICS"> F  </i>
   <v name="STM">      0.00000000      0.00000000      0.00000000      0.00000000      0.00000000      0.00000000      0.00000000</v>
  </separator>
  <separator name="performance" >
   <i type="int" name="NPAR">    24</i>
   <i type="int" name="NSIM">     4</i>
   <i type="int" name="NBLK">    -1</i>
   <i type="logical" name="LPLANE"> T  </i>
   <i type="logical" name="LSCALAPACK"> T  </i>
   <i type="logical" name="LSCAAWARE"> F  </i>
   <i type="logical" name="LSCALU"> F  </i>
   <i type="logical" name="LASYNC"> F  </i>
   <i type="logical" name="LORBITALREAL"> F  </i>
  </separator>
  <separator name="miscellaneous" >
   <i type="int" name="IDIOT">     3</i>
   <i type="int" name="ISPECIAL">     0</i>
   <i type="logical" name="LMUSIC"> F  </i>
   <v name="POMASS">     28.08500000</v>
   <v name="DARWINR">      0.00000000</v>
   <v name="DARWINV">      1.00000000</v>
   <i type="logical" name="LCORR"> T  </i>
  </separator>
  <i type="logical" name="GGA_COMPAT"> T  </i>
  <i type="logical" name="LBERRY"> F  </i>
  <i type="int" name="ICORELEVEL">     0</i>
  <i type="logical" name="LDAU"> F  </i>
  <i type="int" name="I_CONSTRAINED_M">     0</i>
  <separator name="electronic exchange-correlation" >
   <i type="string" name="GGA">--</i>
   <i type="int" name="VOSKOWN">     0</i>
   <i type="logical" name="LHFCALC"> F  </i>
   <i type="string" name="PRECFOCK"></i>
   <i type="logical" name="LSYMGRAD"> F  </i>
   <i type="logical" name="LHFONE"> F  </i>
   <i type="logical" name="LRHFCALC"> F  </i>
   <i type="logical" name="LTHOMAS"> F  </i>
   <i type="logical" name="LMODELHF"> F  </i>
   <i name="ENCUT4O">     -1.00000000</i>
   <i type="int" name="EXXOEP">     0</i>
   <i type="int" name="FOURORBIT">     0</i>
   <i name="AEXX">      0.00000000</i>
   <i name="HFALPHA">      0.00000000</i>
   <i name="MCALPHA">      0.00000000</i>
   <i name="ALDAX">      1.00000000</i>
   <i name="AGGAX">      1.00000000</i>
   <i name="ALDAC">      1.00000000</i>
   <i name="AGGAC">      1.00000000</i>
   <i type="int" name="NKREDX">     1</i>
   <i type="int" name="NKREDY">     1</i>
   <i type="int" name="NKREDZ">     1</i>
   <i type="logical" name="SHIFTRED"> F  </i>
   <i type="logical" name="ODDONLY"> F  </i>
   <i type="logical" name="EVENONLY"> F  </i>
   <i type="int" name="LMAXFOCK">     0</i>
   <i type="int" name="NMAXFOCKAE">     0</i>
   <i type="logical" name="LFOCKAEDFT"> F  </i>
   <i name="HFSCREEN">      0.00000000</i>
   <i name="HFSCREENC">      0.00000000</i>
   <i type="int" name="NBANDSGWLOW">     0</i>
  </separator>
  <separator name="vdW DFT" >
   <i type="logical" name="LUSE_VDW"> F  </i>
   <i name="Zab_VDW">     -0.84910000</i>
   <i name="PARAM1">      0.12340000</i>
   <i name="PARAM2">      1.00000000</i>
   <i name="PARAM3">      0.00000000</i>
  </separator>
  <separator name="model GW" >
   <i type="int" name="MODEL_GW">     0</i>
   <i name="MODEL_EPS0">     11.79266030</i>
   <i name="MODEL_ALPHA">      1.00000000</i>
  </separator>
  <separator name="linear response parameters" >
   <i type="logical" name="LEPSILON"> F  </i>
   <i type="logical" name="LRPA"> F  </i>
   <i type="logical" name="LNABLA"> F  </i>
   <i type="logical" name="LVEL"> F  </i>
   <i type="int" name="KINTER">     0</i>
   <i name="CSHIFT">      0.10000000</i>
   <i name="OMEGAMAX">     -1.00000000</i>
   <i name="DEG_THRESHOLD">      0.00200000</i>
   <i name="RTIME">     -0.10000000</i>
   <i name="WPLASMAI">      0.00000000</i>
   <v name="DFIELD">      0.00000000      0.00000000      0.00000000</v>
   <v name="WPLASMA">      0.00000000      0.00000000      0.00000000      0.00000000      0.00000000      0.00000000      0.00000000      0.00000000      0.00000000</v>
  </separator>
  <separator name="orbital magnetization" >
   <i type="logical" name="NUCIND"> F  </i>
   <v name="MAGPOS">      0.00000000      0.00000000      0.00000000</v>
   <i type="logical" name="LNICSALL"> T  </i>
   <i type="logical" name="ORBITALMAG"> F  </i>
   <i type="logical" name="LMAGBLOCH"> F  </i>
   <i type="logical" name="LCHIMAG"> F  </i>
   <i type="logical" name="LGAUGE"> T  </i>
   <i type="int" name="MAGATOM">     0</i>
   <v name="MAGDIPOL">      0.00000000      0.00000000      0.00000000</v>
   <v name="AVECCONST">      0.00000000      0.00000000      0.00000000</v>
  </separator>
  <separator name="response functions" >
   <i type="logical" name="LADDER"> F  </i>
   <i type="logical" name="LRPAFORCE"> F  </i>
   <i type="logical" name="LFXC"> F  </i>
   <i type="logical" name="LHARTREE"> T  </i>
   <i type="int" name="IBSE">     0</i>
   <v type="int" name="KPOINT">    -1     0     0     0</v>
   <i type="logical" name="LTCTE"> F  </i>
   <i type="logical" name="LTETE"> F  </i>
   <i type="logical" name="LTRIPLET"> F  </i>
   <i type="logical" name="LFXCEPS"> F  </i>
   <i type="logical" name="LFXHEG"> F  </i>
   <i type="int" name="NATURALO">     2</i>
   <i type="logical" name="L2ORDER"> F  </i>
   <i type="logical" name="LMP2LT"> F  </i>
   <i type="logical" name="LUSEW"> F  </i>
   <i name="ENCUTGW">     -2.00000000</i>
   <i name="ENCUTGWSOFT">     -2.00000000</i>
   <i name="ENCUTLF">     -1.00000000</i>
   <i type="int" name="LMAXMP2">    -1</i>
   <i name="SCISSOR">      0.00000000</i>
   <i type="int" name="NOMEGA">     0</i>
   <i type="int" name="NOMEGAR">     0</i>
   <i type="int" name="NBANDSGW">    -1</i>
   <i type="int" name="NBANDSO">    -1</i>
   <i type="int" name="NBANDSV">    -1</i>
   <i type="int" name="NELM">   200</i>
   <i type="int" name="NELMHF">     1</i>
   <i type="int" name="DIM">     3</i>
   <i type="int" name="ANTIRES">     0</i>
   <i name="OMEGAMAX">    -30.00000000</i>
   <i name="OMEGAMIN">    -30.00000000</i>
   <i name="OMEGATL">   -200.00000000</i>
   <i type="int" name="OMEGAGRID">   140</i>
   <i name="CSHIFT">     -0.10000000</i>
   <i type="logical" name="SELFENERGY"> F  </i>
   <i type="logical" name="LSPECTRAL"> F  </i>
   <i type="logical" name="LSPECTRALGW"> F  </i>
   <i type="logical" name="LSINGLES"> F  </i>
   <i type="logical" name="LFERMIGW"> F  </i>
   <i type="logical" name="ODDONLYGW"> F  </i>
   <i type="logical" name="EVENONLYGW"> F  </i>
   <i type="int" name="NKREDLFX">     1</i>
   <i type="int" name="NKREDLFY">     1</i>
   <i type="int" name="NKREDLFZ">     1</i>
   <i type="int" name="MAXMEM">  2800</i>
   <i type="int" name="TELESCOPE">     0</i>
   <i type="int" name="TAUPAR">     1</i>
   <i type="int" name="OMEGAPAR">    -1</i>
   <i name="LAMBDA">      1.00000000</i>
  </separator>
  <separator name="External order field" >
   <i name="OFIELD_KAPPA">      0.00000000</i>
   <v name="OFIELD_K">      0.00000000      0.00000000      0.00000000</v>
   <i name="OFIELD_Q6_NEAR">      0.00000000</i>
   <i name="OFIELD_Q6_FAR">      0.00000000</i>
   <i name="OFIELD_A">      0.00000000</i>
  </separator>
 </parameters>
 <atominfo>
  <atoms>      55 </atoms>
  <types>       1 </types>
  <array name="atoms" >
   <dimension dim="1">ion</dimension>
   <field type="string">element</field>
   <field type="int">atomtype</field>
   <set>
    <rc><c>Si</c><c>   1</c></rc>
    <rc><c>Si</c><c>   1</c></rc>
    <rc><c>Si</c><c>   1</c></rc>
    <rc><c>Si</c><c>   1</c></rc>
    <rc><c>Si</c><c>   1</c></rc>
    <rc><c>Si</c><c>   1</c></rc>
    <rc><c>Si</c><c>   1</c></rc>
    <rc><c>Si</c><c>   1</c></rc>
    <rc><c>Si</c><c>   1</c></rc>
    <rc><c>Si</c><c>   1</c></rc>
    <rc><c>Si</c><c>   1</c></rc>
    <rc><c>Si</c><c>   1</c></rc>
    <rc><c>Si</c><c>   1</c></rc>
    <rc><c>Si</c><c>   1</c></rc>
    <rc><c>Si</c><c>   1</c></rc>
    <rc><c>Si</c><c>   1</c></rc>
    <rc><c>Si</c><c>   1</c></rc>
    <rc><c>Si</c><c>   1</c></rc>
    <rc><c>Si</c><c>   1</c></rc>
    <rc><c>Si</c><c>   1</c></rc>
    <rc><c>Si</c><c>   1</c></rc>
    <rc><c>Si</c><c>   1</c></rc>
    <rc><c>Si</c><c>   1</c></rc>
    <rc><c>Si</c><c>   1</c></rc>
    <rc><c>Si</c><c>   1</c></rc>
    <rc><c>Si</c><c>   1</c></rc>
    <rc><c>Si</c><c>   1</c></rc>
    <rc><c>Si</c><c>   1</c></rc>
    <rc><c>Si</c><c>   1</c></rc>
    <rc><c>Si</c><c>   1</c></rc>
    <rc><c>Si</c><c>   1</c></rc>
    <rc><c>Si</c><c>   1</c></rc>
    <rc><c>Si</c><c>   1</c></rc>
    <rc><c>Si</c><c>   1</c></rc>
    <rc><c>Si</c><c>   1</c></rc>
    <rc><c>Si</c><c>   1</c></rc>
    <rc><c>Si</c><c>   1</c></rc>
    <rc><c>Si</c><c>   1</c></rc>
    <rc><c>Si</c><c>   1</c></rc>
    <rc><c>Si</c><c>   1</c></rc>
    <rc><c>Si</c><c>   1</c></rc>
    <rc><c>Si</c><c>   1</c></rc>
    <rc><c>Si</c><c>   1</c></rc>
    <rc><c>Si</c><c>   1</c></rc>
    <rc><c>Si</c><c>   1</c></rc>
    <rc><c>Si</c><c>   1</c></rc>
    <rc><c>Si</c><c>   1</c></rc>
    <rc><c>Si</c><c>   1</c></rc>
    <rc><c>Si</c><c>   1</c></rc>
    <rc><c>Si</c><c>   1</c></rc>
    <rc><c>Si</c><c>   1</c></rc>
    <rc><c>Si</c><c>   1</c></rc>
    <rc><c>Si</c><c>   1</c></rc>
    <rc><c>Si</c><c>   1</c></rc>
    <rc><c>Si</c><c>   1</c></rc>
   </set>
  </array>
  <array name="atomtypes" >
   <dimension dim="1">type</dimension>
   <field type="int">atomspertype</field>
   <field type="string">element</field>
   <field>mass</field>
   <field>valence</field>
   <field type="string">pseudopotential</field>
   <set>
    <rc><c>  55</c><c>Si</c><c>     28.08500000</c><c>      4.00000000</c><c>  PAW_PBE Si 05Jan2001                  </c></rc>
   </set>
  </array>
 </atominfo>
 <structure name="initialpos" >
  <crystal>
   <varray name="basis" >
    <v>       9.97646553       0.00000000       5.75991507 </v>
    <v>       3.32548851       9.40590192       5.75991507 </v>
    <v>       0.00000000       0.00000000      11.51983014 </v>
   </varray>
   <i name="volume">   1080.99386112 </i>
   <varray name="rec_basis" >
    <v>       0.10023590      -0.03543874       0.00000000 </v>
    <v>       0.00000000       0.10631623       0.00000000 </v>
    <v>      -0.05011795      -0.03543874       0.08680684 </v>
   </varray>
  </crystal>
  <varray name="positions" >
   <v>       0.29166667       0.29166667       0.29166667 </v>
   <v>       0.29166667       0.29166667       0.62500000 </v>
   <v>       0.29166667       0.29166667       0.95833333 </v>
   <v>       0.29166667       0.62500000       0.29166667 </v>
   <v>       0.29166667       0.62500000       0.62500000 </v>
   <v>       0.29166667       0.62500000       0.95833333 </v>
   <v>       0.29166667       0.95833333       0.29166667 </v>
   <v>       0.29166667       0.95833333       0.62500000 </v>
   <v>       0.29166667       0.95833333       0.95833333 </v>
   <v>       0.62500000       0.29166667       0.29166667 </v>
   <v>       0.62500000       0.29166667       0.62500000 </v>
   <v>       0.62500000       0.29166667       0.95833333 </v>
   <v>       0.62500000       0.62500000       0.29166667 </v>
   <v>       0.62500000       0.62500000       0.62500000 </v>
   <v>       0.62500000       0.62500000       0.95833333 </v>
   <v>       0.62500000       0.95833333       0.29166667 </v>
   <v>       0.62500000       0.95833333       0.62500000 </v>
   <v>       0.62500000       0.95833333       0.95833333 </v>
   <v>       0.95833333       0.29166667       0.29166667 </v>
   <v>       0.95833333       0.29166667       0.62500000 </v>
   <v>       0.95833333       0.29166667       0.95833333 </v>
   <v>       0.95833333       0.62500000       0.29166667 </v>
   <v>       0.95833333       0.62500000       0.62500000 </v>
   <v>       0.95833333       0.62500000       0.95833333 </v>
   <v>       0.95833333       0.95833333       0.29166667 </v>
   <v>       0.95833333       0.95833333       0.62500000 </v>
   <v>       0.95833333       0.95833333       0.95833333 </v>
   <v>       0.04166667       0.04166667       0.04166667 </v>
   <v>       0.04166667       0.04166667       0.37500000 </v>
   <v>       0.04166667       0.04166667       0.70833333 </v>
   <v>       0.04166667       0.37500000       0.04166667 </v>
   <v>       0.04166667       0.37500000       0.37500000 </v>
   <v>       0.04166667       0.37500000       0.70833333 </v>
   <v>       0.04166667       0.70833333       0.04166667 </v>
   <v>       0.04166667       0.70833333       0.37500000 </v>
   <v>       0.04166667       0.70833333       0.70833333 </v>
   <v>       0.37500000       0.04166667       0.04166667 </v>
   <v>       0.37500000       0.04166667       0.37500000 </v>
   <v>       0.37500000       0.04166667       0.70833333 </v>
   <v>       0.37500000       0.37500000       0.04166667 </v>
   <v>       0.37500000       0.37500000       0.37500000 </v>
   <v>       0.37500000       0.37500000       0.70833333 </v>
   <v>       0.37500000       0.70833333       0.04166667 </v>
   <v>       0.37500000       0.70833333       0.37500000 </v>
   <v>       0.37500000       0.70833333       0.70833333 </v>
   <v>       0.70833333       0.04166667       0.04166667 </v>
   <v>       0.70833333       0.04166667       0.37500000 </v>
   <v>       0.70833333       0.04166667       0.70833333 </v>
   <v>       0.70833333       0.37500000       0.04166667 </v>
   <v>       0.70833333       0.37500000       0.37500000 </v>
   <v>       0.70833333       0.37500000       0.70833333 </v>
   <v>       0.70833333       0.70833333       0.04166667 </v>
   <v>       0.70833333       0.70833333       0.37500000 </v>
   <v>       0.70833333       0.70833333       0.70833333 </v>
   <v>       0.54166667       0.54166667       0.54166667 </v>
  </varray>
 </structure>
 <calculation>
  <scstep>
   <time name="dav">    3.04    3.43</time>
   <time name="total">    3.97    4.39</time>
   <energy>
    <i name="alphaZ">     94.20124788 </i>
    <i name="ewald">  -6283.32455330 </i>
    <i name="hartreedc">   -437.49412696 </i>
    <i name="XCdc">   -492.38687694 </i>
    <i name="pawpsdc">  24065.94890708 </i>
    <i name="pawaedc"> -23104.32525463 </i>
    <i name="eentropy">     -0.02087641 </i>
    <i name="bandstr">    194.69247407 </i>
    <i name="atom">   5668.65580356 </i>
    <i name="e_fr_energy">   -294.05325565 </i>
    <i name="e_wo_entrp">   -294.03237924 </i>
    <i name="e_0_energy">   -294.04281744 </i>
   </energy>
  </scstep>
  <scstep>
   <time name="dav">    3.52    3.56</time>
   <time name="total">    4.88    4.94</time>
   <energy>
    <i name="alphaZ">     94.20124788 </i>
    <i name="ewald">  -6283.32455330 </i>
    <i name="hartreedc">   -437.49474240 </i>
    <i name="XCdc">   -492.38687626 </i>
    <i name="pawpsdc">  24065.99497760 </i>
    <i name="pawaedc"> -23104.37130862 </i>
    <i name="eentropy">     -0.02087656 </i>
    <i name="bandstr">    194.69307253 </i>
    <i name="atom">   5668.65580356 </i>
    <i name="e_fr_energy">   -294.05325557 </i>
    <i name="e_wo_entrp">   -294.03237900 </i>
    <i name="e_0_energy">   -294.04281729 </i>
   </energy>
  </scstep>
  <structure>
   <crystal>
    <varray name="basis" >
     <v>       9.97646553       0.00000000       5.75991507 </v>
     <v>       3.32548851       9.40590192       5.75991507 </v>
     <v>       0.00000000       0.00000000      11.51983014 </v>
    </varray>
    <i name="volume">   1080.99386112 </i>
    <varray name="rec_basis" >
     <v>       0.10023590      -0.03543874       0.00000000 </v>
     <v>       0.00000000       0.10631623       0.00000000 </v>
     <v>      -0.05011795      -0.03543874       0.08680684 </v>
    </varray>
   </crystal>
   <varray name="positions" >
    <v>       0.29166667       0.29166667       0.29166667 </v>
    <v>       0.29166667       0.29166667       0.62500000 </v>
    <v>       0.29166667       0.29166667       0.95833333 </v>
    <v>       0.29166667       0.62500000       0.29166667 </v>
    <v>       0.29166667       0.62500000       0.62500000 </v>
    <v>       0.29166667       0.62500000       0.95833333 </v>
    <v>       0.29166667       0.95833333       0.29166667 </v>
    <v>       0.29166667       0.95833333       0.62500000 </v>
    <v>       0.29166667       0.95833333       0.95833333 </v>
    <v>       0.62500000       0.29166667       0.29166667 </v>
    <v>       0.62500000       0.29166667       0.62500000 </v>
    <v>       0.62500000       0.29166667       0.95833333 </v>
    <v>       0.62500000       0.62500000       0.29166667 </v>
    <v>       0.62500000       0.62500000       0.62500000 </v>
    <v>       0.62500000       0.62500000       0.95833333 </v>
    <v>       0.62500000       0.95833333       0.29166667 </v>
    <v>       0.62500000       0.95833333       0.62500000 </v>
    <v>       0.62500000       0.95833333       0.95833333 </v>
    <v>       0.95833333       0.29166667       0.29166667 </v>
    <v>       0.95833333       0.29166667       0.62500000 </v>
    <v>       0.95833333       0.29166667       0.95833333 </v>
    <v>       0.95833333       0.62500000       0.29166667 </v>
    <v>       0.95833333       0.62500000       0.62500000 </v>
    <v>       0.95833333       0.62500000       0.95833333 </v>
    <v>       0.95833333       0.95833333       0.29166667 </v>
    <v>       0.95833333       0.95833333       0.62500000 </v>
    <v>       0.95833333       0.95833333       0.95833333 </v>
    <v>       0.04166667       0.04166667       0.04166667 </v>
    <v>       0.04166667       0.04166667       0.37500000 </v>
    <v>       0.04166667       0.04166667       0.70833333 </v>
    <v>       0.04166667       0.37500000       0.04166667 </v>
    <v>       0.04166667       0.37500000       0.37500000 </v>
    <v>       0.04166667       0.37500000       0.70833333 </v>
    <v>       0.04166667       0.70833333       0.04166667 </v>
    <v>       0.04166667       0.70833333       0.37500000 </v>
    <v>       0.04166667       0.70833333       0.70833333 </v>
    <v>       0.37500000       0.04166667       0.04166667 </v>
    <v>       0.37500000       0.04166667       0.37500000 </v>
    <v>       0.37500000       0.04166667       0.70833333 </v>
    <v>       0.37500000       0.37500000       0.04166667 </v>
    <v>       0.37500000       0.37500000       0.37500000 </v>
    <v>       0.37500000       0.37500000       0.70833333 </v>
    <v>       0.37500000       0.70833333       0.04166667 </v>
    <v>       0.37500000       0.70833333       0.37500000 </v>
    <v>       0.37500000       0.70833333       0.70833333 </v>
    <v>       0.70833333       0.04166667       0.04166667 </v>
    <v>       0.70833333       0.04166667       0.37500000 </v>
    <v>       0.70833333       0.04166667       0.70833333 </v>
    <v>       0.70833333       0.37500000       0.04166667 </v>
    <v>       0.70833333       0.37500000       0.37500000 </v>
    <v>       0.70833333       0.37500000       0.70833333 </v>
    <v>       0.70833333       0.70833333       0.04166667 </v>
    <v>       0.70833333       0.70833333       0.37500000 </v>
    <v>       0.70833333       0.70833333       0.70833333 </v>
    <v>       0.54166667       0.54166667       0.54166667 </v>
   </varray>
  </structure>
  <varray name="forces" >
   <v>       0.00000000       0.00000000       0.00000000 </v>
   <v>      -0.03028059      -0.02141161      -0.17273155 </v>
   <v>      -0.03028059      -0.02141161       0.17273155 </v>
   <v>      -0.06500360      -0.11962310      -0.11258954 </v>
   <v>      -1.03386926       0.36552798      -0.00000000 </v>
   <v>      -0.06500360      -0.11962310       0.11258954 </v>
   <v>       0.03472301       0.16244633       0.06014201 </v>
   <v>       0.03472301       0.16244633      -0.06014201 </v>
   <v>      -0.01004523       0.00355153       0.00000000 </v>
   <v>      -0.13444961      -0.02141161      -0.11258954 </v>
   <v>       0.00000000      -1.09658395      -0.00000000 </v>
   <v>      -0.13444961      -0.02141161       0.11258954 </v>
   <v>       0.51693463       0.36552798      -0.89535705 </v>
   <v>       0.51693463       0.36552798       0.89535705 </v>
   <v>      -0.08093802      -0.05723182       0.00000000 </v>
   <v>      -0.06944601       0.16244633       0.00000000 </v>
   <v>      -0.04046901       0.05723182      -0.07009438 </v>
   <v>      -0.04046901       0.05723182       0.07009438 </v>
   <v>       0.16473020      -0.02141161       0.06014201 </v>
   <v>       0.16473020      -0.02141161      -0.06014201 </v>
   <v>       0.00000000      -0.01065458       0.00000000 </v>
   <v>       0.13000720      -0.11962310       0.00000000 </v>
   <v>       0.04046901      -0.05723182      -0.07009438 </v>
   <v>       0.04046901      -0.05723182       0.07009438 </v>
   <v>       0.00502262       0.00355153      -0.00869943 </v>
   <v>       0.08093802       0.05723182       0.00000000 </v>
   <v>       0.00502262       0.00355153       0.00869943 </v>
   <v>       0.00000000       0.00000000       0.00000000 </v>
   <v>      -0.08814923      -0.06233092       0.00117716 </v>
   <v>      -0.08814923      -0.06233092      -0.00117716 </v>
   <v>      -0.04373480       0.06329207      -0.07575090 </v>
   <v>      -0.02260358       0.00799157       0.00000000 </v>
   <v>      -0.04373480       0.06329207       0.07575090 </v>
   <v>      -0.04441443       0.06136977      -0.07692806 </v>
   <v>      -0.04441443       0.06136977       0.07692806 </v>
   <v>      -0.44996482       0.15908659       0.00000000 </v>
   <v>       0.04509407      -0.06233092      -0.07575090 </v>
   <v>       0.00000000      -0.02397472       0.00000000 </v>
   <v>       0.04509407      -0.06233092       0.07575090 </v>
   <v>       0.01130179       0.00799157      -0.01957527 </v>
   <v>       0.01130179       0.00799157       0.01957527 </v>
   <v>      -0.42316476      -0.29922267       0.00000000 </v>
   <v>       0.08882887       0.06136977       0.00000000 </v>
   <v>      -0.21158238       0.29922267      -0.36647143 </v>
   <v>      -0.21158238       0.29922267       0.36647143 </v>
   <v>       0.04305517      -0.06233092      -0.07692806 </v>
   <v>       0.04305517      -0.06233092       0.07692806 </v>
   <v>       0.00000000      -0.47725976       0.00000000 </v>
   <v>       0.08746960       0.06329207       0.00000000 </v>
   <v>       0.21158238      -0.29922267      -0.36647143 </v>
   <v>       0.21158238      -0.29922267       0.36647143 </v>
   <v>       0.22498241       0.15908659      -0.38968097 </v>
   <v>       0.42316476       0.29922267       0.00000000 </v>
   <v>       0.22498241       0.15908659       0.38968097 </v>
   <v>       0.00000000       0.00000000       0.00000000 </v>
  </varray>
  <varray name="stress" >
   <v>      29.43323350       0.00000000       0.00000000 </v>
   <v>      -0.00000000      29.43323360      -0.00000000 </v>
   <v>       0.00000000       0.00000000      29.43323361 </v>
  </varray>
  <energy>
   <i name="e_fr_energy">   -294.05325557 </i>
   <i name="e_wo_entrp">   -294.04281729 </i>
   <i name="e_0_energy">     -0.02087656 </i>
  </energy>
  <time name="totalsc">   22.26   22.91</time>
 </calculation>
 <calculation>
  <scstep>
   <time name="dav">    3.82    3.87</time>
   <time name="total">    4.64    4.72</time>
   <energy>
    <i name="alphaZ">     94.20124788 </i>
    <i name="ewald">  -6295.88045937 </i>
    <i name="hartreedc">   -427.12911384 </i>
    <i name="XCdc">   -492.57975316 </i>
    <i name="pawpsdc">  24066.09277613 </i>
    <i name="pawaedc"> -23104.46908010 </i>
    <i name="eentropy">     -0.02297121 </i>
    <i name="bandstr">    196.82742618 </i>
    <i name="atom">   5668.65580356 </i>
    <i name="e_fr_energy">   -294.30412393 </i>
    <i name="e_wo_entrp">   -294.28115272 </i>
    <i name="e_0_energy">   -294.29263833 </i>
   </energy>
  </scstep>
  <scstep>
   <time name="dav">    4.04    4.08</time>
   <time name="total">    4.32    4.36</time>
   <energy>
    <i name="e_fr_energy">   -294.32273581 </i>
    <i name="e_wo_entrp">   -294.30006632 </i>
    <i name="e_0_energy">   -294.31140107 </i>
   </energy>
  </scstep>
  <scstep>
   <time name="dav">    3.80    3.84</time>
   <time name="total">    4.06    4.10</time>
   <energy>
    <i name="e_fr_energy">   -294.31673164 </i>
    <i name="e_wo_entrp">   -294.29443317 </i>
    <i name="e_0_energy">   -294.30558240 </i>
   </energy>
  </scstep>
  <scstep>
   <time name="dav">    4.02    4.06</time>
   <time name="total">    4.28    4.32</time>
   <energy>
    <i name="e_fr_energy">   -294.31600026 </i>
    <i name="e_wo_entrp">   -294.29388806 </i>
    <i name="e_0_energy">   -294.30494416 </i>
   </energy>
  </scstep>
  <scstep>
   <time name="dav">    4.08    4.13</time>
   <time name="total">    4.35    4.39</time>
   <energy>
    <i name="e_fr_energy">   -294.31576404 </i>
    <i name="e_wo_entrp">   -294.29373580 </i>
    <i name="e_0_energy">   -294.30474992 </i>
   </energy>
  </scstep>
  <scstep>
   <time name="dav">    4.11    4.16</time>
   <time name="total">    4.38    4.42</time>
   <energy>
    <i name="e_fr_energy">   -294.31574055 </i>
    <i name="e_wo_entrp">   -294.29369607 </i>
    <i name="e_0_energy">   -294.30471831 </i>
   </energy>
  </scstep>
  <scstep>
   <time name="dav">    3.83    3.87</time>
   <time name="total">    4.10    4.14</time>
   <energy>
    <i name="e_fr_energy">   -294.31573627 </i>
    <i name="e_wo_entrp">   -294.29367149 </i>
    <i name="e_0_energy">   -294.30470388 </i>
   </energy>
  </scstep>
  <scstep>
   <time name="dav">    3.30    3.35</time>
   <time name="total">    3.40    3.45</time>
   <energy>
    <i name="alphaZ">     94.20124788 </i>
    <i name="ewald">  -6295.88045937 </i>
    <i name="hartreedc">   -426.44676639 </i>
    <i name="XCdc">   -492.60829056 </i>
    <i name="pawpsdc">  23951.41541443 </i>
    <i name="pawaedc"> -22989.75374916 </i>
    <i name="eentropy">     -0.02207806 </i>
    <i name="bandstr">    196.12314658 </i>
    <i name="atom">   5668.65580356 </i>
    <i name="e_fr_energy">   -294.31573110 </i>
    <i name="e_wo_entrp">   -294.29365304 </i>
    <i name="e_0_energy">   -294.30469207 </i>
   </energy>
  </scstep>
  <structure>
   <crystal>
    <varray name="basis" >
     <v>       9.97646553       0.00000000       5.75991507 </v>
     <v>       3.32548851       9.40590192       5.75991507 </v>
     <v>       0.00000000       0.00000000      11.51983014 </v>
    </varray>
    <i name="volume">   1080.99386112 </i>
    <varray name="rec_basis" >
     <v>       0.10023590      -0.03543874       0.00000000 </v>
     <v>       0.00000000       0.10631623       0.00000000 </v>
     <v>      -0.05011795      -0.03543874       0.08680684 </v>
    </varray>
   </crystal>
   <varray name="positions" >
    <v>       0.29166667       0.29166667       0.29166667 </v>
    <v>       0.29155685       0.29155685       0.62438646 </v>
    <v>       0.29155685       0.29155685       0.95916652 </v>
    <v>       0.29155685       0.62438646       0.29155685 </v>
    <v>       0.28604231       0.62687478       0.62687478 </v>
    <v>       0.29155685       0.62438646       0.95916652 </v>
    <v>       0.29155685       0.95916652       0.29155685 </v>
    <v>       0.29155685       0.95916652       0.62438646 </v>
    <v>       0.29161202       0.95835155       0.95835155 </v>
    <v>       0.62438646       0.29155685       0.29155685 </v>
    <v>       0.62687478       0.28604231       0.62687478 </v>
    <v>       0.62438646       0.29155685       0.95916652 </v>
    <v>       0.62687478       0.62687478       0.28604231 </v>
    <v>       0.62687478       0.62687478       0.62687478 </v>
    <v>       0.62470646       0.62470646       0.95862687 </v>
    <v>       0.62438646       0.95916652       0.29155685 </v>
    <v>       0.62470646       0.95862687       0.62470646 </v>
    <v>       0.62470646       0.95862687       0.95862687 </v>
    <v>       0.95916652       0.29155685       0.29155685 </v>
    <v>       0.95916652       0.29155685       0.62438646 </v>
    <v>       0.95835155       0.29161202       0.95835155 </v>
    <v>       0.95916652       0.62438646       0.29155685 </v>
    <v>       0.95862687       0.62470646       0.62470646 </v>
    <v>       0.95862687       0.62470646       0.95862687 </v>
    <v>       0.95835155       0.95835155       0.29161202 </v>
    <v>       0.95862687       0.95862687       0.62470646 </v>
    <v>       0.95835155       0.95835155       0.95835155 </v>
    <v>       0.04166667       0.04166667       0.04166667 </v>
    <v>       0.04134697       0.04134697       0.37532462 </v>
    <v>       0.04134697       0.04134697       0.70864810 </v>
    <v>       0.04134697       0.37532462       0.04134697 </v>
    <v>       0.04154370       0.37504099       0.37504099 </v>
    <v>       0.04134697       0.37532462       0.70864810 </v>
    <v>       0.04134697       0.70864810       0.04134697 </v>
    <v>       0.04134697       0.70864810       0.37532462 </v>
    <v>       0.03921881       0.70914928       0.70914928 </v>
    <v>       0.37532462       0.04134697       0.04134697 </v>
    <v>       0.37504099       0.04154370       0.37504099 </v>
    <v>       0.37532462       0.04134697       0.70864810 </v>
    <v>       0.37504099       0.37504099       0.04154370 </v>
    <v>       0.37504099       0.37504099       0.37504099 </v>
    <v>       0.37346529       0.37346529       0.70986804 </v>
    <v>       0.37532462       0.70864810       0.04134697 </v>
    <v>       0.37346529       0.70986804       0.37346529 </v>
    <v>       0.37346529       0.70986804       0.70986804 </v>
    <v>       0.70864810       0.04134697       0.04134697 </v>
    <v>       0.70864810       0.04134697       0.37532462 </v>
    <v>       0.70914928       0.03921881       0.70914928 </v>
    <v>       0.70864810       0.37532462       0.04134697 </v>
    <v>       0.70986804       0.37346529       0.37346529 </v>
    <v>       0.70986804       0.37346529       0.70986804 </v>
    <v>       0.70914928       0.70914928       0.03921881 </v>
    <v>       0.70986804       0.70986804       0.37346529 </v>
    <v>       0.70914928       0.70914928       0.70914928 </v>
    <v>       0.54166667       0.54166667       0.54166667 </v>
   </varray>
  </structure>
  <varray name="forces" >
   <v>      -0.00000000       0.00000000      -0.00000000 </v>
   <v>      -0.07678634      -0.05429614      -0.10496456 </v>
   <v>      -0.07678634      -0.05429614       0.10496456 </v>
   <v>      -0.06869383      -0.03140706      -0.11898120 </v>
   <v>      -0.27931142       0.09875150      -0.00000000 </v>
   <v>      -0.06869383      -0.03140706       0.11898120 </v>
   <v>      -0.00809251       0.13999935      -0.01401664 </v>
   <v>      -0.00809251       0.13999935       0.01401664 </v>
   <v>      -0.01488372       0.00526219      -0.00000000 </v>
   <v>      -0.05250881      -0.05429614      -0.11898120 </v>
   <v>       0.00000000      -0.29625450      -0.00000000 </v>
   <v>      -0.05250881      -0.05429614       0.11898120 </v>
   <v>       0.13965571       0.09875150      -0.24189079 </v>
   <v>       0.13965571       0.09875150       0.24189079 </v>
   <v>      -0.04208692      -0.02975995      -0.00000000 </v>
   <v>       0.01618502       0.13999935      -0.00000000 </v>
   <v>      -0.02104346       0.02975995      -0.03644834 </v>
   <v>      -0.02104346       0.02975995       0.03644834 </v>
   <v>       0.12929515      -0.05429614      -0.01401664 </v>
   <v>       0.12929515      -0.05429614       0.01401664 </v>
   <v>      -0.00000000      -0.01578657      -0.00000000 </v>
   <v>       0.13738766      -0.03140706      -0.00000000 </v>
   <v>       0.02104346      -0.02975995      -0.03644834 </v>
   <v>       0.02104346      -0.02975995       0.03644834 </v>
   <v>       0.00744186       0.00526219      -0.01288968 </v>
   <v>       0.04208692       0.02975995      -0.00000000 </v>
   <v>       0.00744186       0.00526219       0.01288968 </v>
   <v>      -0.00000000       0.00000000      -0.00000000 </v>
   <v>      -0.01047180      -0.00740468      -0.01712181 </v>
   <v>      -0.01047180      -0.00740468       0.01712181 </v>
   <v>      -0.01017854      -0.00657522      -0.01762975 </v>
   <v>       0.02742378      -0.00969577      -0.00000000 </v>
   <v>      -0.01017854      -0.00657522       0.01762975 </v>
   <v>      -0.00029326       0.02138458      -0.00050794 </v>
   <v>      -0.00029326       0.02138458       0.00050794 </v>
   <v>      -0.50046510       0.17694114       0.00000000 </v>
   <v>      -0.00959203      -0.00740468      -0.01762975 </v>
   <v>      -0.00000000       0.02908731      -0.00000000 </v>
   <v>      -0.00959203      -0.00740468       0.01762975 </v>
   <v>      -0.01371189      -0.00969577       0.02374969 </v>
   <v>      -0.01371189      -0.00969577      -0.02374969 </v>
   <v>      -0.10557710      -0.07465428      -0.00000000 </v>
   <v>       0.00058652       0.02138458      -0.00000000 </v>
   <v>      -0.05278855       0.07465428      -0.09143245 </v>
   <v>      -0.05278855       0.07465428       0.09143245 </v>
   <v>       0.02006383      -0.00740468      -0.00050794 </v>
   <v>       0.02006383      -0.00740468       0.00050794 </v>
   <v>       0.00000000      -0.53082341       0.00000000 </v>
   <v>       0.02035708      -0.00657522      -0.00000000 </v>
   <v>       0.05278855      -0.07465428      -0.09143245 </v>
   <v>       0.05278855      -0.07465428       0.09143245 </v>
   <v>       0.25023255       0.17694114      -0.43341550 </v>
   <v>       0.10557710       0.07465428      -0.00000000 </v>
   <v>       0.25023255       0.17694114       0.43341550 </v>
   <v>      -0.00000000       0.00000000      -0.00000000 </v>
  </varray>
  <varray name="stress" >
   <v>      27.56044652       0.00000000      -0.00000000 </v>
   <v>       0.00000000      27.56044661       0.00000000 </v>
   <v>      -0.00000000       0.00000000      27.56044662 </v>
  </varray>
  <energy>
   <i name="e_fr_energy">   -294.31573110 </i>
   <i name="e_wo_entrp">   -294.30469207 </i>
   <i name="e_0_energy">     -0.02207806 </i>
  </energy>
  <time name="totalsc">   42.22   42.69</time>
 </calculation>
 <calculation>
  <scstep>
   <time name="dav">    3.69    3.73</time>
   <time name="total">    3.96    4.01</time>
   <energy>
    <i name="alphaZ">     94.20124788 </i>
    <i name="ewald">  -6302.84895216 </i>
    <i name="hartreedc">   -420.61312150 </i>
    <i name="XCdc">   -492.72599660 </i>
    <i name="pawpsdc">  23950.30832558 </i>
    <i name="pawaedc"> -22988.64649806 </i>
    <i name="eentropy">     -0.02417097 </i>
    <i name="bandstr">    197.33618055 </i>
    <i name="atom">   5668.65580356 </i>
    <i name="e_fr_energy">   -294.35718173 </i>
    <i name="e_wo_entrp">   -294.33301076 </i>
    <i name="e_0_energy">   -294.34509624 </i>
   </energy>
  </scstep>
  <scstep>
   <time name="dav">    4.00    4.04</time>
   <time name="total">    4.27    4.31</time>
   <energy>
    <i name="e_fr_energy">   -294.36560181 </i>
    <i name="e_wo_entrp">   -294.34160420 </i>
    <i name="e_0_energy">   -294.35360300 </i>
   </energy>
  </scstep>
  <scstep>
   <time name="dav">    3.96    4.01</time>
   <time name="total">    4.22    4.28</time>
   <energy>
    <i name="e_fr_energy">   -294.36341113 </i>
    <i name="e_wo_entrp">   -294.33965909 </i>
    <i name="e_0_energy">   -294.35153511 </i>
   </energy>
  </scstep>
  <scstep>
   <time name="dav">    4.05    4.10</time>
   <time name="total">    4.31    4.36</time>
   <energy>
    <i name="e_fr_energy">   -294.36307598 </i>
    <i name="e_wo_entrp">   -294.33947285 </i>
    <i name="e_0_energy">   -294.35127442 </i>
   </energy>
  </scstep>
  <scstep>
   <time name="dav">    4.09    4.14</time>
   <time name="total">    4.35    4.40</time>
   <energy>
    <i name="e_fr_energy">   -294.36298729 </i>
    <i name="e_wo_entrp">   -294.33944308 </i>
    <i name="e_0_energy">   -294.35121518 </i>
   </energy>
  </scstep>
  <scstep>
   <time name="dav">    4.06    4.11</time>
   <time name="total">    4.33    4.37</time>
   <energy>
    <i name="e_fr_energy">   -294.36298815 </i>
    <i name="e_wo_entrp">   -294.33942795 </i>
    <i name="e_0_energy">   -294.35120805 </i>
   </energy>
  </scstep>
  <scstep>
   <time name="dav">    3.50    3.53</time>
   <time name="total">    3.59    3.63</time>
   <energy>
    <i name="alphaZ">     94.20124788 </i>
    <i name="ewald">  -6302.84895216 </i>
    <i name="hartreedc">   -420.28847184 </i>
    <i name="XCdc">   -492.73507509 </i>
    <i name="pawpsdc">  23898.32162666 </i>
    <i name="pawaedc"> -22936.64563813 </i>
    <i name="eentropy">     -0.02357371 </i>
    <i name="bandstr">    197.00004863 </i>
    <i name="atom">   5668.65580356 </i>
    <i name="e_fr_energy">   -294.36298421 </i>
    <i name="e_wo_entrp">   -294.33941050 </i>
    <i name="e_0_energy">   -294.35119735 </i>
   </energy>
  </scstep>
  <structure>
   <crystal>
    <varray name="basis" >
     <v>       9.97646553       0.00000000       5.75991507 </v>
     <v>       3.32548851       9.40590192       5.75991507 </v>
     <v>       0.00000000       0.00000000      11.51983014 </v>
    </varray>
    <i name="volume">   1080.99386112 </i>
    <varray name="rec_basis" >
     <v>       0.10023590      -0.03543874       0.00000000 </v>
     <v>       0.00000000       0.10631623       0.00000000 </v>
     <v>      -0.05011795      -0.03543874       0.08680684 </v>
    </varray>
   </crystal>
   <varray name="positions" >
    <v>       0.29166667       0.29166667       0.29166667 </v>
    <v>       0.29148568       0.29148568       0.62398885 </v>
    <v>       0.29148568       0.29148568       0.95970645 </v>
    <v>       0.29148568       0.62398885       0.29148568 </v>
    <v>       0.28239749       0.62808972       0.62808972 </v>
    <v>       0.29148568       0.62398885       0.95970645 </v>
    <v>       0.29148568       0.95970645       0.29148568 </v>
    <v>       0.29148568       0.95970645       0.62398885 </v>
    <v>       0.29157661       0.95836335       0.95836335 </v>
    <v>       0.62398885       0.29148568       0.29148568 </v>
    <v>       0.62808972       0.28239749       0.62808972 </v>
    <v>       0.62398885       0.29148568       0.95970645 </v>
    <v>       0.62808972       0.62808972       0.28239749 </v>
    <v>       0.62808972       0.62808972       0.62808972 </v>
    <v>       0.62451623       0.62451623       0.95881710 </v>
    <v>       0.62398885       0.95970645       0.29148568 </v>
    <v>       0.62451623       0.95881710       0.62451623 </v>
    <v>       0.62451623       0.95881710       0.95881710 </v>
    <v>       0.95970645       0.29148568       0.29148568 </v>
    <v>       0.95970645       0.29148568       0.62398885 </v>
    <v>       0.95836335       0.29157661       0.95836335 </v>
    <v>       0.95970645       0.62398885       0.29148568 </v>
    <v>       0.95881710       0.62451623       0.62451623 </v>
    <v>       0.95881710       0.62451623       0.95881710 </v>
    <v>       0.95836335       0.95836335       0.29157661 </v>
    <v>       0.95881710       0.95881710       0.62451623 </v>
    <v>       0.95836335       0.95836335       0.95836335 </v>
    <v>       0.04166667       0.04166667       0.04166667 </v>
    <v>       0.04113980       0.04113980       0.37553499 </v>
    <v>       0.04113980       0.04113980       0.70885208 </v>
    <v>       0.04113980       0.37553499       0.04113980 </v>
    <v>       0.04146401       0.37506755       0.37506755 </v>
    <v>       0.04113980       0.37553499       0.70885208 </v>
    <v>       0.04113980       0.70885208       0.04113980 </v>
    <v>       0.04113980       0.70885208       0.37553499 </v>
    <v>       0.03763250       0.70967806       0.70967806 </v>
    <v>       0.37553499       0.04113980       0.04113980 </v>
    <v>       0.37506755       0.04146401       0.37506755 </v>
    <v>       0.37553499       0.04113980       0.70885208 </v>
    <v>       0.37506755       0.37506755       0.04146401 </v>
    <v>       0.37506755       0.37506755       0.37506755 </v>
    <v>       0.37247074       0.37247074       0.71086259 </v>
    <v>       0.37553499       0.70885208       0.04113980 </v>
    <v>       0.37247074       0.71086259       0.37247074 </v>
    <v>       0.37247074       0.71086259       0.71086259 </v>
    <v>       0.70885208       0.04113980       0.04113980 </v>
    <v>       0.70885208       0.04113980       0.37553499 </v>
    <v>       0.70967806       0.03763250       0.70967806 </v>
    <v>       0.70885208       0.37553499       0.04113980 </v>
    <v>       0.71086259       0.37247074       0.37247074 </v>
    <v>       0.71086259       0.37247074       0.71086259 </v>
    <v>       0.70967806       0.70967806       0.03763250 </v>
    <v>       0.71086259       0.71086259       0.37247074 </v>
    <v>       0.70967806       0.70967806       0.70967806 </v>
    <v>       0.54166667       0.54166667       0.54166667 </v>
   </varray>
  </structure>
  <varray name="forces" >
   <v>       0.00000000       0.00000000       0.00000000 </v>
   <v>      -0.10850562      -0.07672506      -0.05792575 </v>
   <v>      -0.10850562      -0.07672506       0.05792575 </v>
   <v>      -0.07097453       0.02942888      -0.12293150 </v>
   <v>       0.18865753      -0.06670051      -0.00000000 </v>
   <v>      -0.07097453       0.02942888       0.12293150 </v>
   <v>      -0.03753109       0.12402124      -0.06500575 </v>
   <v>      -0.03753109       0.12402124       0.06500575 </v>
   <v>      -0.01844116       0.00651994       0.00000000 </v>
   <v>       0.00408764      -0.07672506      -0.12293150 </v>
   <v>      -0.00000000       0.20010153      -0.00000000 </v>
   <v>       0.00408764      -0.07672506       0.12293150 </v>
   <v>      -0.09432876      -0.06670051       0.16338221 </v>
   <v>      -0.09432876      -0.06670051      -0.16338221 </v>
   <v>      -0.01383101      -0.00978000       0.00000000 </v>
   <v>       0.07506217       0.12402124       0.00000000 </v>
   <v>      -0.00691550       0.00978000      -0.01197800 </v>
   <v>      -0.00691550       0.00978000       0.01197800 </v>
   <v>       0.10441798      -0.07672506      -0.06500575 </v>
   <v>       0.10441798      -0.07672506       0.06500575 </v>
   <v>       0.00000000      -0.01955981       0.00000000 </v>
   <v>       0.14194907       0.02942888       0.00000000 </v>
   <v>       0.00691550      -0.00978000      -0.01197800 </v>
   <v>       0.00691550      -0.00978000       0.01197800 </v>
   <v>       0.00922058       0.00651994      -0.01597051 </v>
   <v>       0.01383101       0.00978000       0.00000000 </v>
   <v>       0.00922058       0.00651994       0.01597051 </v>
   <v>       0.00000000       0.00000000       0.00000000 </v>
   <v>       0.04113571       0.02908734      -0.02795881 </v>
   <v>       0.04113571       0.02908734       0.02795881 </v>
   <v>       0.01249684      -0.05191561       0.02164517 </v>
   <v>       0.05937852      -0.02099348      -0.00000000 </v>
   <v>       0.01249684      -0.05191561      -0.02164517 </v>
   <v>       0.02863887      -0.00625907       0.04960398 </v>
   <v>       0.02863887      -0.00625907      -0.04960398 </v>
   <v>      -0.55352184       0.19569952       0.00000000 </v>
   <v>      -0.04478089       0.02908734       0.02164517 </v>
   <v>      -0.00000000       0.06298043      -0.00000000 </v>
   <v>      -0.04478089       0.02908734      -0.02164517 </v>
   <v>      -0.02968926      -0.02099348       0.05142330 </v>
   <v>      -0.02968926      -0.02099348      -0.05142330 </v>
   <v>       0.08842729       0.06252754      -0.00000000 </v>
   <v>      -0.05727774      -0.00625907       0.00000000 </v>
   <v>       0.04421365      -0.06252754       0.07658028 </v>
   <v>       0.04421365      -0.06252754      -0.07658028 </v>
   <v>       0.00364518       0.02908734       0.04960398 </v>
   <v>       0.00364518       0.02908734      -0.04960398 </v>
   <v>       0.00000000      -0.58709857       0.00000000 </v>
   <v>      -0.02499368      -0.05191561       0.00000000 </v>
   <v>      -0.04421365       0.06252754       0.07658028 </v>
   <v>      -0.04421365       0.06252754      -0.07658028 </v>
   <v>       0.27676092       0.19569952      -0.47936398 </v>
   <v>      -0.08842729      -0.06252754      -0.00000000 </v>
   <v>       0.27676092       0.19569952       0.47936398 </v>
   <v>       0.00000000       0.00000000       0.00000000 </v>
  </varray>
  <varray name="stress" >
   <v>      26.79216539       0.00000000      -0.00000000 </v>
   <v>      -0.00000000      26.79216547       0.00000000 </v>
   <v>       0.00000000       0.00000000      26.79216549 </v>
  </varray>
  <energy>
   <i name="e_fr_energy">   -294.36298421 </i>
   <i name="e_wo_entrp">   -294.35119735 </i>
   <i name="e_0_energy">     -0.02357371 </i>
  </energy>
  <time name="totalsc">   37.45   37.86</time>
 </calculation>
 <calculation>
  <scstep>
   <time name="dav">    3.60    3.63</time>
   <time name="total">    3.86    3.90</time>
   <energy>
    <i name="alphaZ">     94.20124788 </i>
    <i name="ewald">  -6304.82240595 </i>
    <i name="hartreedc">   -418.61057880 </i>
    <i name="XCdc">   -492.75482088 </i>
    <i name="pawpsdc">  23897.32059729 </i>
    <i name="pawaedc"> -22935.64438699 </i>
    <i name="eentropy">     -0.02039130 </i>
    <i name="bandstr">    197.26049003 </i>
    <i name="atom">   5668.65580356 </i>
    <i name="e_fr_energy">   -294.41444516 </i>
    <i name="e_wo_entrp">   -294.39405385 </i>
    <i name="e_0_energy">   -294.40424950 </i>
   </energy>
  </scstep>
  <scstep>
   <time name="dav">    4.13    4.17</time>
   <time name="total">    4.39    4.44</time>
   <energy>
    <i name="e_fr_energy">   -294.42310544 </i>
    <i name="e_wo_entrp">   -294.40257483 </i>
    <i name="e_0_energy">   -294.41284014 </i>
   </energy>
  </scstep>
  <scstep>
   <time name="dav">    3.98    4.03</time>
   <time name="total">    4.24    4.30</time>
   <energy>
    <i name="e_fr_energy">   -294.42203865 </i>
    <i name="e_wo_entrp">   -294.40140760 </i>
    <i name="e_0_energy">   -294.41172313 </i>
   </energy>
  </scstep>
  <scstep>
   <time name="dav">    3.96    4.00</time>
   <time name="total">    4.24    4.28</time>
   <energy>
    <i name="e_fr_energy">   -294.42133358 </i>
    <i name="e_wo_entrp">   -294.40052047 </i>
    <i name="e_0_energy">   -294.41092703 </i>
   </energy>
  </scstep>
  <scstep>
   <time name="dav">    3.97    4.01</time>
   <time name="total">    4.23    4.27</time>
   <energy>
    <i name="e_fr_energy">   -294.42137325 </i>
    <i name="e_wo_entrp">   -294.40056315 </i>
    <i name="e_0_energy">   -294.41096820 </i>
   </energy>
  </scstep>
  <scstep>
   <time name="dav">    4.24    4.29</time>
   <time name="total">    4.34    4.38</time>
   <energy>
    <i name="alphaZ">     94.20124788 </i>
    <i name="ewald">  -6304.82240595 </i>
    <i name="hartreedc">   -418.67852519 </i>
    <i name="XCdc">   -492.75627935 </i>
    <i name="pawpsdc">  23883.85920167 </i>
    <i name="pawaedc"> -22922.17741340 </i>
    <i name="eentropy">     -0.02080297 </i>
    <i name="bandstr">    197.31780276 </i>
    <i name="atom">   5668.65580356 </i>
    <i name="e_fr_energy">   -294.42137100 </i>
    <i name="e_wo_entrp">   -294.40056803 </i>
    <i name="e_0_energy">   -294.41096951 </i>
   </energy>
  </scstep>
  <structure>
   <crystal>
    <varray name="basis" >
     <v>       9.97646553       0.00000000       5.75991507 </v>
     <v>       3.32548851       9.40590192       5.75991507 </v>
     <v>       0.00000000       0.00000000      11.51983014 </v>
    </varray>
    <i name="volume">   1080.99386112 </i>
    <varray name="rec_basis" >
     <v>       0.10023590      -0.03543874       0.00000000 </v>
     <v>       0.00000000       0.10631623       0.00000000 </v>
     <v>      -0.05011795      -0.03543874       0.08680684 </v>
    </varray>
   </crystal>
   <varray name="positions" >
    <v>       0.29166667       0.29166667       0.29166667 </v>
    <v>       0.29101142       0.29101142       0.62399323 </v>
    <v>       0.29101142       0.29101142       0.96065059 </v>
    <v>       0.29101142       0.62399323       0.29101142 </v>
    <v>       0.28203398       0.62821090       0.62821090 </v>
    <v>       0.29101142       0.62399323       0.96065059 </v>
    <v>       0.29101142       0.96065059       0.29101142 </v>
    <v>       0.29101142       0.96065059       0.62399323 </v>
    <v>       0.29144849       0.95840606       0.95840606 </v>
    <v>       0.62399323       0.29101142       0.29101142 </v>
    <v>       0.62821090       0.28203398       0.62821090 </v>
    <v>       0.62399323       0.29101142       0.96065059 </v>
    <v>       0.62821090       0.62821090       0.28203398 </v>
    <v>       0.62821090       0.62821090       0.62821090 </v>
    <v>       0.62438009       0.62438009       0.95895324 </v>
    <v>       0.62399323       0.96065059       0.29101142 </v>
    <v>       0.62438009       0.95895324       0.62438009 </v>
    <v>       0.62438009       0.95895324       0.95895324 </v>
    <v>       0.96065059       0.29101142       0.29101142 </v>
    <v>       0.96065059       0.29101142       0.62399323 </v>
    <v>       0.95840606       0.29144849       0.95840606 </v>
    <v>       0.96065059       0.62399323       0.29101142 </v>
    <v>       0.95895324       0.62438009       0.62438009 </v>
    <v>       0.95895324       0.62438009       0.95895324 </v>
    <v>       0.95840606       0.95840606       0.29144849 </v>
    <v>       0.95895324       0.95895324       0.62438009 </v>
    <v>       0.95840606       0.95840606       0.95840606 </v>
    <v>       0.04166667       0.04166667       0.04166667 </v>
    <v>       0.04122176       0.04122176       0.37532210 </v>
    <v>       0.04122176       0.04122176       0.70890104 </v>
    <v>       0.04122176       0.37532210       0.04122176 </v>
    <v>       0.04179561       0.37495702       0.37495702 </v>
    <v>       0.04122176       0.37532210       0.70890104 </v>
    <v>       0.04122176       0.70890104       0.04122176 </v>
    <v>       0.04122176       0.70890104       0.37532210 </v>
    <v>       0.03356822       0.71103281       0.71103281 </v>
    <v>       0.37532210       0.04122176       0.04122176 </v>
    <v>       0.37495702       0.04179561       0.37495702 </v>
    <v>       0.37532210       0.04122176       0.70890104 </v>
    <v>       0.37495702       0.37495702       0.04179561 </v>
    <v>       0.37495702       0.37495702       0.37495702 </v>
    <v>       0.37241747       0.37241747       0.71091586 </v>
    <v>       0.37532210       0.70890104       0.04122176 </v>
    <v>       0.37241747       0.71091586       0.37241747 </v>
    <v>       0.37241747       0.71091586       0.71091586 </v>
    <v>       0.70890104       0.04122176       0.04122176 </v>
    <v>       0.70890104       0.04122176       0.37532210 </v>
    <v>       0.71103281       0.03356822       0.71103281 </v>
    <v>       0.70890104       0.37532210       0.04122176 </v>
    <v>       0.71091586       0.37241747       0.37241747 </v>
    <v>       0.71091586       0.37241747       0.71091586 </v>
    <v>       0.71103281       0.71103281       0.03356822 </v>
    <v>       0.71091586       0.71091586       0.37241747 </v>
    <v>       0.71103281       0.71103281       0.71103281 </v>
    <v>       0.54166667       0.54166667       0.54166667 </v>
   </varray>
  </structure>
  <varray name="forces" >
   <v>       0.00000000       0.00000000      -0.00000000 </v>
   <v>      -0.00794021      -0.00561458       0.01787873 </v>
   <v>      -0.00794021      -0.00561458      -0.01787873 </v>
   <v>       0.00119104       0.02021250       0.00206294 </v>
   <v>      -0.03488890       0.01233509      -0.00000000 </v>
   <v>       0.00119104       0.02021250      -0.00206294 </v>
   <v>      -0.00913125      -0.00898334      -0.01581579 </v>
   <v>      -0.00913125      -0.00898334       0.01581579 </v>
   <v>      -0.00970904       0.00343267      -0.00000000 </v>
   <v>       0.01945354      -0.00561458       0.00206294 </v>
   <v>       0.00000000      -0.03700527      -0.00000000 </v>
   <v>       0.01945354      -0.00561458      -0.00206294 </v>
   <v>       0.01744445       0.01233509      -0.03021467 </v>
   <v>       0.01744445       0.01233509       0.03021467 </v>
   <v>      -0.06037825      -0.04269387      -0.00000000 </v>
   <v>       0.01826250      -0.00898334      -0.00000000 </v>
   <v>      -0.03018913       0.04269387      -0.05228910 </v>
   <v>      -0.03018913       0.04269387       0.05228910 </v>
   <v>      -0.01151333      -0.00561458      -0.01581579 </v>
   <v>      -0.01151333      -0.00561458       0.01581579 </v>
   <v>       0.00000000      -0.01029800      -0.00000000 </v>
   <v>      -0.00238208       0.02021250      -0.00000000 </v>
   <v>       0.03018913      -0.04269387      -0.05228910 </v>
   <v>       0.03018913      -0.04269387       0.05228910 </v>
   <v>       0.00485452       0.00343267      -0.00840828 </v>
   <v>       0.06037825       0.04269387      -0.00000000 </v>
   <v>       0.00485452       0.00343267       0.00840828 </v>
   <v>       0.00000000       0.00000000      -0.00000000 </v>
   <v>       0.01083327       0.00766028      -0.03285407 </v>
   <v>       0.01083327       0.00766028       0.03285407 </v>
   <v>      -0.00406752      -0.03448552      -0.00704515 </v>
   <v>       0.04914102      -0.01737397      -0.00000000 </v>
   <v>      -0.00406752      -0.03448552       0.00704515 </v>
   <v>       0.01490079       0.01916495       0.02580892 </v>
   <v>       0.01490079       0.01916495      -0.02580892 </v>
   <v>      -0.06458698       0.02283495      -0.00000000 </v>
   <v>      -0.03386909       0.00766028      -0.00704515 </v>
   <v>      -0.00000000       0.05212192      -0.00000000 </v>
   <v>      -0.03386909       0.00766028       0.00704515 </v>
   <v>      -0.02457051      -0.01737397       0.04255737 </v>
   <v>      -0.02457051      -0.01737397      -0.04255737 </v>
   <v>       0.04529020       0.03202501      -0.00000000 </v>
   <v>      -0.02980158       0.01916495      -0.00000000 </v>
   <v>       0.02264510      -0.03202501       0.03922246 </v>
   <v>       0.02264510      -0.03202501      -0.03922246 </v>
   <v>       0.02303582       0.00766028       0.02580892 </v>
   <v>       0.02303582       0.00766028      -0.02580892 </v>
   <v>       0.00000000      -0.06850484      -0.00000000 </v>
   <v>       0.00813503      -0.03448552      -0.00000000 </v>
   <v>      -0.02264510       0.03202501       0.03922246 </v>
   <v>      -0.02264510       0.03202501      -0.03922246 </v>
   <v>       0.03229349       0.02283495      -0.05593397 </v>
   <v>      -0.04529020      -0.03202501      -0.00000000 </v>
   <v>       0.03229349       0.02283495       0.05593397 </v>
   <v>       0.00000000       0.00000000      -0.00000000 </v>
  </varray>
  <varray name="stress" >
   <v>      26.54162562      -0.00000000       0.00000000 </v>
   <v>       0.00000000      26.54162570      -0.00000000 </v>
   <v>       0.00000000      -0.00000000      26.54162571 </v>
  </varray>
  <energy>
   <i name="e_fr_energy">   -294.42137100 </i>
   <i name="e_wo_entrp">   -294.41096951 </i>
   <i name="e_0_energy">     -0.02080297 </i>
  </energy>
  <time name="totalsc">   33.79   34.15</time>
 </calculation>
 <calculation>
  <scstep>
   <time name="dav">    3.65    3.69</time>
   <time name="total">    4.02    4.09</time>
   <energy>
    <i name="alphaZ">     94.20124788 </i>
    <i name="ewald">  -6305.06697361 </i>
    <i name="hartreedc">   -418.46149978 </i>
    <i name="XCdc">   -492.75929505 </i>
    <i name="pawpsdc">  23882.96590110 </i>
    <i name="pawaedc"> -22921.28371377 </i>
    <i name="eentropy">     -0.02032671 </i>
    <i name="bandstr">    197.34669715 </i>
    <i name="atom">   5668.65580356 </i>
    <i name="e_fr_energy">   -294.42215923 </i>
    <i name="e_wo_entrp">   -294.40183252 </i>
    <i name="e_0_energy">   -294.41199588 </i>
   </energy>
  </scstep>
  <scstep>
   <time name="dav">    4.18    4.23</time>
   <time name="total">    4.44    4.49</time>
   <energy>
    <i name="e_fr_energy">   -294.42237778 </i>
    <i name="e_wo_entrp">   -294.40203070 </i>
    <i name="e_0_energy">   -294.41220424 </i>
   </energy>
  </scstep>
  <scstep>
   <time name="dav">    4.01    4.06</time>
   <time name="total">    4.28    4.32</time>
   <energy>
    <i name="e_fr_energy">   -294.42235927 </i>
    <i name="e_wo_entrp">   -294.40199770 </i>
    <i name="e_0_energy">   -294.41217848 </i>
   </energy>
  </scstep>
  <scstep>
   <time name="dav">    3.74    3.79</time>
   <time name="total">    3.84    3.88</time>
   <energy>
    <i name="alphaZ">     94.20124788 </i>
    <i name="ewald">  -6305.06697361 </i>
    <i name="hartreedc">   -418.47060883 </i>
    <i name="XCdc">   -492.75940294 </i>
    <i name="pawpsdc">  23881.24791621 </i>
    <i name="pawaedc"> -22919.56522567 </i>
    <i name="eentropy">     -0.02038763 </i>
    <i name="bandstr">    197.35528123 </i>
    <i name="atom">   5668.65580356 </i>
    <i name="e_fr_energy">   -294.42234980 </i>
    <i name="e_wo_entrp">   -294.40196218 </i>
    <i name="e_0_energy">   -294.41215599 </i>
   </energy>
  </scstep>
  <structure>
   <crystal>
    <varray name="basis" >
     <v>       9.97646553       0.00000000       5.75991507 </v>
     <v>       3.32548851       9.40590192       5.75991507 </v>
     <v>       0.00000000       0.00000000      11.51983014 </v>
    </varray>
    <i name="volume">   1080.99386112 </i>
    <varray name="rec_basis" >
     <v>       0.10023590      -0.03543874       0.00000000 </v>
     <v>       0.00000000       0.10631623       0.00000000 </v>
     <v>      -0.05011795      -0.03543874       0.08680684 </v>
    </varray>
   </crystal>
   <varray name="positions" >
    <v>       0.29166667       0.29166667       0.29166667 </v>
    <v>       0.29094191       0.29094191       0.62399388 </v>
    <v>       0.29094191       0.29094191       0.96078898 </v>
    <v>       0.29094191       0.62399388       0.29094191 </v>
    <v>       0.28198070       0.62822866       0.62822866 </v>
    <v>       0.29094191       0.62399388       0.96078898 </v>
    <v>       0.29094191       0.96078898       0.29094191 </v>
    <v>       0.29094191       0.96078898       0.62399388 </v>
    <v>       0.29142971       0.95841232       0.95841232 </v>
    <v>       0.62399388       0.29094191       0.29094191 </v>
    <v>       0.62822866       0.28198070       0.62822866 </v>
    <v>       0.62399388       0.29094191       0.96078898 </v>
    <v>       0.62822866       0.62822866       0.28198070 </v>
    <v>       0.62822866       0.62822866       0.62822866 </v>
    <v>       0.62436014       0.62436014       0.95897320 </v>
    <v>       0.62399388       0.96078898       0.29094191 </v>
    <v>       0.62436014       0.95897320       0.62436014 </v>
    <v>       0.62436014       0.95897320       0.95897320 </v>
    <v>       0.96078898       0.29094191       0.29094191 </v>
    <v>       0.96078898       0.29094191       0.62399388 </v>
    <v>       0.95841232       0.29142971       0.95841232 </v>
    <v>       0.96078898       0.62399388       0.29094191 </v>
    <v>       0.95897320       0.62436014       0.62436014 </v>
    <v>       0.95897320       0.62436014       0.95897320 </v>
    <v>       0.95841232       0.95841232       0.29142971 </v>
    <v>       0.95897320       0.95897320       0.62436014 </v>
    <v>       0.95841232       0.95841232       0.95841232 </v>
    <v>       0.04166667       0.04166667       0.04166667 </v>
    <v>       0.04123378       0.04123378       0.37529090 </v>
    <v>       0.04123378       0.04123378       0.70890822 </v>
    <v>       0.04123378       0.37529090       0.04123378 </v>
    <v>       0.04184421       0.37494082       0.37494082 </v>
    <v>       0.04123378       0.37529090       0.70890822 </v>
    <v>       0.04123378       0.70890822       0.04123378 </v>
    <v>       0.04123378       0.70890822       0.37529090 </v>
    <v>       0.03297251       0.71123139       0.71123139 </v>
    <v>       0.37529090       0.04123378       0.04123378 </v>
    <v>       0.37494082       0.04184421       0.37494082 </v>
    <v>       0.37529090       0.04123378       0.70890822 </v>
    <v>       0.37494082       0.37494082       0.04184421 </v>
    <v>       0.37494082       0.37494082       0.37494082 </v>
    <v>       0.37240966       0.37240966       0.71092367 </v>
    <v>       0.37529090       0.70890822       0.04123378 </v>
    <v>       0.37240966       0.71092367       0.37240966 </v>
    <v>       0.37240966       0.71092367       0.71092367 </v>
    <v>       0.70890822       0.04123378       0.04123378 </v>
    <v>       0.70890822       0.04123378       0.37529090 </v>
    <v>       0.71123139       0.03297251       0.71123139 </v>
    <v>       0.70890822       0.37529090       0.04123378 </v>
    <v>       0.71092367       0.37240966       0.37240966 </v>
    <v>       0.71092367       0.37240966       0.71092367 </v>
    <v>       0.71123139       0.71123139       0.03297251 </v>
    <v>       0.71092367       0.71092367       0.37240966 </v>
    <v>       0.71123139       0.71123139       0.71123139 </v>
    <v>       0.54166667       0.54166667       0.54166667 </v>
   </varray>
  </structure>
  <varray name="forces" >
   <v>       0.00000000      -0.00000000       0.00000000 </v>
   <v>       0.00660334       0.00466927       0.02886131 </v>
   <v>       0.00660334       0.00466927      -0.02886131 </v>
   <v>       0.01163321       0.01889589       0.02014932 </v>
   <v>      -0.06204412       0.02193591      -0.00000000 </v>
   <v>       0.01163321       0.01889589      -0.02014932 </v>
   <v>      -0.00502987      -0.02823443      -0.00871199 </v>
   <v>      -0.00502987      -0.02823443       0.00871199 </v>
   <v>      -0.00896263       0.00316877      -0.00000000 </v>
   <v>       0.02169295       0.00466927       0.02014932 </v>
   <v>       0.00000000      -0.06580773      -0.00000000 </v>
   <v>       0.02169295       0.00466927      -0.02014932 </v>
   <v>       0.03102206       0.02193591      -0.05373179 </v>
   <v>       0.03102206       0.02193591       0.05373179 </v>
   <v>      -0.06615482      -0.04677852       0.00000000 </v>
   <v>       0.01005974      -0.02823443      -0.00000000 </v>
   <v>      -0.03307741       0.04677852      -0.05729175 </v>
   <v>      -0.03307741       0.04677852       0.05729175 </v>
   <v>      -0.02829630       0.00466927      -0.00871199 </v>
   <v>      -0.02829630       0.00466927       0.00871199 </v>
   <v>       0.00000000      -0.00950630       0.00000000 </v>
   <v>      -0.02326643       0.01889589      -0.00000000 </v>
   <v>       0.03307741      -0.04677852      -0.05729175 </v>
   <v>       0.03307741      -0.04677852       0.05729175 </v>
   <v>       0.00448131       0.00316877      -0.00776186 </v>
   <v>       0.06615482       0.04677852       0.00000000 </v>
   <v>       0.00448131       0.00316877       0.00776186 </v>
   <v>       0.00000000      -0.00000000       0.00000000 </v>
   <v>       0.00665277       0.00470422      -0.03397768 </v>
   <v>       0.00665277       0.00470422       0.03397768 </v>
   <v>      -0.00648213      -0.03244689      -0.01122737 </v>
   <v>       0.04796019      -0.01695649       0.00000000 </v>
   <v>      -0.00648213      -0.03244689       0.01122737 </v>
   <v>       0.01313490       0.02303844       0.02275031 </v>
   <v>       0.01313490       0.02303844      -0.02275031 </v>
   <v>       0.00114360      -0.00040432       0.00000000 </v>
   <v>      -0.03275193       0.00470422      -0.01122737 </v>
   <v>       0.00000000       0.05086946       0.00000000 </v>
   <v>      -0.03275193       0.00470422       0.01122737 </v>
   <v>      -0.02398009      -0.01695649       0.04153474 </v>
   <v>      -0.02398009      -0.01695649      -0.04153474 </v>
   <v>       0.03985620       0.02818259       0.00000000 </v>
   <v>      -0.02626980       0.02303844      -0.00000000 </v>
   <v>       0.01992810      -0.02818259       0.03451648 </v>
   <v>       0.01992810      -0.02818259      -0.03451648 </v>
   <v>       0.02609915       0.00470422       0.02275031 </v>
   <v>       0.02609915       0.00470422      -0.02275031 </v>
   <v>       0.00000000       0.00121297       0.00000000 </v>
   <v>       0.01296425      -0.03244689      -0.00000000 </v>
   <v>      -0.01992810       0.02818259       0.03451648 </v>
   <v>      -0.01992810       0.02818259      -0.03451648 </v>
   <v>      -0.00057180      -0.00040432       0.00099039 </v>
   <v>      -0.03985620      -0.02818259       0.00000000 </v>
[...]
        <r>  0.0002  0.0030  0.0000 </r>
        <r>  0.0008  0.0013  0.0000 </r>
        <r>  0.0002  0.0030  0.0000 </r>
        <r>  0.0003  0.0014  0.0000 </r>
        <r>  0.0002  0.0071  0.0000 </r>
        <r>  0.0003  0.0014  0.0000 </r>
        <r>  0.0003  0.0014  0.0000 </r>
        <r>  0.0017  0.0016  0.0000 </r>
        <r>  0.0002  0.0030  0.0000 </r>
        <r>  0.0024  0.0026  0.0000 </r>
        <r>  0.0017  0.0016  0.0000 </r>
        <r>  0.0002  0.0030  0.0000 </r>
        <r>  0.0002  0.0071  0.0000 </r>
        <r>  0.0008  0.0013  0.0000 </r>
        <r>  0.0002  0.0030  0.0000 </r>
        <r>  0.0017  0.0016  0.0000 </r>
        <r>  0.0024  0.0026  0.0000 </r>
        <r>  0.0008  0.0013  0.0000 </r>
        <r>  0.0017  0.0016  0.0000 </r>
        <r>  0.0008  0.0013  0.0000 </r>
        <r>  0.0000  0.0100  0.0000 </r>
        <r>  0.0006  0.0030  0.0000 </r>
        <r>  0.0006  0.0030  0.0000 </r>
        <r>  0.0007  0.0010  0.0000 </r>
        <r>  0.0046  0.0008  0.0000 </r>
        <r>  0.0006  0.0030  0.0000 </r>
        <r>  0.0007  0.0010  0.0000 </r>
        <r>  0.0006  0.0030  0.0000 </r>
        <r>  0.0001  0.0055  0.0000 </r>
        <r>  0.0006  0.0030  0.0000 </r>
        <r>  0.0046  0.0008  0.0000 </r>
        <r>  0.0007  0.0010  0.0000 </r>
        <r>  0.0046  0.0008  0.0000 </r>
        <r>  0.0046  0.0008  0.0000 </r>
        <r>  0.0007  0.0015  0.0000 </r>
        <r>  0.0006  0.0030  0.0000 </r>
        <r>  0.0000  0.0005  0.0000 </r>
        <r>  0.0007  0.0015  0.0000 </r>
        <r>  0.0006  0.0030  0.0000 </r>
        <r>  0.0007  0.0010  0.0000 </r>
        <r>  0.0001  0.0055  0.0000 </r>
        <r>  0.0006  0.0030  0.0000 </r>
        <r>  0.0007  0.0015  0.0000 </r>
        <r>  0.0000  0.0005  0.0000 </r>
        <r>  0.0001  0.0055  0.0000 </r>
        <r>  0.0007  0.0015  0.0000 </r>
        <r>  0.0001  0.0055  0.0000 </r>
        <r>  0.0000  0.0000  0.0000 </r>
       </set>
       <set comment="band 139">
        <r>  0.0000  0.0019  0.0000 </r>
        <r>  0.0000  0.0027  0.0000 </r>
        <r>  0.0000  0.0027  0.0000 </r>
        <r>  0.0013  0.0042  0.0000 </r>
        <r>  0.0001  0.0047  0.0000 </r>
        <r>  0.0000  0.0027  0.0000 </r>
        <r>  0.0013  0.0042  0.0000 </r>
        <r>  0.0000  0.0027  0.0000 </r>
        <r>  0.0005  0.0041  0.0000 </r>
        <r>  0.0000  0.0027  0.0000 </r>
        <r>  0.0001  0.0047  0.0000 </r>
        <r>  0.0013  0.0042  0.0000 </r>
        <r>  0.0001  0.0047  0.0000 </r>
        <r>  0.0001  0.0047  0.0000 </r>
        <r>  0.0002  0.0027  0.0000 </r>
        <r>  0.0000  0.0027  0.0000 </r>
        <r>  0.0000  0.0034  0.0000 </r>
        <r>  0.0002  0.0027  0.0000 </r>
        <r>  0.0000  0.0027  0.0000 </r>
        <r>  0.0013  0.0042  0.0000 </r>
        <r>  0.0005  0.0041  0.0000 </r>
        <r>  0.0000  0.0027  0.0000 </r>
        <r>  0.0002  0.0027  0.0000 </r>
        <r>  0.0000  0.0034  0.0000 </r>
        <r>  0.0005  0.0041  0.0000 </r>
        <r>  0.0002  0.0027  0.0000 </r>
        <r>  0.0005  0.0041  0.0000 </r>
        <r>  0.0001  0.0000  0.0000 </r>
        <r>  0.0006  0.0051  0.0000 </r>
        <r>  0.0006  0.0051  0.0000 </r>
        <r>  0.0001  0.0030  0.0000 </r>
        <r>  0.0002  0.0019  0.0000 </r>
        <r>  0.0006  0.0051  0.0000 </r>
        <r>  0.0001  0.0030  0.0000 </r>
        <r>  0.0006  0.0051  0.0000 </r>
        <r>  0.0000  0.0017  0.0000 </r>
        <r>  0.0006  0.0051  0.0000 </r>
        <r>  0.0002  0.0019  0.0000 </r>
        <r>  0.0001  0.0030  0.0000 </r>
        <r>  0.0002  0.0019  0.0000 </r>
        <r>  0.0002  0.0019  0.0000 </r>
        <r>  0.0000  0.0029  0.0000 </r>
        <r>  0.0006  0.0051  0.0000 </r>
        <r>  0.0016  0.0004  0.0000 </r>
        <r>  0.0000  0.0029  0.0000 </r>
        <r>  0.0006  0.0051  0.0000 </r>
        <r>  0.0001  0.0030  0.0000 </r>
        <r>  0.0000  0.0017  0.0000 </r>
        <r>  0.0006  0.0051  0.0000 </r>
        <r>  0.0000  0.0029  0.0000 </r>
        <r>  0.0016  0.0004  0.0000 </r>
        <r>  0.0000  0.0017  0.0000 </r>
        <r>  0.0000  0.0029  0.0000 </r>
        <r>  0.0000  0.0017  0.0000 </r>
        <r>  0.0000  0.0003  0.0000 </r>
       </set>
       <set comment="band 140">
        <r>  0.0000  0.0079  0.0000 </r>
        <r>  0.0009  0.0034  0.0000 </r>
        <r>  0.0009  0.0034  0.0000 </r>
        <r>  0.0003  0.0015  0.0000 </r>
        <r>  0.0000  0.0015  0.0000 </r>
        <r>  0.0009  0.0034  0.0000 </r>
        <r>  0.0003  0.0015  0.0000 </r>
        <r>  0.0009  0.0034  0.0000 </r>
        <r>  0.0014  0.0021  0.0000 </r>
        <r>  0.0009  0.0034  0.0000 </r>
        <r>  0.0000  0.0015  0.0000 </r>
        <r>  0.0003  0.0015  0.0000 </r>
        <r>  0.0000  0.0015  0.0000 </r>
        <r>  0.0000  0.0015  0.0000 </r>
        <r>  0.0000  0.0031  0.0000 </r>
        <r>  0.0009  0.0034  0.0000 </r>
        <r>  0.0000  0.0134  0.0000 </r>
        <r>  0.0000  0.0031  0.0000 </r>
        <r>  0.0009  0.0034  0.0000 </r>
        <r>  0.0003  0.0015  0.0000 </r>
        <r>  0.0014  0.0021  0.0000 </r>
        <r>  0.0009  0.0034  0.0000 </r>
        <r>  0.0000  0.0031  0.0000 </r>
        <r>  0.0000  0.0134  0.0000 </r>
        <r>  0.0014  0.0021  0.0000 </r>
        <r>  0.0000  0.0031  0.0000 </r>
        <r>  0.0014  0.0021  0.0000 </r>
        <r>  0.0000  0.0124  0.0000 </r>
        <r>  0.0001  0.0031  0.0000 </r>
        <r>  0.0001  0.0031  0.0000 </r>
        <r>  0.0004  0.0004  0.0000 </r>
        <r>  0.0007  0.0013  0.0000 </r>
        <r>  0.0001  0.0031  0.0000 </r>
        <r>  0.0004  0.0004  0.0000 </r>
        <r>  0.0001  0.0031  0.0000 </r>
        <r>  0.0010  0.0006  0.0000 </r>
        <r>  0.0001  0.0031  0.0000 </r>
        <r>  0.0007  0.0013  0.0000 </r>
        <r>  0.0004  0.0004  0.0000 </r>
        <r>  0.0007  0.0013  0.0000 </r>
        <r>  0.0007  0.0013  0.0000 </r>
        <r>  0.0009  0.0045  0.0000 </r>
        <r>  0.0001  0.0031  0.0000 </r>
        <r>  0.0000  0.0051  0.0000 </r>
        <r>  0.0009  0.0045  0.0000 </r>
        <r>  0.0001  0.0031  0.0000 </r>
        <r>  0.0004  0.0004  0.0000 </r>
        <r>  0.0010  0.0006  0.0000 </r>
        <r>  0.0001  0.0031  0.0000 </r>
        <r>  0.0009  0.0045  0.0000 </r>
        <r>  0.0000  0.0051  0.0000 </r>
        <r>  0.0010  0.0006  0.0000 </r>
        <r>  0.0009  0.0045  0.0000 </r>
        <r>  0.0010  0.0006  0.0000 </r>
        <r>  0.0000  0.0000  0.0000 </r>
       </set>
       <set comment="band 141">
        <r>  0.0029  0.0000  0.0000 </r>
        <r>  0.0021  0.0035  0.0000 </r>
        <r>  0.0021  0.0035  0.0000 </r>
        <r>  0.0019  0.0027  0.0000 </r>
        <r>  0.0004  0.0054  0.0000 </r>
        <r>  0.0021  0.0035  0.0000 </r>
        <r>  0.0019  0.0027  0.0000 </r>
        <r>  0.0021  0.0035  0.0000 </r>
        <r>  0.0000  0.0013  0.0000 </r>
        <r>  0.0021  0.0035  0.0000 </r>
        <r>  0.0004  0.0054  0.0000 </r>
        <r>  0.0019  0.0027  0.0000 </r>
        <r>  0.0004  0.0054  0.0000 </r>
        <r>  0.0004  0.0054  0.0000 </r>
        <r>  0.0005  0.0010  0.0000 </r>
        <r>  0.0021  0.0035  0.0000 </r>
        <r>  0.0010  0.0006  0.0000 </r>
        <r>  0.0005  0.0010  0.0000 </r>
        <r>  0.0021  0.0035  0.0000 </r>
        <r>  0.0019  0.0027  0.0000 </r>
        <r>  0.0000  0.0013  0.0000 </r>
        <r>  0.0021  0.0035  0.0000 </r>
        <r>  0.0005  0.0010  0.0000 </r>
        <r>  0.0010  0.0006  0.0000 </r>
        <r>  0.0000  0.0013  0.0000 </r>
        <r>  0.0005  0.0010  0.0000 </r>
        <r>  0.0000  0.0013  0.0000 </r>
        <r>  0.0000  0.0001  0.0000 </r>
        <r>  0.0007  0.0020  0.0000 </r>
        <r>  0.0007  0.0020  0.0000 </r>
        <r>  0.0026  0.0009  0.0000 </r>
        <r>  0.0001  0.0029  0.0000 </r>
        <r>  0.0007  0.0020  0.0000 </r>
        <r>  0.0026  0.0009  0.0000 </r>
        <r>  0.0007  0.0020  0.0000 </r>
        <r>  0.0013  0.0017  0.0000 </r>
        <r>  0.0007  0.0020  0.0000 </r>
        <r>  0.0001  0.0029  0.0000 </r>
        <r>  0.0026  0.0009  0.0000 </r>
        <r>  0.0001  0.0029  0.0000 </r>
        <r>  0.0001  0.0029  0.0000 </r>
        <r>  0.0007  0.0032  0.0000 </r>
        <r>  0.0007  0.0020  0.0000 </r>
        <r>  0.0000  0.0067  0.0000 </r>
        <r>  0.0007  0.0032  0.0000 </r>
        <r>  0.0007  0.0020  0.0000 </r>
        <r>  0.0026  0.0009  0.0000 </r>
        <r>  0.0013  0.0017  0.0000 </r>
        <r>  0.0007  0.0020  0.0000 </r>
        <r>  0.0007  0.0032  0.0000 </r>
        <r>  0.0000  0.0067  0.0000 </r>
        <r>  0.0013  0.0017  0.0000 </r>
        <r>  0.0007  0.0032  0.0000 </r>
        <r>  0.0013  0.0017  0.0000 </r>
        <r>  0.0000  0.0002  0.0000 </r>
       </set>
       <set comment="band 142">
        <r>  0.0000  0.0073  0.0000 </r>
        <r>  0.0004  0.0017  0.0000 </r>
        <r>  0.0004  0.0017  0.0000 </r>
        <r>  0.0023  0.0088  0.0000 </r>
        <r>  0.0026  0.0020  0.0000 </r>
        <r>  0.0004  0.0017  0.0000 </r>
        <r>  0.0023  0.0088  0.0000 </r>
        <r>  0.0004  0.0017  0.0000 </r>
        <r>  0.0001  0.0024  0.0000 </r>
        <r>  0.0004  0.0017  0.0000 </r>
        <r>  0.0026  0.0020  0.0000 </r>
        <r>  0.0023  0.0088  0.0000 </r>
        <r>  0.0026  0.0020  0.0000 </r>
        <r>  0.0026  0.0020  0.0000 </r>
        <r>  0.0015  0.0034  0.0000 </r>
        <r>  0.0004  0.0017  0.0000 </r>
        <r>  0.0000  0.0010  0.0000 </r>
        <r>  0.0015  0.0034  0.0000 </r>
        <r>  0.0004  0.0017  0.0000 </r>
        <r>  0.0023  0.0088  0.0000 </r>
        <r>  0.0001  0.0024  0.0000 </r>
        <r>  0.0004  0.0017  0.0000 </r>
        <r>  0.0015  0.0034  0.0000 </r>
        <r>  0.0000  0.0010  0.0000 </r>
        <r>  0.0001  0.0024  0.0000 </r>
        <r>  0.0015  0.0034  0.0000 </r>
        <r>  0.0001  0.0024  0.0000 </r>
        <r>  0.0000  0.0020  0.0000 </r>
        <r>  0.0020  0.0030  0.0000 </r>
        <r>  0.0020  0.0030  0.0000 </r>
        <r>  0.0000  0.0018  0.0000 </r>
        <r>  0.0003  0.0112  0.0000 </r>
        <r>  0.0020  0.0030  0.0000 </r>
        <r>  0.0000  0.0018  0.0000 </r>
        <r>  0.0020  0.0030  0.0000 </r>
        <r>  0.0009  0.0049  0.0000 </r>
        <r>  0.0020  0.0030  0.0000 </r>
        <r>  0.0003  0.0112  0.0000 </r>
        <r>  0.0000  0.0018  0.0000 </r>
        <r>  0.0003  0.0112  0.0000 </r>
        <r>  0.0003  0.0112  0.0000 </r>
        <r>  0.0004  0.0004  0.0000 </r>
        <r>  0.0020  0.0030  0.0000 </r>
        <r>  0.0011  0.0071  0.0000 </r>
        <r>  0.0004  0.0004  0.0000 </r>
        <r>  0.0020  0.0030  0.0000 </r>
        <r>  0.0000  0.0018  0.0000 </r>
        <r>  0.0009  0.0049  0.0000 </r>
        <r>  0.0020  0.0030  0.0000 </r>
        <r>  0.0004  0.0004  0.0000 </r>
        <r>  0.0011  0.0071  0.0000 </r>
        <r>  0.0009  0.0049  0.0000 </r>
        <r>  0.0004  0.0004  0.0000 </r>
        <r>  0.0009  0.0049  0.0000 </r>
        <r>  0.0002  0.0000  0.0000 </r>
       </set>
       <set comment="band 143">
        <r>  0.0000  0.0146  0.0000 </r>
        <r>  0.0000  0.0054  0.0000 </r>
        <r>  0.0000  0.0054  0.0000 </r>
        <r>  0.0004  0.0037  0.0000 </r>
        <r>  0.0005  0.0021  0.0000 </r>
        <r>  0.0000  0.0054  0.0000 </r>
        <r>  0.0004  0.0037  0.0000 </r>
        <r>  0.0000  0.0054  0.0000 </r>
        <r>  0.0001  0.0007  0.0000 </r>
        <r>  0.0000  0.0054  0.0000 </r>
        <r>  0.0005  0.0021  0.0000 </r>
        <r>  0.0004  0.0037  0.0000 </r>
        <r>  0.0005  0.0021  0.0000 </r>
        <r>  0.0005  0.0021  0.0000 </r>
        <r>  0.0002  0.0064  0.0000 </r>
        <r>  0.0000  0.0054  0.0000 </r>
        <r>  0.0007  0.0085  0.0000 </r>
        <r>  0.0002  0.0064  0.0000 </r>
        <r>  0.0000  0.0054  0.0000 </r>
        <r>  0.0004  0.0037  0.0000 </r>
        <r>  0.0001  0.0007  0.0000 </r>
        <r>  0.0000  0.0054  0.0000 </r>
        <r>  0.0002  0.0064  0.0000 </r>
        <r>  0.0007  0.0085  0.0000 </r>
        <r>  0.0001  0.0007  0.0000 </r>
        <r>  0.0002  0.0064  0.0000 </r>
        <r>  0.0001  0.0007  0.0000 </r>
        <r>  0.0000  0.0017  0.0000 </r>
        <r>  0.0017  0.0025  0.0000 </r>
        <r>  0.0017  0.0025  0.0000 </r>
        <r>  0.0002  0.0004  0.0000 </r>
        <r>  0.0027  0.0011  0.0000 </r>
        <r>  0.0017  0.0025  0.0000 </r>
        <r>  0.0002  0.0004  0.0000 </r>
        <r>  0.0017  0.0025  0.0000 </r>
        <r>  0.0008  0.0012  0.0000 </r>
        <r>  0.0017  0.0025  0.0000 </r>
        <r>  0.0027  0.0011  0.0000 </r>
        <r>  0.0002  0.0004  0.0000 </r>
        <r>  0.0027  0.0011  0.0000 </r>
        <r>  0.0027  0.0011  0.0000 </r>
        <r>  0.0014  0.0032  0.0000 </r>
        <r>  0.0017  0.0025  0.0000 </r>
        <r>  0.0000  0.0108  0.0000 </r>
        <r>  0.0014  0.0032  0.0000 </r>
        <r>  0.0017  0.0025  0.0000 </r>
        <r>  0.0002  0.0004  0.0000 </r>
        <r>  0.0008  0.0012  0.0000 </r>
        <r>  0.0017  0.0025  0.0000 </r>
        <r>  0.0014  0.0032  0.0000 </r>
        <r>  0.0000  0.0108  0.0000 </r>
        <r>  0.0008  0.0012  0.0000 </r>
        <r>  0.0014  0.0032  0.0000 </r>
        <r>  0.0008  0.0012  0.0000 </r>
        <r>  0.0000  0.0006  0.0000 </r>
       </set>
       <set comment="band 144">
        <r>  0.0050  0.0000  0.0000 </r>
        <r>  0.0000  0.0067  0.0000 </r>
        <r>  0.0000  0.0067  0.0000 </r>
        <r>  0.0007  0.0054  0.0000 </r>
        <r>  0.0006  0.0016  0.0000 </r>
        <r>  0.0000  0.0067  0.0000 </r>
        <r>  0.0008  0.0055  0.0000 </r>
        <r>  0.0000  0.0067  0.0000 </r>
        <r>  0.0001  0.0021  0.0000 </r>
        <r>  0.0000  0.0067  0.0000 </r>
        <r>  0.0006  0.0016  0.0000 </r>
        <r>  0.0008  0.0054  0.0000 </r>
        <r>  0.0006  0.0016  0.0000 </r>
        <r>  0.0006  0.0016  0.0000 </r>
        <r>  0.0002  0.0098  0.0000 </r>
        <r>  0.0000  0.0068  0.0000 </r>
        <r>  0.0015  0.0002  0.0000 </r>
        <r>  0.0002  0.0097  0.0000 </r>
        <r>  0.0000  0.0067  0.0000 </r>
        <r>  0.0007  0.0054  0.0000 </r>
        <r>  0.0001  0.0022  0.0000 </r>
        <r>  0.0000  0.0066  0.0000 </r>
        <r>  0.0002  0.0098  0.0000 </r>
        <r>  0.0015  0.0002  0.0000 </r>
        <r>  0.0001  0.0022  0.0000 </r>
        <r>  0.0002  0.0098  0.0000 </r>
        <r>  0.0001  0.0022  0.0000 </r>
        <r>  0.0000  0.0006  0.0000 </r>
        <r>  0.0005  0.0062  0.0000 </r>
        <r>  0.0004  0.0062  0.0000 </r>
        <r>  0.0021  0.0012  0.0000 </r>
        <r>  0.0006  0.0028  0.0000 </r>
        <r>  0.0004  0.0062  0.0000 </r>
        <r>  0.0021  0.0012  0.0000 </r>
        <r>  0.0005  0.0062  0.0000 </r>
        <r>  0.0032  0.0030  0.0000 </r>
        <r>  0.0005  0.0062  0.0000 </r>
        <r>  0.0006  0.0029  0.0000 </r>
        <r>  0.0022  0.0011  0.0000 </r>
        <r>  0.0006  0.0028  0.0000 </r>
        <r>  0.0006  0.0029  0.0000 </r>
        <r>  0.0007  0.0035  0.0000 </r>
        <r>  0.0004  0.0062  0.0000 </r>
        <r>  0.0000  0.0003  0.0000 </r>
        <r>  0.0007  0.0035  0.0000 </r>
        <r>  0.0005  0.0062  0.0000 </r>
        <r>  0.0021  0.0012  0.0000 </r>
        <r>  0.0032  0.0030  0.0000 </r>
        <r>  0.0005  0.0062  0.0000 </r>
        <r>  0.0007  0.0036  0.0000 </r>
        <r>  0.0000  0.0002  0.0000 </r>
        <r>  0.0032  0.0030  0.0000 </r>
        <r>  0.0007  0.0035  0.0000 </r>
        <r>  0.0032  0.0030  0.0000 </r>
        <r>  0.0000  0.0008  0.0000 </r>
       </set>
      </set>
     </set>
    </set>
   </array>
  </projected>
 </calculation>
 <structure name="finalpos" >
  <crystal>
   <varray name="basis" >
    <v>       9.97646553       0.00000000       5.75991507 </v>
    <v>       3.32548851       9.40590192       5.75991507 </v>
    <v>       0.00000000       0.00000000      11.51983014 </v>
   </varray>
   <i name="volume">   1080.99386112 </i>
   <varray name="rec_basis" >
    <v>       0.10023590      -0.03543874       0.00000000 </v>
    <v>       0.00000000       0.10631623       0.00000000 </v>
    <v>      -0.05011795      -0.03543874       0.08680684 </v>
   </varray>
  </crystal>
  <varray name="positions" >
   <v>       0.29166667       0.29166667       0.29166667 </v>
   <v>       0.29093777       0.29093777       0.62410686 </v>
   <v>       0.29093777       0.29093777       0.96068426 </v>
   <v>       0.29093777       0.62410686       0.29093777 </v>
   <v>       0.28156374       0.62836764       0.62836764 </v>
   <v>       0.29093777       0.62410686       0.96068426 </v>
   <v>       0.29093777       0.96068426       0.29093777 </v>
   <v>       0.29093777       0.96068426       0.62410686 </v>
   <v>       0.29136438       0.95843410       0.95843410 </v>
   <v>       0.62410686       0.29093777       0.29093777 </v>
   <v>       0.62836764       0.28156374       0.62836764 </v>
   <v>       0.62410686       0.29093777       0.96068426 </v>
   <v>       0.62836764       0.62836764       0.28156374 </v>
   <v>       0.62836764       0.62836764       0.62836764 </v>
   <v>       0.62407199       0.62407199       0.95926134 </v>
   <v>       0.62410686       0.96068426       0.29093777 </v>
   <v>       0.62407199       0.95926134       0.62407199 </v>
   <v>       0.62407199       0.95926134       0.95926134 </v>
   <v>       0.96068426       0.29093777       0.29093777 </v>
   <v>       0.96068426       0.29093777       0.62410686 </v>
   <v>       0.95843410       0.29136438       0.95843410 </v>
   <v>       0.96068426       0.62410686       0.29093777 </v>
   <v>       0.95926134       0.62407199       0.62407199 </v>
   <v>       0.95926134       0.62407199       0.95926134 </v>
   <v>       0.95843410       0.95843410       0.29136438 </v>
   <v>       0.95926134       0.95926134       0.62407199 </v>
   <v>       0.95843410       0.95843410       0.95843410 </v>
   <v>       0.04166667       0.04166667       0.04166667 </v>
   <v>       0.04126736       0.04126736       0.37508305 </v>
   <v>       0.04126736       0.04126736       0.70904891 </v>
   <v>       0.04126736       0.37508305       0.04126736 </v>
   <v>       0.04216994       0.37483224       0.37483224 </v>
   <v>       0.04126736       0.37508305       0.70904891 </v>
   <v>       0.04126736       0.70904891       0.04126736 </v>
   <v>       0.04126736       0.70904891       0.37508305 </v>
   <v>       0.03270571       0.71132032       0.71132032 </v>
   <v>       0.37508305       0.04126736       0.04126736 </v>
   <v>       0.37483224       0.04216994       0.37483224 </v>
   <v>       0.37508305       0.04126736       0.70904891 </v>
   <v>       0.37483224       0.37483224       0.04216994 </v>
   <v>       0.37483224       0.37483224       0.37483224 </v>
   <v>       0.37257414       0.37257414       0.71075919 </v>
   <v>       0.37508305       0.70904891       0.04126736 </v>
   <v>       0.37257414       0.71075919       0.37257414 </v>
   <v>       0.37257414       0.71075919       0.71075919 </v>
   <v>       0.70904891       0.04126736       0.04126736 </v>
   <v>       0.70904891       0.04126736       0.37508305 </v>
   <v>       0.71132032       0.03270571       0.71132032 </v>
   <v>       0.70904891       0.37508305       0.04126736 </v>
   <v>       0.71075919       0.37257414       0.37257414 </v>
   <v>       0.71075919       0.37257414       0.71075919 </v>
   <v>       0.71132032       0.71132032       0.03270571 </v>
   <v>       0.71075919       0.71075919       0.37257414 </v>
   <v>       0.71132032       0.71132032       0.71132032 </v>
   <v>       0.54166667       0.54166667       0.54166667 </v>
  </varray>
 </structure>
</modeling>
