<?xml version="1.0" encoding="ISO-8859-1"?>
<modeling>
 <generator>
  <i name="program" type="string">vasp </i>
  <i name="version" type="string">5.4.4.18Apr17-6-g9f103f2a35  </i>
  <i name="subversion" type="string">(build Jun 19 2019 10:34:07) complex            parallel </i>
  <i name="platform" type="string">LB-5.4 </i>
  <i name="date" type="string">2023 05 15 </i>
  <i name="time" type="string">18:33:00 </i>
 </generator>
 <incar>
  <i type="string" name="SYSTEM"> Si</i>
  <i type="string" name="PREC">normal</i>
  <i type="string" name="ALGO"> Normal</i>
  <i type="int" name="ISPIN">     1</i>
  <i name="AMIX">      0.20000000</i>
  <i type="int" name="NELM">   200</i>
  <i type="int" name="IBRION">     2</i>
  <i name="EDIFF">      0.00000100</i>
  <i name="EDIFFG">     -0.05000000</i>
  <i type="int" name="NSW">     0</i>
  <i type="int" name="ISIF">     2</i>
  <i type="int" name="ISYM">     2</i>
  <i name="ENCUT">    550.00000000</i>
  <i name="NELECT">    219.00000000</i>
  <i type="logical" name="LREAL"> F  </i>
  <i type="int" name="ISMEAR">     0</i>
  <i name="SIGMA">      0.05000000</i>
  <i type="logical" name="LWAVE"> T  </i>
  <i type="logical" name="LCHARG"> T  </i>
  <i type="int" name="LORBIT">    10</i>
  <v type="int" name="KPOINT_BSE">    -1     0     0     0</v>
  <i type="int" name="NELM">   200</i>
 </incar>
 <structure name="primitive_cell" >
  <crystal>
   <varray name="basis" >
    <v>       9.97646553       0.00000000       5.75991507 </v>
    <v>       3.32548851       9.40590192       5.75991507 </v>
    <v>       0.00000000       0.00000000      11.51983014 </v>
   </varray>
   <i name="volume">   1080.99386112 </i>
   <varray name="rec_basis" >
    <v>       0.10023590      -0.03543874       0.00000000 </v>
    <v>       0.00000000       0.10631623       0.00000000 </v>
    <v>      -0.05011795      -0.03543874       0.08680684 </v>
   </varray>
  </crystal>
  <varray name="positions" >
   <v>       0.29166667       0.29166667       0.29166667 </v>
   <v>       0.04166667       0.37500000       0.37500000 </v>
   <v>       0.37500000       0.37500000       0.04166667 </v>
   <v>       0.37500000       0.37500000       0.37500000 </v>
   <v>       0.37500000       0.04166667       0.37500000 </v>
   <v>      -0.04166667       0.29166667       0.29166667 </v>
   <v>      -0.37500000       0.29166667      -0.04166667 </v>
   <v>      -0.04166667       0.29166667      -0.37500000 </v>
   <v>      -0.37500000       0.29166667       0.29166667 </v>
   <v>      -0.37500000      -0.04166667       0.29166667 </v>
   <v>      -0.04166667      -0.37500000       0.29166667 </v>
   <v>       0.29166667      -0.04166667       0.29166667 </v>
   <v>       0.29166667      -0.37500000      -0.04166667 </v>
   <v>       0.29166667      -0.04166667      -0.37500000 </v>
   <v>       0.29166667      -0.37500000       0.29166667 </v>
   <v>       0.29166667       0.29166667      -0.04166667 </v>
   <v>       0.29166667       0.29166667      -0.37500000 </v>
   <v>      -0.29166667       0.37500000       0.04166667 </v>
   <v>       0.04166667       0.04166667       0.37500000 </v>
   <v>      -0.29166667       0.04166667       0.04166667 </v>
   <v>       0.04166667       0.04166667      -0.29166667 </v>
   <v>      -0.29166667       0.04166667       0.37500000 </v>
   <v>       0.37500000      -0.29166667       0.04166667 </v>
   <v>       0.04166667       0.37500000       0.04166667 </v>
   <v>       0.04166667       0.37500000      -0.29166667 </v>
   <v>       0.04166667      -0.29166667       0.04166667 </v>
   <v>       0.04166667      -0.29166667       0.37500000 </v>
   <v>       0.37500000       0.04166667       0.04166667 </v>
   <v>       0.37500000       0.04166667      -0.29166667 </v>
   <v>      -0.04166667      -0.04166667      -0.37500000 </v>
   <v>      -0.37500000      -0.37500000      -0.04166667 </v>
   <v>      -0.37500000      -0.04166667      -0.04166667 </v>
   <v>      -0.04166667      -0.37500000      -0.04166667 </v>
   <v>      -0.37500000      -0.04166667      -0.37500000 </v>
   <v>      -0.04166667      -0.37500000      -0.37500000 </v>
   <v>      -0.29166667       0.37500000       0.37500000 </v>
   <v>      -0.29166667       0.37500000      -0.29166667 </v>
   <v>      -0.29166667      -0.29166667       0.37500000 </v>
   <v>       0.37500000      -0.29166667      -0.29166667 </v>
   <v>       0.37500000      -0.29166667       0.37500000 </v>
   <v>       0.37500000       0.37500000      -0.29166667 </v>
   <v>      -0.37500000       0.29166667      -0.37500000 </v>
   <v>      -0.04166667       0.29166667      -0.04166667 </v>
   <v>      -0.37500000      -0.37500000       0.29166667 </v>
   <v>      -0.04166667      -0.04166667      -0.04166667 </v>
   <v>      -0.37500000      -0.37500000      -0.37500000 </v>
   <v>      -0.04166667      -0.04166667       0.29166667 </v>
   <v>       0.29166667      -0.37500000      -0.37500000 </v>
   <v>       0.29166667      -0.04166667      -0.04166667 </v>
   <v>      -0.45833333      -0.45833333      -0.45833333 </v>
   <v>      -0.29166667       0.04166667      -0.29166667 </v>
   <v>       0.04166667       0.04166667       0.04166667 </v>
   <v>      -0.29166667      -0.29166667      -0.29166667 </v>
   <v>      -0.29166667      -0.29166667       0.04166667 </v>
   <v>       0.04166667      -0.29166667      -0.29166667 </v>
  </varray>
 </structure>
 <varray name="primitive_index" >
  <v type="int" >        1 </v>
  <v type="int" >       32 </v>
  <v type="int" >       40 </v>
  <v type="int" >       41 </v>
  <v type="int" >       38 </v>
  <v type="int" >       19 </v>
  <v type="int" >       12 </v>
  <v type="int" >       20 </v>
  <v type="int" >       10 </v>
  <v type="int" >       16 </v>
  <v type="int" >       22 </v>
  <v type="int" >        7 </v>
  <v type="int" >        6 </v>
  <v type="int" >        8 </v>
  <v type="int" >        4 </v>
  <v type="int" >        3 </v>
  <v type="int" >        2 </v>
  <v type="int" >       49 </v>
  <v type="int" >       29 </v>
  <v type="int" >       46 </v>
  <v type="int" >       30 </v>
  <v type="int" >       47 </v>
  <v type="int" >       43 </v>
  <v type="int" >       31 </v>
  <v type="int" >       33 </v>
  <v type="int" >       34 </v>
  <v type="int" >       35 </v>
  <v type="int" >       37 </v>
  <v type="int" >       39 </v>
  <v type="int" >       26 </v>
  <v type="int" >       15 </v>
  <v type="int" >       18 </v>
  <v type="int" >       24 </v>
  <v type="int" >       17 </v>
  <v type="int" >       23 </v>
  <v type="int" >       50 </v>
  <v type="int" >       51 </v>
  <v type="int" >       53 </v>
  <v type="int" >       45 </v>
  <v type="int" >       44 </v>
  <v type="int" >       42 </v>
  <v type="int" >       11 </v>
  <v type="int" >       21 </v>
  <v type="int" >       13 </v>
  <v type="int" >       27 </v>
  <v type="int" >       14 </v>
  <v type="int" >       25 </v>
  <v type="int" >        5 </v>
  <v type="int" >        9 </v>
  <v type="int" >       55 </v>
  <v type="int" >       48 </v>
  <v type="int" >       28 </v>
  <v type="int" >       54 </v>
  <v type="int" >       52 </v>
  <v type="int" >       36 </v>
 </varray>
 <kpoints>
  <generation param="Gamma">
   <v type="int" name="divisions">       4        4        4 </v>
   <v name="usershift">      0.00000000       0.00000000       0.00000000 </v>
   <v name="genvec1">      0.25000000       0.00000000       0.00000000 </v>
   <v name="genvec2">      0.00000000       0.25000000       0.00000000 </v>
   <v name="genvec3">     -0.00000000      -0.00000000       0.25000000 </v>
   <v name="shift">      0.00000000       0.00000000       0.00000000 </v>
  </generation>
  <varray name="kpointlist" >
   <v>       0.00000000       0.00000000       0.00000000 </v>
   <v>       0.25000000       0.00000000       0.00000000 </v>
   <v>       0.50000000       0.00000000       0.00000000 </v>
   <v>       0.25000000       0.25000000       0.00000000 </v>
   <v>       0.50000000       0.25000000       0.00000000 </v>
   <v>      -0.25000000       0.25000000       0.00000000 </v>
   <v>       0.50000000       0.50000000       0.00000000 </v>
   <v>      -0.25000000       0.50000000       0.25000000 </v>
  </varray>
  <varray name="weights" >
   <v>       0.01562500 </v>
   <v>       0.12500000 </v>
   <v>       0.06250000 </v>
   <v>       0.09375000 </v>
   <v>       0.37500000 </v>
   <v>       0.18750000 </v>
   <v>       0.04687500 </v>
   <v>       0.09375000 </v>
  </varray>
 </kpoints>
 <parameters>
  <separator name="general" >
   <i type="string" name="SYSTEM">Si</i>
   <i type="logical" name="LCOMPAT"> F  </i>
  </separator>
  <separator name="electronic" >
   <i type="string" name="PREC">normal</i>
   <i name="ENMAX">    550.00000000</i>
   <i name="ENAUG">    322.06900000</i>
   <i name="EDIFF">      0.00000100</i>
   <i type="int" name="IALGO">    38</i>
   <i type="int" name="IWAVPR">    10</i>
   <i type="int" name="NBANDS">   144</i>
   <i name="NELECT">    219.00000000</i>
   <i type="int" name="TURBO">     0</i>
   <i type="int" name="IRESTART">     0</i>
   <i type="int" name="NREBOOT">     0</i>
   <i type="int" name="NMIN">     0</i>
   <i name="EREF">      0.00000000</i>
   <separator name="electronic smearing" >
    <i type="int" name="ISMEAR">     0</i>
    <i name="SIGMA">      0.05000000</i>
    <i name="KSPACING">      0.50000000</i>
    <i type="logical" name="KGAMMA"> T  </i>
   </separator>
   <separator name="electronic projectors" >
    <i type="logical" name="LREAL"> F  </i>
    <v name="ROPT">      0.00000000</v>
    <i type="int" name="LMAXPAW">  -100</i>
    <i type="int" name="LMAXMIX">     2</i>
    <i type="logical" name="NLSPLINE"> F  </i>
   </separator>
   <separator name="electronic startup" >
    <i type="int" name="ISTART">     0</i>
    <i type="int" name="ICHARG">     2</i>
    <i type="int" name="INIWAV">     1</i>
   </separator>
   <separator name="electronic spin" >
    <i type="int" name="ISPIN">     1</i>
    <i type="logical" name="LNONCOLLINEAR"> F  </i>
    <v name="MAGMOM">      1.00000000      1.00000000      1.00000000      1.00000000      1.00000000      1.00000000      1.00000000      1.00000000      1.00000000      1.00000000      1.00000000      1.00000000      1.00000000      1.00000000      1.00000000      1.00000000      1.00000000      1.00000000      1.00000000      1.00000000
      1.00000000      1.00000000      1.00000000      1.00000000      1.00000000      1.00000000      1.00000000      1.00000000      1.00000000      1.00000000      1.00000000      1.00000000      1.00000000      1.00000000      1.00000000      1.00000000      1.00000000      1.00000000      1.00000000      1.00000000
      1.00000000      1.00000000      1.00000000      1.00000000      1.00000000      1.00000000      1.00000000      1.00000000      1.00000000      1.00000000      1.00000000      1.00000000      1.00000000      1.00000000      1.00000000</v>
    <i name="NUPDOWN">     -1.00000000</i>
    <i type="logical" name="LSORBIT"> F  </i>
    <v name="SAXIS">      0.00000000      0.00000000      1.00000000</v>
    <i type="logical" name="LSPIRAL"> F  </i>
    <v name="QSPIRAL">      0.00000000      0.00000000      0.00000000</v>
    <i type="logical" name="LZEROZ"> F  </i>
   </separator>
   <separator name="electronic exchange-correlation" >
    <i type="logical" name="LASPH"> F  </i>
    <i type="logical" name="LMETAGGA"> F  </i>
   </separator>
   <separator name="electronic convergence" >
    <i type="int" name="NELM">   200</i>
    <i type="int" name="NELMDL">    -5</i>
    <i type="int" name="NELMIN">     2</i>
    <i name="ENINI">    550.00000000</i>
    <separator name="electronic convergence detail" >
     <i type="logical" name="LDIAG"> T  </i>
     <i type="logical" name="LSUBROT"> F  </i>
     <i name="WEIMIN">      0.00000000</i>
     <i name="EBREAK">      0.00000000</i>
     <i name="DEPER">      0.30000000</i>
     <i type="int" name="NRMM">     4</i>
     <i name="TIME">      0.40000000</i>
    </separator>
   </separator>
   <separator name="electronic mixer" >
    <i name="AMIX">      0.20000000</i>
    <i name="BMIX">      1.00000000</i>
    <i name="AMIN">      0.10000000</i>
    <i name="AMIX_MAG">      0.80000000</i>
    <i name="BMIX_MAG">      1.00000000</i>
    <separator name="electronic mixer details" >
     <i type="int" name="IMIX">     4</i>
     <i type="logical" name="MIXFIRST"> F  </i>
     <i type="int" name="MAXMIX">   -45</i>
     <i name="WC">    100.00000000</i>
     <i type="int" name="INIMIX">     1</i>
     <i type="int" name="MIXPRE">     1</i>
     <i type="int" name="MREMOVE">     5</i>
    </separator>
   </separator>
   <separator name="electronic dipolcorrection" >
    <i type="logical" name="LDIPOL"> F  </i>
    <i type="logical" name="LMONO"> F  </i>
    <i type="int" name="IDIPOL">     0</i>
    <i name="EPSILON">      1.00000000</i>
    <v name="DIPOL">   -100.00000000   -100.00000000   -100.00000000</v>
    <i name="EFIELD">      0.00000000</i>
   </separator>
  </separator>
  <separator name="grids" >
   <i type="int" name="NGX">    70</i>
   <i type="int" name="NGY">    70</i>
   <i type="int" name="NGZ">    70</i>
   <i type="int" name="NGXF">   140</i>
   <i type="int" name="NGYF">   140</i>
   <i type="int" name="NGZF">   140</i>
   <i type="logical" name="ADDGRID"> F  </i>
  </separator>
  <separator name="ionic" >
   <i type="int" name="NSW">     0</i>
   <i type="int" name="IBRION">    -1</i>
   <i type="int" name="MDALGO">     0</i>
   <i type="int" name="ISIF">     2</i>
   <i name="PSTRESS">      0.00000000</i>
   <i name="EDIFFG">     -0.05000000</i>
   <i type="int" name="NFREE">     1</i>
   <i name="POTIM">      0.50000000</i>
   <i name="SMASS">     -3.00000000</i>
   <i name="SCALEE">      1.00000000</i>
  </separator>
  <separator name="ionic md" >
   <i name="TEBEG">      0.00010000</i>
   <i name="TEEND">      0.00010000</i>
   <i type="int" name="NBLOCK">     1</i>
   <i type="int" name="KBLOCK">     1</i>
   <i type="int" name="NPACO">   256</i>
   <i name="APACO">     16.00000000</i>
  </separator>
  <separator name="symmetry" >
   <i type="int" name="ISYM">     2</i>
   <i name="SYMPREC">      0.00001000</i>
  </separator>
  <separator name="dos" >
   <i type="int" name="LORBIT">    10</i>
   <v name="RWIGS">     -1.00000000</v>
   <i type="int" name="NEDOS">   301</i>
   <i name="EMIN">     10.00000000</i>
   <i name="EMAX">    -10.00000000</i>
   <i name="EFERMI">      0.00000000</i>
  </separator>
  <separator name="writing" >
   <i type="int" name="NWRITE">     2</i>
   <i type="logical" name="LWAVE"> T  </i>
   <i type="logical" name="LDOWNSAMPLE"> F  </i>
   <i type="logical" name="LCHARG"> T  </i>
   <i type="logical" name="LPARD"> F  </i>
   <i type="logical" name="LVTOT"> F  </i>
   <i type="logical" name="LVHAR"> F  </i>
   <i type="logical" name="LELF"> F  </i>
   <i type="logical" name="LOPTICS"> F  </i>
   <v name="STM">      0.00000000      0.00000000      0.00000000      0.00000000      0.00000000      0.00000000      0.00000000</v>
  </separator>
  <separator name="performance" >
   <i type="int" name="NPAR">    24</i>
   <i type="int" name="NSIM">     4</i>
   <i type="int" name="NBLK">    -1</i>
   <i type="logical" name="LPLANE"> T  </i>
   <i type="logical" name="LSCALAPACK"> T  </i>
   <i type="logical" name="LSCAAWARE"> F  </i>
   <i type="logical" name="LSCALU"> F  </i>
   <i type="logical" name="LASYNC"> F  </i>
   <i type="logical" name="LORBITALREAL"> F  </i>
  </separator>
  <separator name="miscellaneous" >
   <i type="int" name="IDIOT">     3</i>
   <i type="int" name="ISPECIAL">     0</i>
   <i type="logical" name="LMUSIC"> F  </i>
   <v name="POMASS">     28.08500000</v>
   <v name="DARWINR">      0.00000000</v>
   <v name="DARWINV">      1.00000000</v>
   <i type="logical" name="LCORR"> T  </i>
  </separator>
  <i type="logical" name="GGA_COMPAT"> T  </i>
  <i type="logical" name="LBERRY"> F  </i>
  <i type="int" name="ICORELEVEL">     0</i>
  <i type="logical" name="LDAU"> F  </i>
  <i type="int" name="I_CONSTRAINED_M">     0</i>
  <separator name="electronic exchange-correlation" >
   <i type="string" name="GGA">--</i>
   <i type="int" name="VOSKOWN">     0</i>
   <i type="logical" name="LHFCALC"> F  </i>
   <i type="string" name="PRECFOCK"></i>
   <i type="logical" name="LSYMGRAD"> F  </i>
   <i type="logical" name="LHFONE"> F  </i>
   <i type="logical" name="LRHFCALC"> F  </i>
   <i type="logical" name="LTHOMAS"> F  </i>
   <i type="logical" name="LMODELHF"> F  </i>
   <i name="ENCUT4O">     -1.00000000</i>
   <i type="int" name="EXXOEP">     0</i>
   <i type="int" name="FOURORBIT">     0</i>
   <i name="AEXX">      0.00000000</i>
   <i name="HFALPHA">      0.00000000</i>
   <i name="MCALPHA">      0.00000000</i>
   <i name="ALDAX">      1.00000000</i>
   <i name="AGGAX">      1.00000000</i>
   <i name="ALDAC">      1.00000000</i>
   <i name="AGGAC">      1.00000000</i>
   <i type="int" name="NKREDX">     1</i>
   <i type="int" name="NKREDY">     1</i>
   <i type="int" name="NKREDZ">     1</i>
   <i type="logical" name="SHIFTRED"> F  </i>
   <i type="logical" name="ODDONLY"> F  </i>
   <i type="logical" name="EVENONLY"> F  </i>
   <i type="int" name="LMAXFOCK">     0</i>
   <i type="int" name="NMAXFOCKAE">     0</i>
   <i type="logical" name="LFOCKAEDFT"> F  </i>
   <i name="HFSCREEN">      0.00000000</i>
   <i name="HFSCREENC">      0.00000000</i>
   <i type="int" name="NBANDSGWLOW">     0</i>
  </separator>
  <separator name="vdW DFT" >
   <i type="logical" name="LUSE_VDW"> F  </i>
   <i name="Zab_VDW">     -0.84910000</i>
   <i name="PARAM1">      0.12340000</i>
   <i name="PARAM2">      1.00000000</i>
   <i name="PARAM3">      0.00000000</i>
  </separator>
  <separator name="model GW" >
   <i type="int" name="MODEL_GW">     0</i>
   <i name="MODEL_EPS0">     11.79266030</i>
   <i name="MODEL_ALPHA">      1.00000000</i>
  </separator>
  <separator name="linear response parameters" >
   <i type="logical" name="LEPSILON"> F  </i>
   <i type="logical" name="LRPA"> F  </i>
   <i type="logical" name="LNABLA"> F  </i>
   <i type="logical" name="LVEL"> F  </i>
   <i type="int" name="KINTER">     0</i>
   <i name="CSHIFT">      0.10000000</i>
   <i name="OMEGAMAX">     -1.00000000</i>
   <i name="DEG_THRESHOLD">      0.00200000</i>
   <i name="RTIME">     -0.10000000</i>
   <i name="WPLASMAI">      0.00000000</i>
   <v name="DFIELD">      0.00000000      0.00000000      0.00000000</v>
   <v name="WPLASMA">      0.00000000      0.00000000      0.00000000      0.00000000      0.00000000      0.00000000      0.00000000      0.00000000      0.00000000</v>
  </separator>
  <separator name="orbital magnetization" >
   <i type="logical" name="NUCIND"> F  </i>
   <v name="MAGPOS">      0.00000000      0.00000000      0.00000000</v>
   <i type="logical" name="LNICSALL"> T  </i>
   <i type="logical" name="ORBITALMAG"> F  </i>
   <i type="logical" name="LMAGBLOCH"> F  </i>
   <i type="logical" name="LCHIMAG"> F  </i>
   <i type="logical" name="LGAUGE"> T  </i>
   <i type="int" name="MAGATOM">     0</i>
   <v name="MAGDIPOL">      0.00000000      0.00000000      0.00000000</v>
   <v name="AVECCONST">      0.00000000      0.00000000      0.00000000</v>
  </separator>
  <separator name="response functions" >
   <i type="logical" name="LADDER"> F  </i>
   <i type="logical" name="LRPAFORCE"> F  </i>
   <i type="logical" name="LFXC"> F  </i>
   <i type="logical" name="LHARTREE"> T  </i>
   <i type="int" name="IBSE">     0</i>
   <v type="int" name="KPOINT">    -1     0     0     0</v>
   <i type="logical" name="LTCTE"> F  </i>
   <i type="logical" name="LTETE"> F  </i>
   <i type="logical" name="LTRIPLET"> F  </i>
   <i type="logical" name="LFXCEPS"> F  </i>
   <i type="logical" name="LFXHEG"> F  </i>
   <i type="int" name="NATURALO">     2</i>
   <i type="logical" name="L2ORDER"> F  </i>
   <i type="logical" name="LMP2LT"> F  </i>
   <i type="logical" name="LUSEW"> F  </i>
   <i name="ENCUTGW">     -2.00000000</i>
   <i name="ENCUTGWSOFT">     -2.00000000</i>
   <i name="ENCUTLF">     -1.00000000</i>
   <i type="int" name="LMAXMP2">    -1</i>
   <i name="SCISSOR">      0.00000000</i>
   <i type="int" name="NOMEGA">     0</i>
   <i type="int" name="NOMEGAR">     0</i>
   <i type="int" name="NBANDSGW">    -1</i>
   <i type="int" name="NBANDSO">    -1</i>
   <i type="int" name="NBANDSV">    -1</i>
   <i type="int" name="NELM">   200</i>
   <i type="int" name="NELMHF">     1</i>
   <i type="int" name="DIM">     3</i>
   <i type="int" name="ANTIRES">     0</i>
   <i name="OMEGAMAX">    -30.00000000</i>
   <i name="OMEGAMIN">    -30.00000000</i>
   <i name="OMEGATL">   -200.00000000</i>
   <i type="int" name="OMEGAGRID">   140</i>
   <i name="CSHIFT">     -0.10000000</i>
   <i type="logical" name="SELFENERGY"> F  </i>
   <i type="logical" name="LSPECTRAL"> F  </i>
   <i type="logical" name="LSPECTRALGW"> F  </i>
   <i type="logical" name="LSINGLES"> F  </i>
   <i type="logical" name="LFERMIGW"> F  </i>
   <i type="logical" name="ODDONLYGW"> F  </i>
   <i type="logical" name="EVENONLYGW"> F  </i>
   <i type="int" name="NKREDLFX">     1</i>
   <i type="int" name="NKREDLFY">     1</i>
   <i type="int" name="NKREDLFZ">     1</i>
   <i type="int" name="MAXMEM">  2800</i>
   <i type="int" name="TELESCOPE">     0</i>
   <i type="int" name="TAUPAR">     1</i>
   <i type="int" name="OMEGAPAR">    -1</i>
   <i name="LAMBDA">      1.00000000</i>
  </separator>
  <separator name="External order field" >
   <i name="OFIELD_KAPPA">      0.00000000</i>
   <v name="OFIELD_K">      0.00000000      0.00000000      0.00000000</v>
   <i name="OFIELD_Q6_NEAR">      0.00000000</i>
   <i name="OFIELD_Q6_FAR">      0.00000000</i>
   <i name="OFIELD_A">      0.00000000</i>
  </separator>
 </parameters>
 <atominfo>
  <atoms>      55 </atoms>
  <types>       1 </types>
  <array name="atoms" >
   <dimension dim="1">ion</dimension>
   <field type="string">element</field>
   <field type="int">atomtype</field>
   <set>
    <rc><c>Si</c><c>   1</c></rc>
    <rc><c>Si</c><c>   1</c></rc>
    <rc><c>Si</c><c>   1</c></rc>
    <rc><c>Si</c><c>   1</c></rc>
    <rc><c>Si</c><c>   1</c></rc>
    <rc><c>Si</c><c>   1</c></rc>
    <rc><c>Si</c><c>   1</c></rc>
    <rc><c>Si</c><c>   1</c></rc>
    <rc><c>Si</c><c>   1</c></rc>
    <rc><c>Si</c><c>   1</c></rc>
    <rc><c>Si</c><c>   1</c></rc>
    <rc><c>Si</c><c>   1</c></rc>
    <rc><c>Si</c><c>   1</c></rc>
    <rc><c>Si</c><c>   1</c></rc>
    <rc><c>Si</c><c>   1</c></rc>
    <rc><c>Si</c><c>   1</c></rc>
    <rc><c>Si</c><c>   1</c></rc>
    <rc><c>Si</c><c>   1</c></rc>
    <rc><c>Si</c><c>   1</c></rc>
    <rc><c>Si</c><c>   1</c></rc>
    <rc><c>Si</c><c>   1</c></rc>
    <rc><c>Si</c><c>   1</c></rc>
    <rc><c>Si</c><c>   1</c></rc>
    <rc><c>Si</c><c>   1</c></rc>
    <rc><c>Si</c><c>   1</c></rc>
    <rc><c>Si</c><c>   1</c></rc>
    <rc><c>Si</c><c>   1</c></rc>
    <rc><c>Si</c><c>   1</c></rc>
    <rc><c>Si</c><c>   1</c></rc>
    <rc><c>Si</c><c>   1</c></rc>
    <rc><c>Si</c><c>   1</c></rc>
    <rc><c>Si</c><c>   1</c></rc>
    <rc><c>Si</c><c>   1</c></rc>
    <rc><c>Si</c><c>   1</c></rc>
    <rc><c>Si</c><c>   1</c></rc>
    <rc><c>Si</c><c>   1</c></rc>
    <rc><c>Si</c><c>   1</c></rc>
    <rc><c>Si</c><c>   1</c></rc>
    <rc><c>Si</c><c>   1</c></rc>
    <rc><c>Si</c><c>   1</c></rc>
    <rc><c>Si</c><c>   1</c></rc>
    <rc><c>Si</c><c>   1</c></rc>
    <rc><c>Si</c><c>   1</c></rc>
    <rc><c>Si</c><c>   1</c></rc>
    <rc><c>Si</c><c>   1</c></rc>
    <rc><c>Si</c><c>   1</c></rc>
    <rc><c>Si</c><c>   1</c></rc>
    <rc><c>Si</c><c>   1</c></rc>
    <rc><c>Si</c><c>   1</c></rc>
    <rc><c>Si</c><c>   1</c></rc>
    <rc><c>Si</c><c>   1</c></rc>
    <rc><c>Si</c><c>   1</c></rc>
    <rc><c>Si</c><c>   1</c></rc>
    <rc><c>Si</c><c>   1</c></rc>
    <rc><c>Si</c><c>   1</c></rc>
   </set>
  </array>
  <array name="atomtypes" >
   <dimension dim="1">type</dimension>
   <field type="int">atomspertype</field>
   <field type="string">element</field>
   <field>mass</field>
   <field>valence</field>
   <field type="string">pseudopotential</field>
   <set>
    <rc><c>  55</c><c>Si</c><c>     28.08500000</c><c>      4.00000000</c><c>  PAW_PBE Si 05Jan2001                  </c></rc>
   </set>
  </array>
 </atominfo>
 <structure name="initialpos" >
  <crystal>
   <varray name="basis" >
    <v>       9.97646553       0.00000000       5.75991507 </v>
    <v>       3.32548851       9.40590192       5.75991507 </v>
    <v>       0.00000000       0.00000000      11.51983014 </v>
   </varray>
   <i name="volume">   1080.99386112 </i>
   <varray name="rec_basis" >
    <v>       0.10023590      -0.03543874       0.00000000 </v>
    <v>       0.00000000       0.10631623       0.00000000 </v>
    <v>      -0.05011795      -0.03543874       0.08680684 </v>
   </varray>
  </crystal>
  <varray name="positions" >
   <v>       0.29166667       0.29166667       0.29166667 </v>
   <v>       0.29166667       0.29166667       0.62500000 </v>
   <v>       0.29166667       0.29166667       0.95833333 </v>
   <v>       0.29166667       0.62500000       0.29166667 </v>
   <v>       0.29166667       0.62500000       0.62500000 </v>
   <v>       0.29166667       0.62500000       0.95833333 </v>
   <v>       0.29166667       0.95833333       0.29166667 </v>
   <v>       0.29166667       0.95833333       0.62500000 </v>
   <v>       0.29166667       0.95833333       0.95833333 </v>
   <v>       0.62500000       0.29166667       0.29166667 </v>
   <v>       0.62500000       0.29166667       0.62500000 </v>
   <v>       0.62500000       0.29166667       0.95833333 </v>
   <v>       0.62500000       0.62500000       0.29166667 </v>
   <v>       0.62500000       0.62500000       0.62500000 </v>
   <v>       0.62500000       0.62500000       0.95833333 </v>
   <v>       0.62500000       0.95833333       0.29166667 </v>
   <v>       0.62500000       0.95833333       0.62500000 </v>
   <v>       0.62500000       0.95833333       0.95833333 </v>
   <v>       0.95833333       0.29166667       0.29166667 </v>
   <v>       0.95833333       0.29166667       0.62500000 </v>
   <v>       0.95833333       0.29166667       0.95833333 </v>
   <v>       0.95833333       0.62500000       0.29166667 </v>
   <v>       0.95833333       0.62500000       0.62500000 </v>
   <v>       0.95833333       0.62500000       0.95833333 </v>
   <v>       0.95833333       0.95833333       0.29166667 </v>
   <v>       0.95833333       0.95833333       0.62500000 </v>
   <v>       0.95833333       0.95833333       0.95833333 </v>
   <v>       0.04166667       0.04166667       0.04166667 </v>
   <v>       0.04166667       0.04166667       0.37500000 </v>
   <v>       0.04166667       0.04166667       0.70833333 </v>
   <v>       0.04166667       0.37500000       0.04166667 </v>
   <v>       0.04166667       0.37500000       0.37500000 </v>
   <v>       0.04166667       0.37500000       0.70833333 </v>
   <v>       0.04166667       0.70833333       0.04166667 </v>
   <v>       0.04166667       0.70833333       0.37500000 </v>
   <v>       0.04166667       0.70833333       0.70833333 </v>
   <v>       0.37500000       0.04166667       0.04166667 </v>
   <v>       0.37500000       0.04166667       0.37500000 </v>
   <v>       0.37500000       0.04166667       0.70833333 </v>
   <v>       0.37500000       0.37500000       0.04166667 </v>
   <v>       0.37500000       0.37500000       0.37500000 </v>
   <v>       0.37500000       0.37500000       0.70833333 </v>
   <v>       0.37500000       0.70833333       0.04166667 </v>
   <v>       0.37500000       0.70833333       0.37500000 </v>
   <v>       0.37500000       0.70833333       0.70833333 </v>
   <v>       0.70833333       0.04166667       0.04166667 </v>
   <v>       0.70833333       0.04166667       0.37500000 </v>
   <v>       0.70833333       0.04166667       0.70833333 </v>
   <v>       0.70833333       0.37500000       0.04166667 </v>
   <v>       0.70833333       0.37500000       0.37500000 </v>
   <v>       0.70833333       0.37500000       0.70833333 </v>
   <v>       0.70833333       0.70833333       0.04166667 </v>
   <v>       0.70833333       0.70833333       0.37500000 </v>
   <v>       0.70833333       0.70833333       0.70833333 </v>
   <v>       0.54166667       0.54166667       0.54166667 </v>
  </varray>
 </structure>
 <calculation>
  <scstep>
   <time name="dav">    3.61    3.65</time>
   <time name="total">    3.85    3.90</time>
   <energy>
    <i name="alphaZ">     94.20124788 </i>
    <i name="ewald">  -6283.32455330 </i>
    <i name="hartreedc">   -334.73833171 </i>
    <i name="XCdc">   -509.16019900 </i>
    <i name="pawpsdc">   4846.80897882 </i>
    <i name="pawaedc">  -3879.17847845 </i>
    <i name="eentropy">     -0.02008546 </i>
    <i name="bandstr">    973.80717421 </i>
    <i name="atom">   5668.65580356 </i>
    <i name="e_fr_energy">    577.05155656 </i>
    <i name="e_wo_entrp">    577.07164201 </i>
    <i name="e_0_energy">    577.06159929 </i>
   </energy>
  </scstep>
  <scstep>
   <time name="dav">    6.81    6.88</time>
   <time name="total">    7.24    7.32</time>
   <energy>
    <i name="e_fr_energy">   -253.35452035 </i>
    <i name="e_wo_entrp">   -253.34549084 </i>
    <i name="e_0_energy">   -253.35000560 </i>
   </energy>
  </scstep>
  <scstep>
   <time name="dav">    4.42    4.46</time>
   <time name="total">    4.42    4.47</time>
   <energy>
    <i name="e_fr_energy">   -304.14667349 </i>
    <i name="e_wo_entrp">   -304.13358172 </i>
    <i name="e_0_energy">   -304.14012761 </i>
   </energy>
  </scstep>
  <scstep>
   <time name="dav">    5.73    5.79</time>
   <time name="total">    6.18    6.25</time>
   <energy>
    <i name="e_fr_energy">   -305.29910369 </i>
    <i name="e_wo_entrp">   -305.28520870 </i>
    <i name="e_0_energy">   -305.29215619 </i>
   </energy>
  </scstep>
  <scstep>
   <time name="dav">    5.05    5.10</time>
   <time name="total">    5.79    5.85</time>
   <energy>
    <i name="e_fr_energy">   -305.32188943 </i>
    <i name="e_wo_entrp">   -305.30795109 </i>
    <i name="e_0_energy">   -305.31492026 </i>
   </energy>
  </scstep>
  <scstep>
   <time name="dav">    4.54    4.59</time>
   <time name="total">    5.44    5.50</time>
   <energy>
    <i name="e_fr_energy">   -303.63341813 </i>
    <i name="e_wo_entrp">   -303.61975949 </i>
    <i name="e_0_energy">   -303.62658881 </i>
   </energy>
  </scstep>
  <scstep>
   <time name="dav">    4.04    4.08</time>
   <time name="total">    5.38    5.44</time>
   <energy>
    <i name="e_fr_energy">   -300.71477367 </i>
    <i name="e_wo_entrp">   -300.70107381 </i>
    <i name="e_0_energy">   -300.70792374 </i>
   </energy>
  </scstep>
  <scstep>
   <time name="dav">    4.17    4.21</time>
   <time name="total">    5.14    5.20</time>
   <energy>
    <i name="e_fr_energy">   -300.71128372 </i>
    <i name="e_wo_entrp">   -300.69789381 </i>
    <i name="e_0_energy">   -300.70458876 </i>
   </energy>
  </scstep>
  <scstep>
   <time name="dav">    4.53    4.58</time>
   <time name="total">    5.55    5.61</time>
   <energy>
    <i name="e_fr_energy">   -300.71838592 </i>
    <i name="e_wo_entrp">   -300.70499805 </i>
    <i name="e_0_energy">   -300.71169199 </i>
   </energy>
  </scstep>
  <scstep>
   <time name="dav">    4.07    4.11</time>
   <time name="total">    4.48    4.51</time>
   <energy>
    <i name="e_fr_energy">   -300.72059324 </i>
    <i name="e_wo_entrp">   -300.70719824 </i>
    <i name="e_0_energy">   -300.71389574 </i>
   </energy>
  </scstep>
  <scstep>
   <time name="dav">    3.92    3.96</time>
   <time name="total">    4.77    4.82</time>
   <energy>
    <i name="e_fr_energy">   -300.72663755 </i>
    <i name="e_wo_entrp">   -300.71324009 </i>
    <i name="e_0_energy">   -300.71993882 </i>
   </energy>
  </scstep>
  <scstep>
   <time name="dav">    5.22    5.27</time>
   <time name="total">    5.79    5.85</time>
   <energy>
    <i name="e_fr_energy">   -300.72680475 </i>
    <i name="e_wo_entrp">   -300.71340618 </i>
    <i name="e_0_energy">   -300.72010547 </i>
   </energy>
  </scstep>
  <scstep>
   <time name="dav">    4.07    4.11</time>
   <time name="total">    4.87    4.92</time>
   <energy>
    <i name="e_fr_energy">   -300.72770133 </i>
    <i name="e_wo_entrp">   -300.71430284 </i>
    <i name="e_0_energy">   -300.72100209 </i>
   </energy>
  </scstep>
  <scstep>
   <time name="dav">    3.77    5.15</time>
   <time name="total">    4.77    6.17</time>
   <energy>
    <i name="e_fr_energy">   -300.72774709 </i>
    <i name="e_wo_entrp">   -300.71434420 </i>
    <i name="e_0_energy">   -300.72104565 </i>
   </energy>
  </scstep>
  <scstep>
   <time name="dav">    4.20    4.25</time>
   <time name="total">    5.20    5.26</time>
   <energy>
    <i name="e_fr_energy">   -300.72776555 </i>
    <i name="e_wo_entrp">   -300.71436144 </i>
    <i name="e_0_energy">   -300.72106350 </i>
   </energy>
  </scstep>
  <scstep>
   <time name="dav">    4.86    4.91</time>
   <time name="total">    5.25    5.31</time>
   <energy>
    <i name="e_fr_energy">   -300.72777703 </i>
    <i name="e_wo_entrp">   -300.71437117 </i>
    <i name="e_0_energy">   -300.72107410 </i>
   </energy>
  </scstep>
  <scstep>
   <time name="dav">    3.91    3.95</time>
   <time name="total">    4.18    4.21</time>
   <energy>
    <i name="e_fr_energy">   -300.72778268 </i>
    <i name="e_wo_entrp">   -300.71437691 </i>
    <i name="e_0_energy">   -300.72107979 </i>
   </energy>
  </scstep>
  <scstep>
   <time name="dav">    2.81    2.83</time>
   <time name="total">    3.09    3.11</time>
   <energy>
    <i name="e_fr_energy">   -300.72778382 </i>
    <i name="e_wo_entrp">   -300.71437803 </i>
    <i name="e_0_energy">   -300.72108093 </i>
   </energy>
  </scstep>
  <scstep>
   <time name="dav">    2.94    2.97</time>
   <time name="total">    3.03    3.06</time>
   <energy>
    <i name="alphaZ">     94.20124788 </i>
    <i name="ewald">  -6283.32455330 </i>
    <i name="hartreedc">   -437.14672564 </i>
    <i name="XCdc">   -495.21927841 </i>
    <i name="pawpsdc">  23966.23486682 </i>
    <i name="pawaedc"> -23004.48180484 </i>
    <i name="eentropy">     -0.01340541 </i>
    <i name="bandstr">    190.36606540 </i>
    <i name="atom">   5668.65580356 </i>
    <i name="e_fr_energy">   -300.72778394 </i>
    <i name="e_wo_entrp">   -300.71437853 </i>
    <i name="e_0_energy">   -300.72108123 </i>
   </energy>
  </scstep>
  <structure>
   <crystal>
    <varray name="basis" >
     <v>       9.97646553       0.00000000       5.75991507 </v>
     <v>       3.32548851       9.40590192       5.75991507 </v>
     <v>       0.00000000       0.00000000      11.51983014 </v>
    </varray>
    <i name="volume">   1080.99386112 </i>
    <varray name="rec_basis" >
     <v>       0.10023590      -0.03543874       0.00000000 </v>
     <v>       0.00000000       0.10631623       0.00000000 </v>
     <v>      -0.05011795      -0.03543874       0.08680684 </v>
    </varray>
   </crystal>
   <varray name="positions" >
    <v>       0.29166667       0.29166667       0.29166667 </v>
    <v>       0.29166667       0.29166667       0.62500000 </v>
    <v>       0.29166667       0.29166667       0.95833333 </v>
    <v>       0.29166667       0.62500000       0.29166667 </v>
    <v>       0.29166667       0.62500000       0.62500000 </v>
    <v>       0.29166667       0.62500000       0.95833333 </v>
    <v>       0.29166667       0.95833333       0.29166667 </v>
    <v>       0.29166667       0.95833333       0.62500000 </v>
    <v>       0.29166667       0.95833333       0.95833333 </v>
    <v>       0.62500000       0.29166667       0.29166667 </v>
    <v>       0.62500000       0.29166667       0.62500000 </v>
    <v>       0.62500000       0.29166667       0.95833333 </v>
    <v>       0.62500000       0.62500000       0.29166667 </v>
    <v>       0.62500000       0.62500000       0.62500000 </v>
    <v>       0.62500000       0.62500000       0.95833333 </v>
    <v>       0.62500000       0.95833333       0.29166667 </v>
    <v>       0.62500000       0.95833333       0.62500000 </v>
    <v>       0.62500000       0.95833333       0.95833333 </v>
    <v>       0.95833333       0.29166667       0.29166667 </v>
    <v>       0.95833333       0.29166667       0.62500000 </v>
    <v>       0.95833333       0.29166667       0.95833333 </v>
    <v>       0.95833333       0.62500000       0.29166667 </v>
    <v>       0.95833333       0.62500000       0.62500000 </v>
    <v>       0.95833333       0.62500000       0.95833333 </v>
    <v>       0.95833333       0.95833333       0.29166667 </v>
    <v>       0.95833333       0.95833333       0.62500000 </v>
    <v>       0.95833333       0.95833333       0.95833333 </v>
    <v>       0.04166667       0.04166667       0.04166667 </v>
    <v>       0.04166667       0.04166667       0.37500000 </v>
    <v>       0.04166667       0.04166667       0.70833333 </v>
    <v>       0.04166667       0.37500000       0.04166667 </v>
    <v>       0.04166667       0.37500000       0.37500000 </v>
    <v>       0.04166667       0.37500000       0.70833333 </v>
    <v>       0.04166667       0.70833333       0.04166667 </v>
    <v>       0.04166667       0.70833333       0.37500000 </v>
    <v>       0.04166667       0.70833333       0.70833333 </v>
    <v>       0.37500000       0.04166667       0.04166667 </v>
    <v>       0.37500000       0.04166667       0.37500000 </v>
    <v>       0.37500000       0.04166667       0.70833333 </v>
    <v>       0.37500000       0.37500000       0.04166667 </v>
    <v>       0.37500000       0.37500000       0.37500000 </v>
    <v>       0.37500000       0.37500000       0.70833333 </v>
    <v>       0.37500000       0.70833333       0.04166667 </v>
    <v>       0.37500000       0.70833333       0.37500000 </v>
    <v>       0.37500000       0.70833333       0.70833333 </v>
    <v>       0.70833333       0.04166667       0.04166667 </v>
    <v>       0.70833333       0.04166667       0.37500000 </v>
    <v>       0.70833333       0.04166667       0.70833333 </v>
    <v>       0.70833333       0.37500000       0.04166667 </v>
    <v>       0.70833333       0.37500000       0.37500000 </v>
    <v>       0.70833333       0.37500000       0.70833333 </v>
    <v>       0.70833333       0.70833333       0.04166667 </v>
    <v>       0.70833333       0.70833333       0.37500000 </v>
    <v>       0.70833333       0.70833333       0.70833333 </v>
    <v>       0.54166667       0.54166667       0.54166667 </v>
   </varray>
  </structure>
  <varray name="forces" >
   <v>      -0.00000000       0.00000000      -0.00000000 </v>
   <v>      -0.02637467      -0.01864971      -0.21994845 </v>
   <v>      -0.02637467      -0.01864971       0.21994845 </v>
   <v>      -0.07668098      -0.16093745      -0.13281536 </v>
   <v>      -1.04120559       0.36812177      -0.00000000 </v>
   <v>      -0.07668098      -0.16093745       0.13281536 </v>
   <v>       0.05030631       0.19823686       0.08713309 </v>
   <v>       0.05030631       0.19823686      -0.08713309 </v>
   <v>      -0.02887478       0.01020878      -0.00000000 </v>
   <v>      -0.17729361      -0.01864971      -0.13281536 </v>
   <v>      -0.00000000      -1.10436531      -0.00000000 </v>
   <v>      -0.17729361      -0.01864971       0.13281536 </v>
   <v>       0.52060280       0.36812177      -0.90171050 </v>
   <v>       0.52060280       0.36812177       0.90171050 </v>
   <v>      -0.13167471      -0.09310808      -0.00000000 </v>
   <v>      -0.10061263       0.19823686      -0.00000000 </v>
   <v>      -0.06583736       0.09310808      -0.11403365 </v>
   <v>      -0.06583736       0.09310808       0.11403365 </v>
   <v>       0.20366828      -0.01864971       0.08713309 </v>
   <v>       0.20366828      -0.01864971      -0.08713309 </v>
   <v>      -0.00000000      -0.03062633      -0.00000000 </v>
   <v>       0.15336196      -0.16093745      -0.00000000 </v>
   <v>       0.06583736      -0.09310808      -0.11403365 </v>
   <v>       0.06583736      -0.09310808       0.11403365 </v>
   <v>       0.01443739       0.01020878      -0.02500629 </v>
   <v>       0.13167471       0.09310808      -0.00000000 </v>
   <v>       0.01443739       0.01020878       0.02500629 </v>
   <v>      -0.00000000       0.00000000      -0.00000000 </v>
   <v>      -0.11553508      -0.08169564      -0.01767575 </v>
   <v>      -0.11553508      -0.08169564       0.01767575 </v>
   <v>      -0.06287009       0.06726346      -0.10889419 </v>
   <v>      -0.01934589       0.00683981      -0.00000000 </v>
   <v>      -0.06287009       0.06726346       0.10889419 </v>
   <v>      -0.05266499       0.09612783      -0.09121844 </v>
   <v>      -0.05266499       0.09612783       0.09121844 </v>
   <v>      -0.52218793       0.18462131      -0.00000000 </v>
   <v>       0.04245990      -0.08169564      -0.10889419 </v>
   <v>      -0.00000000      -0.02051942      -0.00000000 </v>
   <v>       0.04245990      -0.08169564       0.10889419 </v>
   <v>       0.00967295       0.00683981      -0.01675404 </v>
   <v>       0.00967295       0.00683981       0.01675404 </v>
   <v>      -0.49442077      -0.34960828      -0.00000000 </v>
   <v>       0.10532999       0.09612783      -0.00000000 </v>
   <v>      -0.24721039       0.34960828      -0.42818095 </v>
   <v>      -0.24721039       0.34960828       0.42818095 </v>
   <v>       0.07307519      -0.08169564      -0.09121844 </v>
   <v>       0.07307519      -0.08169564       0.09121844 </v>
   <v>      -0.00000000      -0.55386394      -0.00000000 </v>
   <v>       0.12574018       0.06726346      -0.00000000 </v>
   <v>       0.24721039      -0.34960828      -0.42818095 </v>
   <v>       0.24721039      -0.34960828       0.42818095 </v>
   <v>       0.26109396       0.18462131      -0.45222801 </v>
   <v>       0.49442077       0.34960828      -0.00000000 </v>
   <v>       0.26109396       0.18462131       0.45222801 </v>
   <v>      -0.00000000       0.00000000      -0.00000000 </v>
  </varray>
  <varray name="stress" >
   <v>      16.04391017       0.00000000       0.00000000 </v>
   <v>       0.00000000      16.04391022      -0.00000000 </v>
   <v>      -0.00000000      -0.00000000      16.04391023 </v>
  </varray>
  <energy>
   <i name="e_fr_energy">   -300.72778394 </i>
   <i name="e_wo_entrp">   -300.72108123 </i>
   <i name="e_0_energy">     -0.01340541 </i>
  </energy>
  <time name="totalsc">  106.34  108.85</time>
  <eigenvalues>
   <array>
    <dimension dim="1">band</dimension>
    <dimension dim="2">kpoint</dimension>
    <dimension dim="3">spin</dimension>
    <field>eigene</field>
    <field>occ</field>
    <set>
     <set comment="spin 1">
      <set comment="kpoint 1">
       <r>   -6.9282    1.0000 </r>
       <r>   -5.5552    1.0000 </r>
       <r>   -4.9376    1.0000 </r>
       <r>   -4.9376    1.0000 </r>
       <r>   -4.9376    1.0000 </r>
       <r>   -4.5354    1.0000 </r>
       <r>   -4.5274    1.0000 </r>
       <r>   -4.5274    1.0000 </r>
       <r>   -4.5274    1.0000 </r>
       <r>   -4.1364    1.0000 </r>
       <r>   -4.1209    1.0000 </r>
       <r>   -4.1209    1.0000 </r>
       <r>   -4.1209    1.0000 </r>
       <r>   -4.0773    1.0000 </r>
       <r>   -4.0773    1.0000 </r>
       <r>   -3.0879    1.0000 </r>
       <r>   -3.0879    1.0000 </r>
       <r>   -3.0879    1.0000 </r>
       <r>   -2.7905    1.0000 </r>
       <r>   -2.7905    1.0000 </r>
       <r>   -2.7639    1.0000 </r>
       <r>   -2.6847    1.0000 </r>
       <r>   -2.6847    1.0000 </r>
       <r>   -2.6847    1.0000 </r>
       <r>   -2.6431    1.0000 </r>
       <r>   -2.6431    1.0000 </r>
       <r>   -2.6431    1.0000 </r>
       <r>   -1.5715    1.0000 </r>
       <r>   -1.0113    1.0000 </r>
       <r>   -1.0113    1.0000 </r>
       <r>   -1.0113    1.0000 </r>
       <r>   -0.9170    1.0000 </r>
       <r>   -0.9170    1.0000 </r>
       <r>   -0.8807    1.0000 </r>
       <r>   -0.8807    1.0000 </r>
       <r>   -0.8807    1.0000 </r>
       <r>   -0.7204    1.0000 </r>
       <r>   -0.7204    1.0000 </r>
       <r>   -0.7204    1.0000 </r>
       <r>   -0.3176    1.0000 </r>
       <r>    0.4810    1.0000 </r>
       <r>    0.4810    1.0000 </r>
       <r>    0.4810    1.0000 </r>
       <r>    0.5774    1.0000 </r>
       <r>    0.5774    1.0000 </r>
       <r>    0.5774    1.0000 </r>
       <r>    0.6288    1.0000 </r>
       <r>    0.8808    1.0000 </r>
       <r>    0.8808    1.0000 </r>
       <r>    0.9019    1.0000 </r>
       <r>    0.9019    1.0000 </r>
       <r>    0.9019    1.0000 </r>
       <r>    0.9442    1.0000 </r>
       <r>    1.0664    1.0000 </r>
       <r>    1.3609    1.0000 </r>
       <r>    1.3609    1.0000 </r>
       <r>    1.3609    1.0000 </r>
       <r>    1.5104    1.0000 </r>
       <r>    1.5104    1.0000 </r>
       <r>    1.5104    1.0000 </r>
       <r>    1.6420    1.0000 </r>
       <r>    1.6420    1.0000 </r>
       <r>    1.6804    1.0000 </r>
       <r>    1.6804    1.0000 </r>
       <r>    1.6804    1.0000 </r>
       <r>    2.8179    1.0000 </r>
       <r>    2.8179    1.0000 </r>
       <r>    2.8179    1.0000 </r>
       <r>    3.4671    1.0000 </r>
       <r>    3.4671    1.0000 </r>
       <r>    3.4671    1.0000 </r>
       <r>    3.5400    1.0000 </r>
       <r>    3.5400    1.0000 </r>
       <r>    3.5400    1.0000 </r>
       <r>    3.6136    1.0000 </r>
       <r>    3.6136    1.0000 </r>
       <r>    3.6136    1.0000 </r>
       <r>    3.6690    1.0000 </r>
       <r>    3.6690    1.0000 </r>
       <r>    3.8504    1.0000 </r>
       <r>    3.8504    1.0000 </r>
       <r>    3.8504    1.0000 </r>
       <r>    3.8728    1.0000 </r>
       <r>    3.8728    1.0000 </r>
       <r>    3.8728    1.0000 </r>
       <r>    3.9088    1.0000 </r>
       <r>    3.9088    1.0000 </r>
       <r>    3.9088    1.0000 </r>
       <r>    3.9377    1.0000 </r>
       <r>    4.3245    1.0000 </r>
       <r>    4.7706    1.0000 </r>
       <r>    4.7706    1.0000 </r>
       <r>    4.7908    1.0000 </r>
       <r>    4.7908    1.0000 </r>
       <r>    4.7908    1.0000 </r>
       <r>    4.9310    1.0000 </r>
       <r>    4.9310    1.0000 </r>
       <r>    4.9310    1.0000 </r>
       <r>    4.9634    1.0000 </r>
       <r>    4.9634    1.0000 </r>
       <r>    4.9634    1.0000 </r>
       <r>    5.0627    1.0000 </r>
       <r>    5.0627    1.0000 </r>
       <r>    5.0627    1.0000 </r>
       <r>    5.0641    1.0000 </r>
       <r>    5.0641    1.0000 </r>
       <r>    5.9453    1.0000 </r>
       <r>    5.9453    1.0000 </r>
       <r>    5.9453    1.0000 </r>
       <r>    6.5612    0.9759 </r>
       <r>    6.5612    0.9759 </r>
       <r>    6.5612    0.9759 </r>
       <r>    6.6735    0.1150 </r>
       <r>    6.6735    0.1150 </r>
       <r>    6.6735    0.1150 </r>
       <r>    6.6838    0.0681 </r>
       <r>    6.6838    0.0681 </r>
       <r>    7.0572    0.0000 </r>
       <r>    7.4293    0.0000 </r>
       <r>    7.4293    0.0000 </r>
       <r>    7.4293    0.0000 </r>
       <r>    7.5461    0.0000 </r>
       <r>    7.5461    0.0000 </r>
       <r>    7.5521    0.0000 </r>
       <r>    7.5521    0.0000 </r>
       <r>    7.5521    0.0000 </r>
       <r>    7.6765    0.0000 </r>
       <r>    7.7258    0.0000 </r>
       <r>    7.7258    0.0000 </r>
       <r>    7.7258    0.0000 </r>
       <r>    7.7458    0.0000 </r>
       <r>    7.7625    0.0000 </r>
       <r>    7.7625    0.0000 </r>
       <r>    7.7625    0.0000 </r>
       <r>    7.9091    0.0000 </r>
       <r>    7.9091    0.0000 </r>
       <r>    7.9091    0.0000 </r>
       <r>    7.9609    0.0000 </r>
       <r>    7.9914    0.0000 </r>
       <r>    7.9914    0.0000 </r>
       <r>    8.3127    0.0000 </r>
       <r>    8.3127    0.0000 </r>
       <r>    8.3127    0.0000 </r>
       <r>    8.9423    0.0000 </r>
      </set>
      <set comment="kpoint 2">
       <r>   -6.9145    1.0000 </r>
       <r>   -5.5857    1.0000 </r>
       <r>   -5.0826    1.0000 </r>
       <r>   -4.9631    1.0000 </r>
       <r>   -4.9631    1.0000 </r>
       <r>   -4.5815    1.0000 </r>
       <r>   -4.5051    1.0000 </r>
       <r>   -4.5051    1.0000 </r>
       <r>   -4.4680    1.0000 </r>
       <r>   -4.3076    1.0000 </r>
       <r>   -4.3076    1.0000 </r>
       <r>   -4.0696    1.0000 </r>
       <r>   -3.6251    1.0000 </r>
       <r>   -3.6035    1.0000 </r>
       <r>   -3.6035    1.0000 </r>
       <r>   -3.5323    1.0000 </r>
       <r>   -3.3915    1.0000 </r>
       <r>   -3.3915    1.0000 </r>
       <r>   -2.9136    1.0000 </r>
       <r>   -2.9136    1.0000 </r>
       <r>   -2.7517    1.0000 </r>
       <r>   -2.7250    1.0000 </r>
       <r>   -2.7250    1.0000 </r>
       <r>   -2.6378    1.0000 </r>
       <r>   -2.5756    1.0000 </r>
       <r>   -2.4512    1.0000 </r>
       <r>   -2.4512    1.0000 </r>
       <r>   -1.6762    1.0000 </r>
       <r>   -1.2048    1.0000 </r>
       <r>   -1.2048    1.0000 </r>
       <r>   -1.0831    1.0000 </r>
       <r>   -0.9752    1.0000 </r>
       <r>   -0.9752    1.0000 </r>
       <r>   -0.8931    1.0000 </r>
       <r>   -0.8931    1.0000 </r>
       <r>   -0.7610    1.0000 </r>
       <r>   -0.6657    1.0000 </r>
       <r>   -0.4948    1.0000 </r>
       <r>   -0.3837    1.0000 </r>
       <r>   -0.3837    1.0000 </r>
       <r>   -0.0920    1.0000 </r>
       <r>    0.0921    1.0000 </r>
       <r>    0.0921    1.0000 </r>
       <r>    0.1758    1.0000 </r>
       <r>    0.2203    1.0000 </r>
       <r>    0.2203    1.0000 </r>
       <r>    0.5272    1.0000 </r>
       <r>    0.9966    1.0000 </r>
       <r>    0.9966    1.0000 </r>
       <r>    1.1749    1.0000 </r>
       <r>    1.2864    1.0000 </r>
       <r>    1.4303    1.0000 </r>
       <r>    1.4303    1.0000 </r>
       <r>    1.5871    1.0000 </r>
       <r>    1.5871    1.0000 </r>
       <r>    1.6259    1.0000 </r>
       <r>    1.6808    1.0000 </r>
       <r>    1.7467    1.0000 </r>
       <r>    1.7467    1.0000 </r>
       <r>    1.8493    1.0000 </r>
       <r>    1.8493    1.0000 </r>
       <r>    1.9231    1.0000 </r>
       <r>    1.9654    1.0000 </r>
       <r>    1.9654    1.0000 </r>
       <r>    2.0914    1.0000 </r>
       <r>    2.5014    1.0000 </r>
       <r>    2.7085    1.0000 </r>
       <r>    2.7085    1.0000 </r>
       <r>    3.1030    1.0000 </r>
       <r>    3.1030    1.0000 </r>
       <r>    3.3332    1.0000 </r>
       <r>    3.3722    1.0000 </r>
       <r>    3.3861    1.0000 </r>
       <r>    3.3861    1.0000 </r>
       <r>    3.4880    1.0000 </r>
       <r>    3.4880    1.0000 </r>
       <r>    3.5720    1.0000 </r>
       <r>    3.5720    1.0000 </r>
       <r>    3.5931    1.0000 </r>
       <r>    3.6283    1.0000 </r>
       <r>    3.6478    1.0000 </r>
       <r>    3.6875    1.0000 </r>
       <r>    3.6875    1.0000 </r>
       <r>    3.7692    1.0000 </r>
       <r>    3.7692    1.0000 </r>
       <r>    3.8591    1.0000 </r>
       <r>    4.0121    1.0000 </r>
       <r>    4.1110    1.0000 </r>
       <r>    4.1110    1.0000 </r>
       <r>    4.1842    1.0000 </r>
       <r>    4.1842    1.0000 </r>
       <r>    4.2808    1.0000 </r>
       <r>    4.5336    1.0000 </r>
       <r>    4.5392    1.0000 </r>
       <r>    4.5392    1.0000 </r>
       <r>    4.6652    1.0000 </r>
       <r>    4.6652    1.0000 </r>
       <r>    4.6726    1.0000 </r>
       <r>    4.7927    1.0000 </r>
       <r>    4.7927    1.0000 </r>
       <r>    4.8935    1.0000 </r>
       <r>    4.9598    1.0000 </r>
       <r>    4.9598    1.0000 </r>
       <r>    5.0165    1.0000 </r>
       <r>    5.1183    1.0000 </r>
       <r>    5.1932    1.0000 </r>
       <r>    5.1932    1.0000 </r>
       <r>    5.8056    1.0000 </r>
       <r>    5.8056    1.0000 </r>
       <r>    6.5345    0.9969 </r>
       <r>    6.7437    0.0007 </r>
       <r>    6.7437    0.0007 </r>
       <r>    6.8453    0.0000 </r>
       <r>    6.8453    0.0000 </r>
       <r>    6.8917    0.0000 </r>
       <r>    7.1746    0.0000 </r>
       <r>    7.1746    0.0000 </r>
       <r>    7.3474    0.0000 </r>
       <r>    7.4010    0.0000 </r>
       <r>    7.4010    0.0000 </r>
       <r>    7.5399    0.0000 </r>
       <r>    7.6143    0.0000 </r>
       <r>    7.8308    0.0000 </r>
       <r>    7.8308    0.0000 </r>
       <r>    7.9546    0.0000 </r>
       <r>    8.0136    0.0000 </r>
       <r>    8.0136    0.0000 </r>
       <r>    8.0310    0.0000 </r>
       <r>    8.1018    0.0000 </r>
       <r>    8.1018    0.0000 </r>
       <r>    8.1205    0.0000 </r>
       <r>    8.1346    0.0000 </r>
       <r>    8.1672    0.0000 </r>
       <r>    8.1672    0.0000 </r>
       <r>    8.2649    0.0000 </r>
       <r>    8.2658    0.0000 </r>
       <r>    8.2658    0.0000 </r>
       <r>    8.4084    0.0000 </r>
       <r>    8.5202    0.0000 </r>
       <r>    8.5202    0.0000 </r>
       <r>    8.6229    0.0000 </r>
       <r>    8.7289    0.0000 </r>
       <r>    8.7289    0.0000 </r>
       <r>    8.9235    0.0000 </r>
      </set>
      <set comment="kpoint 3">
       <r>   -6.9002    1.0000 </r>
       <r>   -5.6127    1.0000 </r>
       <r>   -5.2064    1.0000 </r>
       <r>   -4.9743    1.0000 </r>
       <r>   -4.9743    1.0000 </r>
       <r>   -4.6175    1.0000 </r>
       <r>   -4.6175    1.0000 </r>
       <r>   -4.5938    1.0000 </r>
       <r>   -4.2981    1.0000 </r>
       <r>   -4.0585    1.0000 </r>
       <r>   -4.0149    1.0000 </r>
       <r>   -4.0149    1.0000 </r>
       <r>   -3.8469    1.0000 </r>
       <r>   -3.8469    1.0000 </r>
       <r>   -3.6637    1.0000 </r>
       <r>   -3.0884    1.0000 </r>
       <r>   -3.0669    1.0000 </r>
       <r>   -3.0669    1.0000 </r>
       <r>   -3.0668    1.0000 </r>
       <r>   -2.9595    1.0000 </r>
       <r>   -2.9595    1.0000 </r>
       <r>   -2.7988    1.0000 </r>
       <r>   -2.7988    1.0000 </r>
       <r>   -2.6992    1.0000 </r>
       <r>   -2.6956    1.0000 </r>
       <r>   -2.6956    1.0000 </r>
       <r>   -2.6325    1.0000 </r>
       <r>   -1.6878    1.0000 </r>
       <r>   -1.0941    1.0000 </r>
       <r>   -1.0941    1.0000 </r>
       <r>   -1.0161    1.0000 </r>
       <r>   -0.9366    1.0000 </r>
       <r>   -0.9366    1.0000 </r>
       <r>   -0.7993    1.0000 </r>
       <r>   -0.7598    1.0000 </r>
       <r>   -0.7598    1.0000 </r>
       <r>   -0.6395    1.0000 </r>
       <r>   -0.5590    1.0000 </r>
       <r>   -0.5515    1.0000 </r>
       <r>   -0.5515    1.0000 </r>
       <r>   -0.4831    1.0000 </r>
       <r>   -0.0937    1.0000 </r>
       <r>   -0.0937    1.0000 </r>
       <r>   -0.0443    1.0000 </r>
       <r>   -0.0443    1.0000 </r>
       <r>    0.0033    1.0000 </r>
       <r>    0.7296    1.0000 </r>
       <r>    0.9974    1.0000 </r>
       <r>    1.4292    1.0000 </r>
       <r>    1.4292    1.0000 </r>
       <r>    1.4551    1.0000 </r>
       <r>    1.4551    1.0000 </r>
       <r>    1.6386    1.0000 </r>
       <r>    1.7775    1.0000 </r>
       <r>    1.8586    1.0000 </r>
       <r>    1.8586    1.0000 </r>
       <r>    1.8942    1.0000 </r>
       <r>    2.0626    1.0000 </r>
       <r>    2.0626    1.0000 </r>
       <r>    2.1679    1.0000 </r>
       <r>    2.1679    1.0000 </r>
       <r>    2.3054    1.0000 </r>
       <r>    2.3644    1.0000 </r>
       <r>    2.3644    1.0000 </r>
       <r>    2.6452    1.0000 </r>
       <r>    2.6452    1.0000 </r>
       <r>    2.7383    1.0000 </r>
       <r>    2.7978    1.0000 </r>
       <r>    2.7978    1.0000 </r>
       <r>    2.8205    1.0000 </r>
       <r>    3.0240    1.0000 </r>
       <r>    3.0240    1.0000 </r>
       <r>    3.1643    1.0000 </r>
       <r>    3.2057    1.0000 </r>
       <r>    3.2057    1.0000 </r>
       <r>    3.2691    1.0000 </r>
       <r>    3.2773    1.0000 </r>
       <r>    3.2773    1.0000 </r>
       <r>    3.3523    1.0000 </r>
       <r>    3.4551    1.0000 </r>
       <r>    3.4551    1.0000 </r>
       <r>    3.4982    1.0000 </r>
       <r>    3.5140    1.0000 </r>
       <r>    3.5811    1.0000 </r>
       <r>    3.8230    1.0000 </r>
       <r>    3.8712    1.0000 </r>
       <r>    3.8712    1.0000 </r>
       <r>    3.9999    1.0000 </r>
       <r>    3.9999    1.0000 </r>
       <r>    4.0786    1.0000 </r>
       <r>    4.0901    1.0000 </r>
       <r>    4.0901    1.0000 </r>
       <r>    4.1674    1.0000 </r>
       <r>    4.1674    1.0000 </r>
       <r>    4.2040    1.0000 </r>
       <r>    4.2682    1.0000 </r>
       <r>    4.5672    1.0000 </r>
       <r>    4.5672    1.0000 </r>
       <r>    4.6455    1.0000 </r>
       <r>    4.6455    1.0000 </r>
       <r>    4.6957    1.0000 </r>
       <r>    4.7289    1.0000 </r>
       <r>    4.7956    1.0000 </r>
       <r>    4.7956    1.0000 </r>
       <r>    5.1979    1.0000 </r>
       <r>    5.4384    1.0000 </r>
       <r>    5.4384    1.0000 </r>
       <r>    5.5524    1.0000 </r>
       <r>    5.5524    1.0000 </r>
       <r>    6.5329    0.9973 </r>
       <r>    6.7727    0.0000 </r>
       <r>    6.7727    0.0000 </r>
       <r>    7.0040    0.0000 </r>
       <r>    7.0040    0.0000 </r>
       <r>    7.1163    0.0000 </r>
       <r>    7.3526    0.0000 </r>
       <r>    7.5775    0.0000 </r>
       <r>    7.6876    0.0000 </r>
       <r>    7.6876    0.0000 </r>
       <r>    7.8483    0.0000 </r>
       <r>    7.8483    0.0000 </r>
       <r>    7.9307    0.0000 </r>
       <r>    7.9307    0.0000 </r>
       <r>    7.9669    0.0000 </r>
       <r>    8.2104    0.0000 </r>
       <r>    8.3033    0.0000 </r>
       <r>    8.3721    0.0000 </r>
       <r>    8.3980    0.0000 </r>
       <r>    8.3980    0.0000 </r>
       <r>    8.4756    0.0000 </r>
       <r>    8.4756    0.0000 </r>
       <r>    8.4850    0.0000 </r>
       <r>    8.5541    0.0000 </r>
       <r>    8.5541    0.0000 </r>
       <r>    8.6922    0.0000 </r>
       <r>    8.8190    0.0000 </r>
       <r>    8.8190    0.0000 </r>
       <r>    9.0592    0.0000 </r>
       <r>    9.1337    0.0000 </r>
       <r>    9.1454    0.0000 </r>
       <r>    9.1454    0.0000 </r>
       <r>    9.1906    0.0000 </r>
       <r>    9.1911    0.0000 </r>
       <r>    9.3178    0.0000 </r>
      </set>
      <set comment="kpoint 4">
       <r>   -6.9102    1.0000 </r>
       <r>   -5.5739    1.0000 </r>
       <r>   -5.0774    1.0000 </r>
       <r>   -5.0774    1.0000 </r>
       <r>   -4.9172    1.0000 </r>
       <r>   -4.8304    1.0000 </r>
       <r>   -4.6505    1.0000 </r>
       <r>   -4.3084    1.0000 </r>
       <r>   -4.3084    1.0000 </r>
       <r>   -4.0460    1.0000 </r>
       <r>   -3.9838    1.0000 </r>
       <r>   -3.9828    1.0000 </r>
       <r>   -3.9521    1.0000 </r>
       <r>   -3.9521    1.0000 </r>
       <r>   -3.5812    1.0000 </r>
       <r>   -3.3700    1.0000 </r>
       <r>   -3.3700    1.0000 </r>
       <r>   -3.2425    1.0000 </r>
       <r>   -3.1351    1.0000 </r>
       <r>   -2.9988    1.0000 </r>
       <r>   -2.9657    1.0000 </r>
       <r>   -2.9657    1.0000 </r>
       <r>   -2.9147    1.0000 </r>
       <r>   -2.2804    1.0000 </r>
       <r>   -2.2709    1.0000 </r>
       <r>   -2.2709    1.0000 </r>
       <r>   -2.1941    1.0000 </r>
       <r>   -1.7706    1.0000 </r>
       <r>   -1.3865    1.0000 </r>
       <r>   -1.3865    1.0000 </r>
       <r>   -1.2994    1.0000 </r>
       <r>   -1.2599    1.0000 </r>
       <r>   -0.8934    1.0000 </r>
       <r>   -0.8692    1.0000 </r>
       <r>   -0.8692    1.0000 </r>
       <r>   -0.6343    1.0000 </r>
       <r>   -0.4980    1.0000 </r>
       <r>   -0.3395    1.0000 </r>
       <r>   -0.3395    1.0000 </r>
       <r>   -0.2756    1.0000 </r>
       <r>   -0.2551    1.0000 </r>
       <r>   -0.1789    1.0000 </r>
       <r>   -0.1789    1.0000 </r>
       <r>   -0.1114    1.0000 </r>
       <r>    0.4578    1.0000 </r>
       <r>    0.7197    1.0000 </r>
       <r>    0.7197    1.0000 </r>
       <r>    0.7283    1.0000 </r>
       <r>    0.7658    1.0000 </r>
       <r>    1.3192    1.0000 </r>
       <r>    1.3192    1.0000 </r>
       <r>    1.4205    1.0000 </r>
       <r>    1.5559    1.0000 </r>
       <r>    1.6585    1.0000 </r>
       <r>    1.6585    1.0000 </r>
       <r>    1.7039    1.0000 </r>
       <r>    1.7323    1.0000 </r>
       <r>    1.8023    1.0000 </r>
       <r>    1.8023    1.0000 </r>
       <r>    1.8614    1.0000 </r>
       <r>    1.9523    1.0000 </r>
       <r>    2.0467    1.0000 </r>
       <r>    2.1110    1.0000 </r>
       <r>    2.1110    1.0000 </r>
       <r>    2.3854    1.0000 </r>
       <r>    2.4724    1.0000 </r>
       <r>    2.6722    1.0000 </r>
       <r>    2.6722    1.0000 </r>
       <r>    3.0870    1.0000 </r>
       <r>    3.1400    1.0000 </r>
       <r>    3.1400    1.0000 </r>
       <r>    3.1743    1.0000 </r>
       <r>    3.2284    1.0000 </r>
       <r>    3.2365    1.0000 </r>
       <r>    3.2365    1.0000 </r>
       <r>    3.4436    1.0000 </r>
       <r>    3.4660    1.0000 </r>
       <r>    3.4660    1.0000 </r>
       <r>    3.5798    1.0000 </r>
       <r>    3.7587    1.0000 </r>
       <r>    3.7673    1.0000 </r>
       <r>    3.7673    1.0000 </r>
       <r>    3.7690    1.0000 </r>
       <r>    3.9057    1.0000 </r>
       <r>    3.9057    1.0000 </r>
       <r>    3.9534    1.0000 </r>
       <r>    3.9705    1.0000 </r>
       <r>    4.0670    1.0000 </r>
       <r>    4.1183    1.0000 </r>
       <r>    4.1183    1.0000 </r>
       <r>    4.2074    1.0000 </r>
       <r>    4.2444    1.0000 </r>
       <r>    4.2444    1.0000 </r>
       <r>    4.3498    1.0000 </r>
       <r>    4.4213    1.0000 </r>
       <r>    4.4213    1.0000 </r>
       <r>    4.4363    1.0000 </r>
       <r>    4.5187    1.0000 </r>
       <r>    4.5229    1.0000 </r>
       <r>    4.5229    1.0000 </r>
       <r>    4.5914    1.0000 </r>
       <r>    4.9772    1.0000 </r>
       <r>    5.2371    1.0000 </r>
       <r>    5.2407    1.0000 </r>
       <r>    5.2407    1.0000 </r>
       <r>    5.2816    1.0000 </r>
       <r>    5.3176    1.0000 </r>
       <r>    5.5300    1.0000 </r>
       <r>    5.5300    1.0000 </r>
       <r>    6.5024    0.9999 </r>
       <r>    6.6750    0.1072 </r>
       <r>    6.8806    0.0000 </r>
       <r>    6.8806    0.0000 </r>
       <r>    7.0810    0.0000 </r>
       <r>    7.2411    0.0000 </r>
       <r>    7.2411    0.0000 </r>
       <r>    7.3290    0.0000 </r>
       <r>    7.4039    0.0000 </r>
       <r>    7.5162    0.0000 </r>
       <r>    7.6881    0.0000 </r>
       <r>    7.6881    0.0000 </r>
       <r>    7.6921    0.0000 </r>
       <r>    7.7287    0.0000 </r>
       <r>    7.8482    0.0000 </r>
       <r>    7.9570    0.0000 </r>
       <r>    7.9789    0.0000 </r>
       <r>    7.9789    0.0000 </r>
       <r>    8.0745    0.0000 </r>
       <r>    8.1581    0.0000 </r>
       <r>    8.1581    0.0000 </r>
       <r>    8.2729    0.0000 </r>
       <r>    8.3331    0.0000 </r>
       <r>    8.3919    0.0000 </r>
       <r>    8.3919    0.0000 </r>
       <r>    8.4351    0.0000 </r>
       <r>    8.4665    0.0000 </r>
       <r>    8.5236    0.0000 </r>
       <r>    8.5273    0.0000 </r>
       <r>    8.5618    0.0000 </r>
       <r>    8.5618    0.0000 </r>
       <r>    8.6809    0.0000 </r>
       <r>    8.7464    0.0000 </r>
       <r>    8.7464    0.0000 </r>
       <r>    9.0570    0.0000 </r>
      </set>
      <set comment="kpoint 5">
       <r>   -6.8961    1.0000 </r>
       <r>   -5.5485    1.0000 </r>
       <r>   -5.3176    1.0000 </r>
       <r>   -5.0922    1.0000 </r>
       <r>   -5.0172    1.0000 </r>
       <r>   -4.6665    1.0000 </r>
       <r>   -4.5853    1.0000 </r>
       <r>   -4.3754    1.0000 </r>
       <r>   -4.2199    1.0000 </r>
       <r>   -4.0576    1.0000 </r>
       <r>   -3.9409    1.0000 </r>
       <r>   -3.9283    1.0000 </r>
       <r>   -3.7800    1.0000 </r>
       <r>   -3.6680    1.0000 </r>
       <r>   -3.5515    1.0000 </r>
       <r>   -3.4191    1.0000 </r>
       <r>   -3.4066    1.0000 </r>
       <r>   -3.3364    1.0000 </r>
       <r>   -3.1943    1.0000 </r>
       <r>   -3.1709    1.0000 </r>
       <r>   -3.0659    1.0000 </r>
       <r>   -3.0285    1.0000 </r>
       <r>   -2.5459    1.0000 </r>
       <r>   -2.5136    1.0000 </r>
       <r>   -2.4212    1.0000 </r>
       <r>   -2.2595    1.0000 </r>
       <r>   -2.2513    1.0000 </r>
       <r>   -1.6768    1.0000 </r>
       <r>   -1.3762    1.0000 </r>
       <r>   -1.3159    1.0000 </r>
       <r>   -1.2966    1.0000 </r>
       <r>   -1.1741    1.0000 </r>
       <r>   -1.0821    1.0000 </r>
       <r>   -0.8854    1.0000 </r>
       <r>   -0.8312    1.0000 </r>
       <r>   -0.8139    1.0000 </r>
       <r>   -0.5475    1.0000 </r>
       <r>   -0.5359    1.0000 </r>
       <r>   -0.4863    1.0000 </r>
       <r>   -0.4262    1.0000 </r>
       <r>   -0.4161    1.0000 </r>
       <r>   -0.1014    1.0000 </r>
       <r>   -0.0965    1.0000 </r>
       <r>    0.0833    1.0000 </r>
       <r>    0.2241    1.0000 </r>
       <r>    0.2688    1.0000 </r>
       <r>    0.7183    1.0000 </r>
       <r>    0.8878    1.0000 </r>
       <r>    0.9404    1.0000 </r>
       <r>    1.1249    1.0000 </r>
       <r>    1.5108    1.0000 </r>
       <r>    1.6828    1.0000 </r>
       <r>    1.8114    1.0000 </r>
       <r>    1.9014    1.0000 </r>
       <r>    1.9710    1.0000 </r>
       <r>    2.0656    1.0000 </r>
       <r>    2.1369    1.0000 </r>
       <r>    2.1583    1.0000 </r>
       <r>    2.2943    1.0000 </r>
       <r>    2.3128    1.0000 </r>
       <r>    2.3756    1.0000 </r>
       <r>    2.4467    1.0000 </r>
       <r>    2.5216    1.0000 </r>
       <r>    2.5596    1.0000 </r>
       <r>    2.5652    1.0000 </r>
       <r>    2.6471    1.0000 </r>
       <r>    2.6697    1.0000 </r>
       <r>    2.7747    1.0000 </r>
       <r>    2.8006    1.0000 </r>
       <r>    2.8372    1.0000 </r>
       <r>    2.9115    1.0000 </r>
       <r>    3.0095    1.0000 </r>
       <r>    3.0095    1.0000 </r>
       <r>    3.0591    1.0000 </r>
       <r>    3.0890    1.0000 </r>
       <r>    3.1454    1.0000 </r>
       <r>    3.2428    1.0000 </r>
       <r>    3.2729    1.0000 </r>
       <r>    3.3017    1.0000 </r>
       <r>    3.3467    1.0000 </r>
       <r>    3.3785    1.0000 </r>
       <r>    3.4326    1.0000 </r>
       <r>    3.5454    1.0000 </r>
       <r>    3.6690    1.0000 </r>
       <r>    3.6698    1.0000 </r>
       <r>    3.7428    1.0000 </r>
       <r>    3.7786    1.0000 </r>
       <r>    3.8257    1.0000 </r>
       <r>    3.9363    1.0000 </r>
       <r>    4.0163    1.0000 </r>
       <r>    4.0345    1.0000 </r>
       <r>    4.0928    1.0000 </r>
       <r>    4.0940    1.0000 </r>
       <r>    4.2357    1.0000 </r>
       <r>    4.2759    1.0000 </r>
       <r>    4.3379    1.0000 </r>
       <r>    4.3761    1.0000 </r>
       <r>    4.4128    1.0000 </r>
       <r>    4.4183    1.0000 </r>
       <r>    4.4750    1.0000 </r>
       <r>    4.5778    1.0000 </r>
       <r>    4.5788    1.0000 </r>
       <r>    4.9521    1.0000 </r>
       <r>    4.9546    1.0000 </r>
       <r>    5.0284    1.0000 </r>
       <r>    5.1680    1.0000 </r>
       <r>    5.3212    1.0000 </r>
       <r>    5.4393    1.0000 </r>
       <r>    5.6050    1.0000 </r>
       <r>    6.6589    0.2156 </r>
       <r>    6.7732    0.0000 </r>
       <r>    7.0500    0.0000 </r>
       <r>    7.1246    0.0000 </r>
       <r>    7.4130    0.0000 </r>
       <r>    7.5341    0.0000 </r>
       <r>    7.5573    0.0000 </r>
       <r>    7.5940    0.0000 </r>
       <r>    7.7313    0.0000 </r>
       <r>    7.7972    0.0000 </r>
       <r>    7.8836    0.0000 </r>
       <r>    8.0084    0.0000 </r>
       <r>    8.0292    0.0000 </r>
       <r>    8.0998    0.0000 </r>
       <r>    8.1757    0.0000 </r>
       <r>    8.2589    0.0000 </r>
       <r>    8.3478    0.0000 </r>
       <r>    8.3885    0.0000 </r>
       <r>    8.4982    0.0000 </r>
       <r>    8.5069    0.0000 </r>
       <r>    8.5712    0.0000 </r>
       <r>    8.5783    0.0000 </r>
       <r>    8.6875    0.0000 </r>
       <r>    8.6880    0.0000 </r>
       <r>    8.7126    0.0000 </r>
       <r>    8.7975    0.0000 </r>
       <r>    8.8643    0.0000 </r>
       <r>    8.9105    0.0000 </r>
       <r>    9.0071    0.0000 </r>
       <r>    9.0103    0.0000 </r>
       <r>    9.0465    0.0000 </r>
       <r>    9.0856    0.0000 </r>
       <r>    9.1334    0.0000 </r>
       <r>    9.1469    0.0000 </r>
       <r>    9.2054    0.0000 </r>
      </set>
      <set comment="kpoint 6">
       <r>   -6.9007    1.0000 </r>
       <r>   -5.5674    1.0000 </r>
       <r>   -5.3047    1.0000 </r>
       <r>   -4.9891    1.0000 </r>
       <r>   -4.9620    1.0000 </r>
       <r>   -4.6798    1.0000 </r>
       <r>   -4.5328    1.0000 </r>
       <r>   -4.5079    1.0000 </r>
       <r>   -4.2923    1.0000 </r>
       <r>   -4.1604    1.0000 </r>
       <r>   -4.0406    1.0000 </r>
       <r>   -3.9391    1.0000 </r>
       <r>   -3.8157    1.0000 </r>
       <r>   -3.6988    1.0000 </r>
       <r>   -3.5056    1.0000 </r>
       <r>   -3.4554    1.0000 </r>
       <r>   -3.3113    1.0000 </r>
       <r>   -3.2198    1.0000 </r>
       <r>   -3.0808    1.0000 </r>
       <r>   -3.0053    1.0000 </r>
       <r>   -2.9634    1.0000 </r>
       <r>   -2.8436    1.0000 </r>
       <r>   -2.7922    1.0000 </r>
       <r>   -2.7201    1.0000 </r>
       <r>   -2.5337    1.0000 </r>
       <r>   -2.5121    1.0000 </r>
       <r>   -2.0688    1.0000 </r>
       <r>   -1.7582    1.0000 </r>
       <r>   -1.5145    1.0000 </r>
       <r>   -1.1175    1.0000 </r>
       <r>   -1.0194    1.0000 </r>
       <r>   -0.9624    1.0000 </r>
       <r>   -0.8901    1.0000 </r>
       <r>   -0.8377    1.0000 </r>
       <r>   -0.8218    1.0000 </r>
       <r>   -0.7229    1.0000 </r>
       <r>   -0.6431    1.0000 </r>
       <r>   -0.6427    1.0000 </r>
       <r>   -0.5655    1.0000 </r>
       <r>   -0.5471    1.0000 </r>
       <r>   -0.4916    1.0000 </r>
       <r>   -0.4681    1.0000 </r>
       <r>    0.0567    1.0000 </r>
       <r>    0.3756    1.0000 </r>
       <r>    0.4036    1.0000 </r>
       <r>    0.5682    1.0000 </r>
       <r>    0.5976    1.0000 </r>
       <r>    0.6712    1.0000 </r>
       <r>    0.6891    1.0000 </r>
       <r>    1.0463    1.0000 </r>
       <r>    1.4183    1.0000 </r>
       <r>    1.6142    1.0000 </r>
       <r>    1.7292    1.0000 </r>
       <r>    1.9062    1.0000 </r>
       <r>    1.9242    1.0000 </r>
       <r>    1.9766    1.0000 </r>
       <r>    2.0772    1.0000 </r>
       <r>    2.1089    1.0000 </r>
       <r>    2.1720    1.0000 </r>
       <r>    2.2240    1.0000 </r>
       <r>    2.2525    1.0000 </r>
       <r>    2.3077    1.0000 </r>
       <r>    2.4272    1.0000 </r>
       <r>    2.4283    1.0000 </r>
       <r>    2.5128    1.0000 </r>
       <r>    2.5249    1.0000 </r>
       <r>    2.5779    1.0000 </r>
       <r>    2.6561    1.0000 </r>
       <r>    2.8406    1.0000 </r>
       <r>    2.8615    1.0000 </r>
       <r>    2.9676    1.0000 </r>
       <r>    3.0288    1.0000 </r>
       <r>    3.0537    1.0000 </r>
       <r>    3.0544    1.0000 </r>
       <r>    3.2330    1.0000 </r>
       <r>    3.3306    1.0000 </r>
       <r>    3.3462    1.0000 </r>
       <r>    3.3479    1.0000 </r>
       <r>    3.4256    1.0000 </r>
       <r>    3.4734    1.0000 </r>
       <r>    3.5130    1.0000 </r>
       <r>    3.5662    1.0000 </r>
       <r>    3.5814    1.0000 </r>
       <r>    3.6225    1.0000 </r>
       <r>    3.6587    1.0000 </r>
       <r>    3.7590    1.0000 </r>
       <r>    3.7900    1.0000 </r>
       <r>    3.8913    1.0000 </r>
       <r>    3.9540    1.0000 </r>
       <r>    4.0384    1.0000 </r>
       <r>    4.0729    1.0000 </r>
       <r>    4.1043    1.0000 </r>
       <r>    4.2912    1.0000 </r>
       <r>    4.3362    1.0000 </r>
       <r>    4.3907    1.0000 </r>
       <r>    4.4950    1.0000 </r>
       <r>    4.5071    1.0000 </r>
       <r>    4.5488    1.0000 </r>
       <r>    4.6609    1.0000 </r>
       <r>    4.6672    1.0000 </r>
       <r>    4.7398    1.0000 </r>
       <r>    4.7659    1.0000 </r>
       <r>    4.8524    1.0000 </r>
       <r>    4.9132    1.0000 </r>
       <r>    4.9596    1.0000 </r>
       <r>    5.0188    1.0000 </r>
       <r>    5.0956    1.0000 </r>
       <r>    5.3404    1.0000 </r>
       <r>    5.8363    1.0000 </r>
       <r>    6.6680    0.1484 </r>
       <r>    6.8002    0.0000 </r>
       <r>    7.0743    0.0000 </r>
       <r>    7.1380    0.0000 </r>
       <r>    7.1449    0.0000 </r>
       <r>    7.2494    0.0000 </r>
       <r>    7.3963    0.0000 </r>
       <r>    7.5475    0.0000 </r>
       <r>    7.6527    0.0000 </r>
       <r>    7.7695    0.0000 </r>
       <r>    7.8392    0.0000 </r>
       <r>    7.8409    0.0000 </r>
       <r>    7.8954    0.0000 </r>
       <r>    7.9936    0.0000 </r>
       <r>    8.0181    0.0000 </r>
       <r>    8.1191    0.0000 </r>
       <r>    8.1478    0.0000 </r>
       <r>    8.1802    0.0000 </r>
       <r>    8.3438    0.0000 </r>
       <r>    8.4443    0.0000 </r>
       <r>    8.4757    0.0000 </r>
       <r>    8.4782    0.0000 </r>
       <r>    8.5701    0.0000 </r>
       <r>    8.6160    0.0000 </r>
       <r>    8.6422    0.0000 </r>
       <r>    8.6524    0.0000 </r>
       <r>    8.7202    0.0000 </r>
       <r>    8.7570    0.0000 </r>
       <r>    8.7759    0.0000 </r>
       <r>    8.8863    0.0000 </r>
       <r>    8.9295    0.0000 </r>
       <r>    9.0338    0.0000 </r>
       <r>    9.0707    0.0000 </r>
       <r>    9.1617    0.0000 </r>
       <r>    9.2469    0.0000 </r>
      </set>
      <set comment="kpoint 7">
       <r>   -6.8919    1.0000 </r>
       <r>   -5.5232    1.0000 </r>
       <r>   -5.2135    1.0000 </r>
       <r>   -5.1627    1.0000 </r>
       <r>   -5.1627    1.0000 </r>
       <r>   -4.9664    1.0000 </r>
       <r>   -4.2234    1.0000 </r>
       <r>   -4.1940    1.0000 </r>
       <r>   -4.1246    1.0000 </r>
       <r>   -4.1246    1.0000 </r>
       <r>   -3.7753    1.0000 </r>
       <r>   -3.6334    1.0000 </r>
       <r>   -3.6334    1.0000 </r>
       <r>   -3.6014    1.0000 </r>
       <r>   -3.5431    1.0000 </r>
       <r>   -3.5214    1.0000 </r>
       <r>   -3.5008    1.0000 </r>
       <r>   -3.5008    1.0000 </r>
       <r>   -3.4599    1.0000 </r>
       <r>   -3.4174    1.0000 </r>
       <r>   -3.4174    1.0000 </r>
       <r>   -3.3937    1.0000 </r>
       <r>   -2.0723    1.0000 </r>
       <r>   -2.0064    1.0000 </r>
       <r>   -1.9580    1.0000 </r>
       <r>   -1.9580    1.0000 </r>
       <r>   -1.9334    1.0000 </r>
       <r>   -1.8020    1.0000 </r>
       <r>   -1.6990    1.0000 </r>
       <r>   -1.6990    1.0000 </r>
       <r>   -1.6902    1.0000 </r>
       <r>   -1.6634    1.0000 </r>
       <r>   -1.3989    1.0000 </r>
       <r>   -0.7551    1.0000 </r>
       <r>   -0.7524    1.0000 </r>
       <r>   -0.7524    1.0000 </r>
       <r>   -0.6239    1.0000 </r>
       <r>   -0.6239    1.0000 </r>
       <r>   -0.5942    1.0000 </r>
       <r>   -0.5666    1.0000 </r>
       <r>    0.1340    1.0000 </r>
       <r>    0.1340    1.0000 </r>
       <r>    0.1489    1.0000 </r>
       <r>    0.1683    1.0000 </r>
       <r>    0.3045    1.0000 </r>
       <r>    0.3765    1.0000 </r>
       <r>    0.3765    1.0000 </r>
       <r>    0.4044    1.0000 </r>
       <r>    0.8020    1.0000 </r>
       <r>    1.3926    1.0000 </r>
       <r>    1.7089    1.0000 </r>
       <r>    1.7089    1.0000 </r>
       <r>    2.1976    1.0000 </r>
       <r>    2.2067    1.0000 </r>
       <r>    2.2633    1.0000 </r>
       <r>    2.2633    1.0000 </r>
       <r>    2.2640    1.0000 </r>
       <r>    2.3021    1.0000 </r>
       <r>    2.3021    1.0000 </r>
       <r>    2.3531    1.0000 </r>
       <r>    2.4167    1.0000 </r>
       <r>    2.4167    1.0000 </r>
       <r>    2.4235    1.0000 </r>
       <r>    2.4539    1.0000 </r>
       <r>    2.4575    1.0000 </r>
       <r>    2.4575    1.0000 </r>
       <r>    2.4769    1.0000 </r>
       <r>    2.4794    1.0000 </r>
       <r>    2.9009    1.0000 </r>
       <r>    2.9009    1.0000 </r>
       <r>    2.9074    1.0000 </r>
       <r>    3.0417    1.0000 </r>
       <r>    3.0992    1.0000 </r>
       <r>    3.1292    1.0000 </r>
       <r>    3.1292    1.0000 </r>
       <r>    3.1402    1.0000 </r>
       <r>    3.2481    1.0000 </r>
       <r>    3.2481    1.0000 </r>
       <r>    3.3783    1.0000 </r>
       <r>    3.3783    1.0000 </r>
       <r>    3.3855    1.0000 </r>
       <r>    3.4981    1.0000 </r>
       <r>    3.6342    1.0000 </r>
       <r>    3.6363    1.0000 </r>
       <r>    3.6363    1.0000 </r>
       <r>    3.6476    1.0000 </r>
       <r>    3.6486    1.0000 </r>
       <r>    3.7655    1.0000 </r>
       <r>    3.7655    1.0000 </r>
       <r>    3.7838    1.0000 </r>
       <r>    3.9373    1.0000 </r>
       <r>    3.9617    1.0000 </r>
       <r>    4.0051    1.0000 </r>
       <r>    4.0236    1.0000 </r>
       <r>    4.0236    1.0000 </r>
       <r>    4.1453    1.0000 </r>
       <r>    4.1949    1.0000 </r>
       <r>    4.1949    1.0000 </r>
       <r>    4.2894    1.0000 </r>
       <r>    4.2918    1.0000 </r>
       <r>    4.7208    1.0000 </r>
       <r>    4.7208    1.0000 </r>
       <r>    4.7775    1.0000 </r>
       <r>    4.7775    1.0000 </r>
       <r>    5.3345    1.0000 </r>
       <r>    5.4034    1.0000 </r>
       <r>    5.4034    1.0000 </r>
       <r>    5.4333    1.0000 </r>
       <r>    5.4713    1.0000 </r>
       <r>    6.4182    1.0000 </r>
       <r>    6.8360    0.0000 </r>
       <r>    7.0083    0.0000 </r>
       <r>    7.1971    0.0000 </r>
       <r>    7.1971    0.0000 </r>
       <r>    7.6396    0.0000 </r>
       <r>    7.7503    0.0000 </r>
       <r>    7.9710    0.0000 </r>
       <r>    8.0589    0.0000 </r>
       <r>    8.0779    0.0000 </r>
       <r>    8.0779    0.0000 </r>
       <r>    8.1806    0.0000 </r>
       <r>    8.2109    0.0000 </r>
       <r>    8.2109    0.0000 </r>
       <r>    8.3098    0.0000 </r>
       <r>    8.3258    0.0000 </r>
       <r>    8.3258    0.0000 </r>
       <r>    8.5152    0.0000 </r>
       <r>    8.6894    0.0000 </r>
       <r>    8.7480    0.0000 </r>
       <r>    8.8087    0.0000 </r>
       <r>    8.8152    0.0000 </r>
       <r>    8.8152    0.0000 </r>
       <r>    8.8273    0.0000 </r>
       <r>    8.8273    0.0000 </r>
       <r>    8.8806    0.0000 </r>
       <r>    8.8808    0.0000 </r>
       <r>    8.9482    0.0000 </r>
       <r>    8.9482    0.0000 </r>
       <r>    8.9895    0.0000 </r>
       <r>    9.0192    0.0000 </r>
       <r>    9.1684    0.0000 </r>
       <r>    9.1684    0.0000 </r>
       <r>    9.2789    0.0000 </r>
       <r>    9.4016    0.0000 </r>
      </set>
      <set comment="kpoint 8">
       <r>   -6.8916    1.0000 </r>
       <r>   -5.4360    1.0000 </r>
       <r>   -5.3863    1.0000 </r>
       <r>   -5.3512    1.0000 </r>
       <r>   -4.7585    1.0000 </r>
       <r>   -4.7206    1.0000 </r>
       <r>   -4.6030    1.0000 </r>
       <r>   -4.4726    1.0000 </r>
       <r>   -4.0931    1.0000 </r>
       <r>   -3.9968    1.0000 </r>
[...]
        <r>  0.0013  0.0050  0.0000 </r>
        <r>  0.0001  0.0009  0.0000 </r>
        <r>  0.0013  0.0050  0.0000 </r>
        <r>  0.0010  0.0057  0.0000 </r>
        <r>  0.0008  0.0017  0.0000 </r>
        <r>  0.0010  0.0057  0.0000 </r>
        <r>  0.0010  0.0057  0.0000 </r>
        <r>  0.0001  0.0002  0.0000 </r>
        <r>  0.0013  0.0050  0.0000 </r>
        <r>  0.0035  0.0013  0.0000 </r>
        <r>  0.0001  0.0002  0.0000 </r>
        <r>  0.0013  0.0050  0.0000 </r>
        <r>  0.0008  0.0017  0.0000 </r>
        <r>  0.0001  0.0009  0.0000 </r>
        <r>  0.0013  0.0050  0.0000 </r>
        <r>  0.0001  0.0002  0.0000 </r>
        <r>  0.0035  0.0013  0.0000 </r>
        <r>  0.0001  0.0009  0.0000 </r>
        <r>  0.0001  0.0002  0.0000 </r>
        <r>  0.0001  0.0009  0.0000 </r>
        <r>  0.0000  0.0001  0.0000 </r>
        <r>  0.0005  0.0011  0.0000 </r>
        <r>  0.0005  0.0011  0.0000 </r>
        <r>  0.0038  0.0013  0.0000 </r>
        <r>  0.0000  0.0008  0.0000 </r>
        <r>  0.0005  0.0011  0.0000 </r>
        <r>  0.0038  0.0013  0.0000 </r>
        <r>  0.0005  0.0011  0.0000 </r>
        <r>  0.0009  0.0029  0.0000 </r>
        <r>  0.0005  0.0011  0.0000 </r>
        <r>  0.0000  0.0008  0.0000 </r>
        <r>  0.0038  0.0013  0.0000 </r>
        <r>  0.0000  0.0008  0.0000 </r>
        <r>  0.0000  0.0008  0.0000 </r>
        <r>  0.0004  0.0071  0.0000 </r>
        <r>  0.0005  0.0011  0.0000 </r>
        <r>  0.0000  0.0069  0.0000 </r>
        <r>  0.0004  0.0071  0.0000 </r>
        <r>  0.0005  0.0011  0.0000 </r>
        <r>  0.0038  0.0013  0.0000 </r>
        <r>  0.0009  0.0029  0.0000 </r>
        <r>  0.0005  0.0011  0.0000 </r>
        <r>  0.0004  0.0071  0.0000 </r>
        <r>  0.0000  0.0069  0.0000 </r>
        <r>  0.0009  0.0029  0.0000 </r>
        <r>  0.0004  0.0071  0.0000 </r>
        <r>  0.0009  0.0029  0.0000 </r>
        <r>  0.0000  0.0000  0.0000 </r>
       </set>
       <set comment="band 139">
        <r>  0.0000  0.0042  0.0000 </r>
        <r>  0.0014  0.0041  0.0000 </r>
        <r>  0.0014  0.0041  0.0000 </r>
        <r>  0.0002  0.0011  0.0000 </r>
        <r>  0.0000  0.0009  0.0000 </r>
        <r>  0.0014  0.0041  0.0000 </r>
        <r>  0.0002  0.0011  0.0000 </r>
        <r>  0.0014  0.0041  0.0000 </r>
        <r>  0.0042  0.0023  0.0000 </r>
        <r>  0.0014  0.0041  0.0000 </r>
        <r>  0.0000  0.0009  0.0000 </r>
        <r>  0.0002  0.0011  0.0000 </r>
        <r>  0.0000  0.0009  0.0000 </r>
        <r>  0.0000  0.0009  0.0000 </r>
        <r>  0.0000  0.0034  0.0000 </r>
        <r>  0.0014  0.0041  0.0000 </r>
        <r>  0.0000  0.0104  0.0000 </r>
        <r>  0.0000  0.0034  0.0000 </r>
        <r>  0.0014  0.0041  0.0000 </r>
        <r>  0.0002  0.0011  0.0000 </r>
        <r>  0.0042  0.0023  0.0000 </r>
        <r>  0.0014  0.0041  0.0000 </r>
        <r>  0.0000  0.0034  0.0000 </r>
        <r>  0.0000  0.0104  0.0000 </r>
        <r>  0.0042  0.0023  0.0000 </r>
        <r>  0.0000  0.0034  0.0000 </r>
        <r>  0.0042  0.0023  0.0000 </r>
        <r>  0.0000  0.0134  0.0000 </r>
        <r>  0.0001  0.0032  0.0000 </r>
        <r>  0.0001  0.0032  0.0000 </r>
        <r>  0.0002  0.0019  0.0000 </r>
        <r>  0.0011  0.0006  0.0000 </r>
        <r>  0.0001  0.0032  0.0000 </r>
        <r>  0.0002  0.0019  0.0000 </r>
        <r>  0.0001  0.0032  0.0000 </r>
        <r>  0.0007  0.0009  0.0000 </r>
        <r>  0.0001  0.0032  0.0000 </r>
        <r>  0.0011  0.0006  0.0000 </r>
        <r>  0.0002  0.0019  0.0000 </r>
        <r>  0.0011  0.0006  0.0000 </r>
        <r>  0.0011  0.0006  0.0000 </r>
        <r>  0.0005  0.0050  0.0000 </r>
        <r>  0.0001  0.0032  0.0000 </r>
        <r>  0.0000  0.0034  0.0000 </r>
        <r>  0.0005  0.0050  0.0000 </r>
        <r>  0.0001  0.0032  0.0000 </r>
        <r>  0.0002  0.0019  0.0000 </r>
        <r>  0.0007  0.0009  0.0000 </r>
        <r>  0.0001  0.0032  0.0000 </r>
        <r>  0.0005  0.0050  0.0000 </r>
        <r>  0.0000  0.0034  0.0000 </r>
        <r>  0.0007  0.0009  0.0000 </r>
        <r>  0.0005  0.0050  0.0000 </r>
        <r>  0.0007  0.0009  0.0000 </r>
        <r>  0.0000  0.0000  0.0000 </r>
       </set>
       <set comment="band 140">
        <r>  0.0000  0.0023  0.0000 </r>
        <r>  0.0002  0.0024  0.0000 </r>
        <r>  0.0001  0.0024  0.0000 </r>
        <r>  0.0007  0.0029  0.0000 </r>
        <r>  0.0001  0.0033  0.0000 </r>
        <r>  0.0001  0.0024  0.0000 </r>
        <r>  0.0007  0.0029  0.0000 </r>
        <r>  0.0002  0.0024  0.0000 </r>
        <r>  0.0009  0.0049  0.0000 </r>
        <r>  0.0001  0.0024  0.0000 </r>
        <r>  0.0001  0.0033  0.0000 </r>
        <r>  0.0007  0.0029  0.0000 </r>
        <r>  0.0001  0.0033  0.0000 </r>
        <r>  0.0001  0.0033  0.0000 </r>
        <r>  0.0007  0.0024  0.0000 </r>
        <r>  0.0002  0.0024  0.0000 </r>
        <r>  0.0000  0.0030  0.0000 </r>
        <r>  0.0007  0.0024  0.0000 </r>
        <r>  0.0002  0.0024  0.0000 </r>
        <r>  0.0007  0.0029  0.0000 </r>
        <r>  0.0009  0.0049  0.0000 </r>
        <r>  0.0002  0.0024  0.0000 </r>
        <r>  0.0007  0.0024  0.0000 </r>
        <r>  0.0000  0.0030  0.0000 </r>
        <r>  0.0009  0.0049  0.0000 </r>
        <r>  0.0007  0.0024  0.0000 </r>
        <r>  0.0009  0.0049  0.0000 </r>
        <r>  0.0010  0.0000  0.0000 </r>
        <r>  0.0007  0.0054  0.0000 </r>
        <r>  0.0007  0.0054  0.0000 </r>
        <r>  0.0005  0.0048  0.0000 </r>
        <r>  0.0002  0.0015  0.0000 </r>
        <r>  0.0007  0.0054  0.0000 </r>
        <r>  0.0005  0.0048  0.0000 </r>
        <r>  0.0007  0.0054  0.0000 </r>
        <r>  0.0000  0.0028  0.0000 </r>
        <r>  0.0007  0.0054  0.0000 </r>
        <r>  0.0002  0.0015  0.0000 </r>
        <r>  0.0005  0.0048  0.0000 </r>
        <r>  0.0002  0.0015  0.0000 </r>
        <r>  0.0002  0.0015  0.0000 </r>
        <r>  0.0000  0.0012  0.0000 </r>
        <r>  0.0007  0.0054  0.0000 </r>
        <r>  0.0007  0.0003  0.0000 </r>
        <r>  0.0000  0.0012  0.0000 </r>
        <r>  0.0007  0.0054  0.0000 </r>
        <r>  0.0005  0.0048  0.0000 </r>
        <r>  0.0000  0.0028  0.0000 </r>
        <r>  0.0007  0.0054  0.0000 </r>
        <r>  0.0000  0.0012  0.0000 </r>
        <r>  0.0007  0.0003  0.0000 </r>
        <r>  0.0000  0.0028  0.0000 </r>
        <r>  0.0000  0.0012  0.0000 </r>
        <r>  0.0000  0.0028  0.0000 </r>
        <r>  0.0000  0.0000  0.0000 </r>
       </set>
       <set comment="band 141">
        <r>  0.0000  0.0009  0.0000 </r>
        <r>  0.0003  0.0033  0.0000 </r>
        <r>  0.0003  0.0033  0.0000 </r>
        <r>  0.0001  0.0063  0.0000 </r>
        <r>  0.0009  0.0017  0.0000 </r>
        <r>  0.0003  0.0032  0.0000 </r>
        <r>  0.0001  0.0064  0.0000 </r>
        <r>  0.0003  0.0033  0.0000 </r>
        <r>  0.0011  0.0015  0.0000 </r>
        <r>  0.0003  0.0032  0.0000 </r>
        <r>  0.0009  0.0017  0.0000 </r>
        <r>  0.0001  0.0063  0.0000 </r>
        <r>  0.0009  0.0017  0.0000 </r>
        <r>  0.0009  0.0017  0.0000 </r>
        <r>  0.0009  0.0013  0.0000 </r>
        <r>  0.0003  0.0033  0.0000 </r>
        <r>  0.0030  0.0014  0.0000 </r>
        <r>  0.0009  0.0013  0.0000 </r>
        <r>  0.0003  0.0033  0.0000 </r>
        <r>  0.0001  0.0064  0.0000 </r>
        <r>  0.0011  0.0015  0.0000 </r>
        <r>  0.0003  0.0033  0.0000 </r>
        <r>  0.0009  0.0014  0.0000 </r>
        <r>  0.0030  0.0014  0.0000 </r>
        <r>  0.0010  0.0016  0.0000 </r>
        <r>  0.0009  0.0014  0.0000 </r>
        <r>  0.0011  0.0016  0.0000 </r>
        <r>  0.0000  0.0118  0.0000 </r>
        <r>  0.0008  0.0027  0.0000 </r>
        <r>  0.0008  0.0027  0.0000 </r>
        <r>  0.0008  0.0015  0.0000 </r>
        <r>  0.0045  0.0008  0.0000 </r>
        <r>  0.0008  0.0027  0.0000 </r>
        <r>  0.0008  0.0015  0.0000 </r>
        <r>  0.0008  0.0027  0.0000 </r>
        <r>  0.0000  0.0046  0.0000 </r>
        <r>  0.0008  0.0027  0.0000 </r>
        <r>  0.0044  0.0008  0.0000 </r>
        <r>  0.0008  0.0015  0.0000 </r>
        <r>  0.0044  0.0008  0.0000 </r>
        <r>  0.0044  0.0008  0.0000 </r>
        <r>  0.0012  0.0017  0.0000 </r>
        <r>  0.0008  0.0027  0.0000 </r>
        <r>  0.0000  0.0008  0.0000 </r>
        <r>  0.0012  0.0017  0.0000 </r>
        <r>  0.0008  0.0027  0.0000 </r>
        <r>  0.0008  0.0015  0.0000 </r>
        <r>  0.0000  0.0046  0.0000 </r>
        <r>  0.0008  0.0027  0.0000 </r>
        <r>  0.0012  0.0017  0.0000 </r>
        <r>  0.0000  0.0008  0.0000 </r>
        <r>  0.0000  0.0046  0.0000 </r>
        <r>  0.0012  0.0017  0.0000 </r>
        <r>  0.0000  0.0046  0.0000 </r>
        <r>  0.0000  0.0000  0.0000 </r>
       </set>
       <set comment="band 142">
        <r>  0.0000  0.0136  0.0000 </r>
        <r>  0.0010  0.0044  0.0000 </r>
        <r>  0.0010  0.0044  0.0000 </r>
        <r>  0.0001  0.0021  0.0000 </r>
        <r>  0.0005  0.0028  0.0000 </r>
        <r>  0.0010  0.0044  0.0000 </r>
        <r>  0.0001  0.0021  0.0000 </r>
        <r>  0.0010  0.0043  0.0000 </r>
        <r>  0.0000  0.0004  0.0000 </r>
        <r>  0.0010  0.0043  0.0000 </r>
        <r>  0.0005  0.0028  0.0000 </r>
        <r>  0.0001  0.0021  0.0000 </r>
        <r>  0.0005  0.0028  0.0000 </r>
        <r>  0.0005  0.0028  0.0000 </r>
        <r>  0.0012  0.0039  0.0000 </r>
        <r>  0.0010  0.0044  0.0000 </r>
        <r>  0.0010  0.0087  0.0000 </r>
        <r>  0.0012  0.0040  0.0000 </r>
        <r>  0.0010  0.0043  0.0000 </r>
        <r>  0.0001  0.0021  0.0000 </r>
        <r>  0.0000  0.0004  0.0000 </r>
        <r>  0.0010  0.0044  0.0000 </r>
        <r>  0.0012  0.0040  0.0000 </r>
        <r>  0.0010  0.0087  0.0000 </r>
        <r>  0.0000  0.0004  0.0000 </r>
        <r>  0.0012  0.0040  0.0000 </r>
        <r>  0.0000  0.0004  0.0000 </r>
        <r>  0.0000  0.0071  0.0000 </r>
        <r>  0.0010  0.0026  0.0000 </r>
        <r>  0.0010  0.0026  0.0000 </r>
        <r>  0.0001  0.0012  0.0000 </r>
        <r>  0.0006  0.0018  0.0000 </r>
        <r>  0.0009  0.0026  0.0000 </r>
        <r>  0.0001  0.0012  0.0000 </r>
        <r>  0.0010  0.0026  0.0000 </r>
        <r>  0.0009  0.0030  0.0000 </r>
        <r>  0.0009  0.0026  0.0000 </r>
        <r>  0.0006  0.0018  0.0000 </r>
        <r>  0.0001  0.0012  0.0000 </r>
        <r>  0.0006  0.0018  0.0000 </r>
        <r>  0.0006  0.0018  0.0000 </r>
        <r>  0.0008  0.0036  0.0000 </r>
        <r>  0.0010  0.0026  0.0000 </r>
        <r>  0.0000  0.0169  0.0000 </r>
        <r>  0.0009  0.0036  0.0000 </r>
        <r>  0.0010  0.0026  0.0000 </r>
        <r>  0.0001  0.0012  0.0000 </r>
        <r>  0.0009  0.0030  0.0000 </r>
        <r>  0.0009  0.0026  0.0000 </r>
        <r>  0.0008  0.0036  0.0000 </r>
        <r>  0.0000  0.0169  0.0000 </r>
        <r>  0.0009  0.0030  0.0000 </r>
        <r>  0.0008  0.0036  0.0000 </r>
        <r>  0.0009  0.0030  0.0000 </r>
        <r>  0.0000  0.0000  0.0000 </r>
       </set>
       <set comment="band 143">
        <r>  0.0000  0.0102  0.0000 </r>
        <r>  0.0003  0.0018  0.0000 </r>
        <r>  0.0003  0.0019  0.0000 </r>
        <r>  0.0024  0.0096  0.0000 </r>
        <r>  0.0022  0.0021  0.0000 </r>
        <r>  0.0003  0.0018  0.0000 </r>
        <r>  0.0023  0.0097  0.0000 </r>
        <r>  0.0003  0.0017  0.0000 </r>
        <r>  0.0000  0.0026  0.0000 </r>
        <r>  0.0003  0.0016  0.0000 </r>
        <r>  0.0023  0.0020  0.0000 </r>
        <r>  0.0023  0.0097  0.0000 </r>
        <r>  0.0023  0.0020  0.0000 </r>
        <r>  0.0022  0.0021  0.0000 </r>
        <r>  0.0010  0.0030  0.0000 </r>
        <r>  0.0004  0.0018  0.0000 </r>
        <r>  0.0000  0.0019  0.0000 </r>
        <r>  0.0009  0.0032  0.0000 </r>
        <r>  0.0003  0.0017  0.0000 </r>
        <r>  0.0024  0.0097  0.0000 </r>
        <r>  0.0000  0.0027  0.0000 </r>
        <r>  0.0003  0.0018  0.0000 </r>
        <r>  0.0011  0.0032  0.0000 </r>
        <r>  0.0000  0.0020  0.0000 </r>
        <r>  0.0000  0.0027  0.0000 </r>
        <r>  0.0009  0.0031  0.0000 </r>
        <r>  0.0000  0.0026  0.0000 </r>
        <r>  0.0000  0.0015  0.0000 </r>
        <r>  0.0025  0.0026  0.0000 </r>
        <r>  0.0025  0.0023  0.0000 </r>
        <r>  0.0001  0.0014  0.0000 </r>
        <r>  0.0004  0.0108  0.0000 </r>
        <r>  0.0023  0.0025  0.0000 </r>
        <r>  0.0001  0.0014  0.0000 </r>
        <r>  0.0024  0.0025  0.0000 </r>
        <r>  0.0006  0.0044  0.0000 </r>
        <r>  0.0023  0.0025  0.0000 </r>
        <r>  0.0004  0.0106  0.0000 </r>
        <r>  0.0001  0.0014  0.0000 </r>
        <r>  0.0004  0.0106  0.0000 </r>
        <r>  0.0004  0.0109  0.0000 </r>
        <r>  0.0001  0.0005  0.0000 </r>
        <r>  0.0026  0.0024  0.0000 </r>
        <r>  0.0015  0.0067  0.0000 </r>
        <r>  0.0001  0.0005  0.0000 </r>
        <r>  0.0024  0.0024  0.0000 </r>
        <r>  0.0001  0.0014  0.0000 </r>
        <r>  0.0005  0.0044  0.0000 </r>
        <r>  0.0024  0.0026  0.0000 </r>
        <r>  0.0001  0.0004  0.0000 </r>
        <r>  0.0015  0.0067  0.0000 </r>
        <r>  0.0005  0.0044  0.0000 </r>
        <r>  0.0001  0.0005  0.0000 </r>
        <r>  0.0006  0.0043  0.0000 </r>
        <r>  0.0001  0.0000  0.0000 </r>
       </set>
       <set comment="band 144">
        <r>  0.0122  0.0000  0.0000 </r>
        <r>  0.0010  0.0036  0.0000 </r>
        <r>  0.0000  0.0043  0.0000 </r>
        <r>  0.0019  0.0041  0.0000 </r>
        <r>  0.0010  0.0003  0.0000 </r>
        <r>  0.0002  0.0031  0.0000 </r>
        <r>  0.0025  0.0049  0.0000 </r>
        <r>  0.0004  0.0035  0.0000 </r>
        <r>  0.0004  0.0011  0.0000 </r>
        <r>  0.0009  0.0050  0.0000 </r>
        <r>  0.0004  0.0004  0.0000 </r>
        <r>  0.0030  0.0052  0.0000 </r>
        <r>  0.0004  0.0007  0.0000 </r>
        <r>  0.0008  0.0001  0.0000 </r>
        <r>  0.0005  0.0074  0.0000 </r>
        <r>  0.0003  0.0048  0.0000 </r>
        <r>  0.0018  0.0004  0.0000 </r>
        <r>  0.0008  0.0058  0.0000 </r>
        <r>  0.0004  0.0052  0.0000 </r>
        <r>  0.0021  0.0041  0.0000 </r>
        <r>  0.0003  0.0025  0.0000 </r>
        <r>  0.0005  0.0037  0.0000 </r>
        <r>  0.0002  0.0082  0.0000 </r>
        <r>  0.0025  0.0004  0.0000 </r>
        <r>  0.0002  0.0023  0.0000 </r>
        <r>  0.0006  0.0070  0.0000 </r>
        <r>  0.0005  0.0014  0.0000 </r>
        <r>  0.0001  0.0005  0.0000 </r>
        <r>  0.0012  0.0088  0.0000 </r>
        <r>  0.0001  0.0093  0.0000 </r>
        <r>  0.0002  0.0019  0.0000 </r>
        <r>  0.0003  0.0044  0.0000 </r>
        <r>  0.0005  0.0096  0.0000 </r>
        <r>  0.0005  0.0015  0.0000 </r>
        <r>  0.0005  0.0093  0.0000 </r>
        <r>  0.0011  0.0019  0.0000 </r>
        <r>  0.0010  0.0090  0.0000 </r>
        <r>  0.0001  0.0063  0.0000 </r>
        <r>  0.0004  0.0011  0.0000 </r>
        <r>  0.0002  0.0043  0.0000 </r>
        <r>  0.0005  0.0062  0.0000 </r>
        <r>  0.0000  0.0040  0.0000 </r>
        <r>  0.0003  0.0090  0.0000 </r>
        <r>  0.0004  0.0016  0.0000 </r>
        <r>  0.0001  0.0037  0.0000 </r>
        <r>  0.0006  0.0087  0.0000 </r>
        <r>  0.0002  0.0009  0.0000 </r>
        <r>  0.0029  0.0019  0.0000 </r>
        <r>  0.0010  0.0091  0.0000 </r>
        <r>  0.0000  0.0044  0.0000 </r>
        <r>  0.0004  0.0010  0.0000 </r>
        <r>  0.0026  0.0016  0.0000 </r>
        <r>  0.0001  0.0041  0.0000 </r>
        <r>  0.0013  0.0024  0.0000 </r>
        <r>  0.0000  0.0001  0.0000 </r>
       </set>
      </set>
     </set>
    </set>
   </array>
  </projected>
 </calculation>
 <structure name="finalpos" >
  <crystal>
   <varray name="basis" >
    <v>       9.97646553       0.00000000       5.75991507 </v>
    <v>       3.32548851       9.40590192       5.75991507 </v>
    <v>       0.00000000       0.00000000      11.51983014 </v>
   </varray>
   <i name="volume">   1080.99386112 </i>
   <varray name="rec_basis" >
    <v>       0.10023590      -0.03543874       0.00000000 </v>
    <v>       0.00000000       0.10631623       0.00000000 </v>
    <v>      -0.05011795      -0.03543874       0.08680684 </v>
   </varray>
  </crystal>
  <varray name="positions" >
   <v>       0.29166667       0.29166667       0.29166667 </v>
   <v>       0.29166667       0.29166667       0.62500000 </v>
   <v>       0.29166667       0.29166667       0.95833333 </v>
   <v>       0.29166667       0.62500000       0.29166667 </v>
   <v>       0.29166667       0.62500000       0.62500000 </v>
   <v>       0.29166667       0.62500000       0.95833333 </v>
   <v>       0.29166667       0.95833333       0.29166667 </v>
   <v>       0.29166667       0.95833333       0.62500000 </v>
   <v>       0.29166667       0.95833333       0.95833333 </v>
   <v>       0.62500000       0.29166667       0.29166667 </v>
   <v>       0.62500000       0.29166667       0.62500000 </v>
   <v>       0.62500000       0.29166667       0.95833333 </v>
   <v>       0.62500000       0.62500000       0.29166667 </v>
   <v>       0.62500000       0.62500000       0.62500000 </v>
   <v>       0.62500000       0.62500000       0.95833333 </v>
   <v>       0.62500000       0.95833333       0.29166667 </v>
   <v>       0.62500000       0.95833333       0.62500000 </v>
   <v>       0.62500000       0.95833333       0.95833333 </v>
   <v>       0.95833333       0.29166667       0.29166667 </v>
   <v>       0.95833333       0.29166667       0.62500000 </v>
   <v>       0.95833333       0.29166667       0.95833333 </v>
   <v>       0.95833333       0.62500000       0.29166667 </v>
   <v>       0.95833333       0.62500000       0.62500000 </v>
   <v>       0.95833333       0.62500000       0.95833333 </v>
   <v>       0.95833333       0.95833333       0.29166667 </v>
   <v>       0.95833333       0.95833333       0.62500000 </v>
   <v>       0.95833333       0.95833333       0.95833333 </v>
   <v>       0.04166667       0.04166667       0.04166667 </v>
   <v>       0.04166667       0.04166667       0.37500000 </v>
   <v>       0.04166667       0.04166667       0.70833333 </v>
   <v>       0.04166667       0.37500000       0.04166667 </v>
   <v>       0.04166667       0.37500000       0.37500000 </v>
   <v>       0.04166667       0.37500000       0.70833333 </v>
   <v>       0.04166667       0.70833333       0.04166667 </v>
   <v>       0.04166667       0.70833333       0.37500000 </v>
   <v>       0.04166667       0.70833333       0.70833333 </v>
   <v>       0.37500000       0.04166667       0.04166667 </v>
   <v>       0.37500000       0.04166667       0.37500000 </v>
   <v>       0.37500000       0.04166667       0.70833333 </v>
   <v>       0.37500000       0.37500000       0.04166667 </v>
   <v>       0.37500000       0.37500000       0.37500000 </v>
   <v>       0.37500000       0.37500000       0.70833333 </v>
   <v>       0.37500000       0.70833333       0.04166667 </v>
   <v>       0.37500000       0.70833333       0.37500000 </v>
   <v>       0.37500000       0.70833333       0.70833333 </v>
   <v>       0.70833333       0.04166667       0.04166667 </v>
   <v>       0.70833333       0.04166667       0.37500000 </v>
   <v>       0.70833333       0.04166667       0.70833333 </v>
   <v>       0.70833333       0.37500000       0.04166667 </v>
   <v>       0.70833333       0.37500000       0.37500000 </v>
   <v>       0.70833333       0.37500000       0.70833333 </v>
   <v>       0.70833333       0.70833333       0.04166667 </v>
   <v>       0.70833333       0.70833333       0.37500000 </v>
   <v>       0.70833333       0.70833333       0.70833333 </v>
   <v>       0.54166667       0.54166667       0.54166667 </v>
  </varray>
 </structure>
</modeling>
