<?xml version="1.0" encoding="ISO-8859-1"?>
<modeling>
 <generator>
  <i name="program" type="string">vasp </i>
  <i name="version" type="string">5.4.4.18Apr17-6-g9f103f2a35  </i>
  <i name="subversion" type="string">(build Jun 19 2019 10:34:07) complex            parallel </i>
  <i name="platform" type="string">LB-5.4 </i>
  <i name="date" type="string">2023 05 15 </i>
  <i name="time" type="string">18:42:43 </i>
 </generator>
 <incar>
  <i type="string" name="SYSTEM"> Si</i>
  <i type="string" name="PREC">normal</i>
  <i type="string" name="ALGO"> Normal</i>
  <i type="int" name="ISPIN">     1</i>
  <i name="AMIX">      0.20000000</i>
  <i type="int" name="NELM">   200</i>
  <i type="int" name="IBRION">     2</i>
  <i name="EDIFF">      0.00001000</i>
  <i name="EDIFFG">     -0.05000000</i>
  <i type="int" name="NSW">   100</i>
  <i type="int" name="ISIF">     2</i>
  <i type="int" name="ISYM">     2</i>
  <i name="ENCUT">    550.00000000</i>
  <i name="NELECT">    217.00000000</i>
  <i type="logical" name="LREAL"> F  </i>
  <i type="int" name="ISMEAR">     0</i>
  <i name="SIGMA">      0.05000000</i>
  <i type="logical" name="LWAVE"> T  </i>
  <i type="logical" name="LCHARG"> T  </i>
  <i type="int" name="LORBIT">    10</i>
  <v type="int" name="KPOINT_BSE">    -1     0     0     0</v>
  <i type="int" name="NELM">   200</i>
 </incar>
 <structure name="primitive_cell" >
  <crystal>
   <varray name="basis" >
    <v>       9.97646553       0.00000000       5.75991507 </v>
    <v>       3.32548851       9.40590192       5.75991507 </v>
    <v>       0.00000000       0.00000000      11.51983014 </v>
   </varray>
   <i name="volume">   1080.99386112 </i>
   <varray name="rec_basis" >
    <v>       0.10023590      -0.03543874       0.00000000 </v>
    <v>       0.00000000       0.10631623       0.00000000 </v>
    <v>      -0.05011795      -0.03543874       0.08680684 </v>
   </varray>
  </crystal>
  <varray name="positions" >
   <v>       0.29166667       0.29166667       0.29166667 </v>
   <v>       0.04166667       0.37500000       0.37500000 </v>
   <v>       0.37500000       0.37500000       0.04166667 </v>
   <v>       0.37500000       0.37500000       0.37500000 </v>
   <v>       0.37500000       0.04166667       0.37500000 </v>
   <v>      -0.04166667       0.29166667       0.29166667 </v>
   <v>      -0.37500000       0.29166667      -0.04166667 </v>
   <v>      -0.04166667       0.29166667      -0.37500000 </v>
   <v>      -0.37500000       0.29166667       0.29166667 </v>
   <v>      -0.37500000      -0.04166667       0.29166667 </v>
   <v>      -0.04166667      -0.37500000       0.29166667 </v>
   <v>       0.29166667      -0.04166667       0.29166667 </v>
   <v>       0.29166667      -0.37500000      -0.04166667 </v>
   <v>       0.29166667      -0.04166667      -0.37500000 </v>
   <v>       0.29166667      -0.37500000       0.29166667 </v>
   <v>       0.29166667       0.29166667      -0.04166667 </v>
   <v>       0.29166667       0.29166667      -0.37500000 </v>
   <v>      -0.29166667       0.37500000       0.04166667 </v>
   <v>       0.04166667       0.04166667       0.37500000 </v>
   <v>      -0.29166667       0.04166667       0.04166667 </v>
   <v>       0.04166667       0.04166667      -0.29166667 </v>
   <v>      -0.29166667       0.04166667       0.37500000 </v>
   <v>       0.37500000      -0.29166667       0.04166667 </v>
   <v>       0.04166667       0.37500000       0.04166667 </v>
   <v>       0.04166667       0.37500000      -0.29166667 </v>
   <v>       0.04166667      -0.29166667       0.04166667 </v>
   <v>       0.04166667      -0.29166667       0.37500000 </v>
   <v>       0.37500000       0.04166667       0.04166667 </v>
   <v>       0.37500000       0.04166667      -0.29166667 </v>
   <v>      -0.04166667      -0.04166667      -0.37500000 </v>
   <v>      -0.37500000      -0.37500000      -0.04166667 </v>
   <v>      -0.37500000      -0.04166667      -0.04166667 </v>
   <v>      -0.04166667      -0.37500000      -0.04166667 </v>
   <v>      -0.37500000      -0.04166667      -0.37500000 </v>
   <v>      -0.04166667      -0.37500000      -0.37500000 </v>
   <v>      -0.29166667       0.37500000       0.37500000 </v>
   <v>      -0.29166667       0.37500000      -0.29166667 </v>
   <v>      -0.29166667      -0.29166667       0.37500000 </v>
   <v>       0.37500000      -0.29166667      -0.29166667 </v>
   <v>       0.37500000      -0.29166667       0.37500000 </v>
   <v>       0.37500000       0.37500000      -0.29166667 </v>
   <v>      -0.37500000       0.29166667      -0.37500000 </v>
   <v>      -0.04166667       0.29166667      -0.04166667 </v>
   <v>      -0.37500000      -0.37500000       0.29166667 </v>
   <v>      -0.04166667      -0.04166667      -0.04166667 </v>
   <v>      -0.37500000      -0.37500000      -0.37500000 </v>
   <v>      -0.04166667      -0.04166667       0.29166667 </v>
   <v>       0.29166667      -0.37500000      -0.37500000 </v>
   <v>       0.29166667      -0.04166667      -0.04166667 </v>
   <v>      -0.29166667       0.04166667      -0.29166667 </v>
   <v>       0.04166667       0.04166667       0.04166667 </v>
   <v>      -0.29166667      -0.29166667      -0.29166667 </v>
   <v>      -0.29166667      -0.29166667       0.04166667 </v>
   <v>       0.04166667      -0.29166667      -0.29166667 </v>
  </varray>
 </structure>
 <varray name="primitive_index" >
  <v type="int" >        1 </v>
  <v type="int" >       32 </v>
  <v type="int" >       40 </v>
  <v type="int" >       41 </v>
  <v type="int" >       38 </v>
  <v type="int" >       19 </v>
  <v type="int" >       12 </v>
  <v type="int" >       20 </v>
  <v type="int" >       10 </v>
  <v type="int" >       16 </v>
  <v type="int" >       22 </v>
  <v type="int" >        7 </v>
  <v type="int" >        6 </v>
  <v type="int" >        8 </v>
  <v type="int" >        4 </v>
  <v type="int" >        3 </v>
  <v type="int" >        2 </v>
  <v type="int" >       49 </v>
  <v type="int" >       29 </v>
  <v type="int" >       46 </v>
  <v type="int" >       30 </v>
  <v type="int" >       47 </v>
  <v type="int" >       43 </v>
  <v type="int" >       31 </v>
  <v type="int" >       33 </v>
  <v type="int" >       34 </v>
  <v type="int" >       35 </v>
  <v type="int" >       37 </v>
  <v type="int" >       39 </v>
  <v type="int" >       26 </v>
  <v type="int" >       15 </v>
  <v type="int" >       18 </v>
  <v type="int" >       24 </v>
  <v type="int" >       17 </v>
  <v type="int" >       23 </v>
  <v type="int" >       50 </v>
  <v type="int" >       51 </v>
  <v type="int" >       53 </v>
  <v type="int" >       45 </v>
  <v type="int" >       44 </v>
  <v type="int" >       42 </v>
  <v type="int" >       11 </v>
  <v type="int" >       21 </v>
  <v type="int" >       13 </v>
  <v type="int" >       27 </v>
  <v type="int" >       14 </v>
  <v type="int" >       25 </v>
  <v type="int" >        5 </v>
  <v type="int" >        9 </v>
  <v type="int" >       48 </v>
  <v type="int" >       28 </v>
  <v type="int" >       54 </v>
  <v type="int" >       52 </v>
  <v type="int" >       36 </v>
 </varray>
 <kpoints>
  <generation param="Gamma">
   <v type="int" name="divisions">       4        4        4 </v>
   <v name="usershift">      0.00000000       0.00000000       0.00000000 </v>
   <v name="genvec1">      0.25000000       0.00000000       0.00000000 </v>
   <v name="genvec2">      0.00000000       0.25000000       0.00000000 </v>
   <v name="genvec3">     -0.00000000      -0.00000000       0.25000000 </v>
   <v name="shift">      0.00000000       0.00000000       0.00000000 </v>
  </generation>
  <varray name="kpointlist" >
   <v>       0.00000000       0.00000000       0.00000000 </v>
   <v>       0.25000000       0.00000000       0.00000000 </v>
   <v>       0.50000000       0.00000000       0.00000000 </v>
   <v>       0.25000000       0.25000000       0.00000000 </v>
   <v>       0.50000000       0.25000000       0.00000000 </v>
   <v>      -0.25000000       0.25000000       0.00000000 </v>
   <v>       0.50000000       0.50000000       0.00000000 </v>
   <v>      -0.25000000       0.50000000       0.25000000 </v>
  </varray>
  <varray name="weights" >
   <v>       0.01562500 </v>
   <v>       0.12500000 </v>
   <v>       0.06250000 </v>
   <v>       0.09375000 </v>
   <v>       0.37500000 </v>
   <v>       0.18750000 </v>
   <v>       0.04687500 </v>
   <v>       0.09375000 </v>
  </varray>
 </kpoints>
 <parameters>
  <separator name="general" >
   <i type="string" name="SYSTEM">Si</i>
   <i type="logical" name="LCOMPAT"> F  </i>
  </separator>
  <separator name="electronic" >
   <i type="string" name="PREC">normal</i>
   <i name="ENMAX">    550.00000000</i>
   <i name="ENAUG">    535.51400000</i>
   <i name="EDIFF">      0.00001000</i>
   <i type="int" name="IALGO">    38</i>
   <i type="int" name="IWAVPR">    11</i>
   <i type="int" name="NBANDS">   144</i>
   <i name="NELECT">    217.00000000</i>
   <i type="int" name="TURBO">     0</i>
   <i type="int" name="IRESTART">     0</i>
   <i type="int" name="NREBOOT">     0</i>
   <i type="int" name="NMIN">     0</i>
   <i name="EREF">      0.00000000</i>
   <separator name="electronic smearing" >
    <i type="int" name="ISMEAR">     0</i>
    <i name="SIGMA">      0.05000000</i>
    <i name="KSPACING">      0.50000000</i>
    <i type="logical" name="KGAMMA"> T  </i>
   </separator>
   <separator name="electronic projectors" >
    <i type="logical" name="LREAL"> F  </i>
    <v name="ROPT">      0.00000000      0.00000000</v>
    <i type="int" name="LMAXPAW">  -100</i>
    <i type="int" name="LMAXMIX">     2</i>
    <i type="logical" name="NLSPLINE"> F  </i>
   </separator>
   <separator name="electronic startup" >
    <i type="int" name="ISTART">     1</i>
    <i type="int" name="ICHARG">     0</i>
    <i type="int" name="INIWAV">     1</i>
   </separator>
   <separator name="electronic spin" >
    <i type="int" name="ISPIN">     1</i>
    <i type="logical" name="LNONCOLLINEAR"> F  </i>
    <v name="MAGMOM">      1.00000000      1.00000000      1.00000000      1.00000000      1.00000000      1.00000000      1.00000000      1.00000000      1.00000000      1.00000000      1.00000000      1.00000000      1.00000000      1.00000000      1.00000000      1.00000000      1.00000000      1.00000000      1.00000000      1.00000000
      1.00000000      1.00000000      1.00000000      1.00000000      1.00000000      1.00000000      1.00000000      1.00000000      1.00000000      1.00000000      1.00000000      1.00000000      1.00000000      1.00000000      1.00000000      1.00000000      1.00000000      1.00000000      1.00000000      1.00000000
      1.00000000      1.00000000      1.00000000      1.00000000      1.00000000      1.00000000      1.00000000      1.00000000      1.00000000      1.00000000      1.00000000      1.00000000      1.00000000      1.00000000</v>
    <i name="NUPDOWN">     -1.00000000</i>
    <i type="logical" name="LSORBIT"> F  </i>
    <v name="SAXIS">      0.00000000      0.00000000      1.00000000</v>
    <i type="logical" name="LSPIRAL"> F  </i>
    <v name="QSPIRAL">      0.00000000      0.00000000      0.00000000</v>
    <i type="logical" name="LZEROZ"> F  </i>
   </separator>
   <separator name="electronic exchange-correlation" >
    <i type="logical" name="LASPH"> F  </i>
    <i type="logical" name="LMETAGGA"> F  </i>
   </separator>
   <separator name="electronic convergence" >
    <i type="int" name="NELM">   200</i>
    <i type="int" name="NELMDL">     0</i>
    <i type="int" name="NELMIN">     2</i>
    <i name="ENINI">    550.00000000</i>
    <separator name="electronic convergence detail" >
     <i type="logical" name="LDIAG"> T  </i>
     <i type="logical" name="LSUBROT"> F  </i>
     <i name="WEIMIN">      0.00100000</i>
     <i name="EBREAK">      0.00000002</i>
     <i name="DEPER">      0.30000000</i>
     <i type="int" name="NRMM">     4</i>
     <i name="TIME">      0.40000000</i>
    </separator>
   </separator>
   <separator name="electronic mixer" >
    <i name="AMIX">      0.20000000</i>
    <i name="BMIX">      1.00000000</i>
    <i name="AMIN">      0.10000000</i>
    <i name="AMIX_MAG">      0.80000000</i>
    <i name="BMIX_MAG">      1.00000000</i>
    <separator name="electronic mixer details" >
     <i type="int" name="IMIX">     4</i>
     <i type="logical" name="MIXFIRST"> F  </i>
     <i type="int" name="MAXMIX">   -45</i>
     <i name="WC">    100.00000000</i>
     <i type="int" name="INIMIX">     1</i>
     <i type="int" name="MIXPRE">     1</i>
     <i type="int" name="MREMOVE">     5</i>
    </separator>
   </separator>
   <separator name="electronic dipolcorrection" >
    <i type="logical" name="LDIPOL"> F  </i>
    <i type="logical" name="LMONO"> F  </i>
    <i type="int" name="IDIPOL">     0</i>
    <i name="EPSILON">      1.00000000</i>
    <v name="DIPOL">   -100.00000000   -100.00000000   -100.00000000</v>
    <i name="EFIELD">      0.00000000</i>
   </separator>
  </separator>
  <separator name="grids" >
   <i type="int" name="NGX">    70</i>
   <i type="int" name="NGY">    70</i>
   <i type="int" name="NGZ">    70</i>
   <i type="int" name="NGXF">   140</i>
   <i type="int" name="NGYF">   140</i>
   <i type="int" name="NGZF">   140</i>
   <i type="logical" name="ADDGRID"> F  </i>
  </separator>
  <separator name="ionic" >
   <i type="int" name="NSW">   100</i>
   <i type="int" name="IBRION">     2</i>
   <i type="int" name="MDALGO">     0</i>
   <i type="int" name="ISIF">     2</i>
   <i name="PSTRESS">      0.00000000</i>
   <i name="EDIFFG">     -0.05000000</i>
   <i type="int" name="NFREE">     1</i>
   <i name="POTIM">      0.50000000</i>
   <i name="SMASS">     -3.00000000</i>
   <i name="SCALEE">      1.00000000</i>
  </separator>
  <separator name="ionic md" >
   <i name="TEBEG">      0.00010000</i>
   <i name="TEEND">      0.00010000</i>
   <i type="int" name="NBLOCK">     1</i>
   <i type="int" name="KBLOCK">   100</i>
   <i type="int" name="NPACO">   256</i>
   <i name="APACO">     16.00000000</i>
  </separator>
  <separator name="symmetry" >
   <i type="int" name="ISYM">     2</i>
   <i name="SYMPREC">      0.00001000</i>
  </separator>
  <separator name="dos" >
   <i type="int" name="LORBIT">    10</i>
   <v name="RWIGS">     -1.00000000     -1.00000000</v>
   <i type="int" name="NEDOS">   301</i>
   <i name="EMIN">     10.00000000</i>
   <i name="EMAX">    -10.00000000</i>
   <i name="EFERMI">      0.00000000</i>
  </separator>
  <separator name="writing" >
   <i type="int" name="NWRITE">     2</i>
   <i type="logical" name="LWAVE"> T  </i>
   <i type="logical" name="LDOWNSAMPLE"> F  </i>
   <i type="logical" name="LCHARG"> T  </i>
   <i type="logical" name="LPARD"> F  </i>
   <i type="logical" name="LVTOT"> F  </i>
   <i type="logical" name="LVHAR"> F  </i>
   <i type="logical" name="LELF"> F  </i>
   <i type="logical" name="LOPTICS"> F  </i>
   <v name="STM">      0.00000000      0.00000000      0.00000000      0.00000000      0.00000000      0.00000000      0.00000000</v>
  </separator>
  <separator name="performance" >
   <i type="int" name="NPAR">    24</i>
   <i type="int" name="NSIM">     4</i>
   <i type="int" name="NBLK">    -1</i>
   <i type="logical" name="LPLANE"> T  </i>
   <i type="logical" name="LSCALAPACK"> T  </i>
   <i type="logical" name="LSCAAWARE"> F  </i>
   <i type="logical" name="LSCALU"> F  </i>
   <i type="logical" name="LASYNC"> F  </i>
   <i type="logical" name="LORBITALREAL"> F  </i>
  </separator>
  <separator name="miscellaneous" >
   <i type="int" name="IDIOT">     3</i>
   <i type="int" name="ISPECIAL">     0</i>
   <i type="logical" name="LMUSIC"> F  </i>
   <v name="POMASS">     10.81100000     28.08500000</v>
   <v name="DARWINR">      0.00000000      0.00000000</v>
   <v name="DARWINV">      1.00000000      1.00000000</v>
   <i type="logical" name="LCORR"> T  </i>
  </separator>
  <i type="logical" name="GGA_COMPAT"> T  </i>
  <i type="logical" name="LBERRY"> F  </i>
  <i type="int" name="ICORELEVEL">     0</i>
  <i type="logical" name="LDAU"> F  </i>
  <i type="int" name="I_CONSTRAINED_M">     0</i>
  <separator name="electronic exchange-correlation" >
   <i type="string" name="GGA">--</i>
   <i type="int" name="VOSKOWN">     0</i>
   <i type="logical" name="LHFCALC"> F  </i>
   <i type="string" name="PRECFOCK"></i>
   <i type="logical" name="LSYMGRAD"> F  </i>
   <i type="logical" name="LHFONE"> F  </i>
   <i type="logical" name="LRHFCALC"> F  </i>
   <i type="logical" name="LTHOMAS"> F  </i>
   <i type="logical" name="LMODELHF"> F  </i>
   <i name="ENCUT4O">     -1.00000000</i>
   <i type="int" name="EXXOEP">     0</i>
   <i type="int" name="FOURORBIT">     0</i>
   <i name="AEXX">      0.00000000</i>
   <i name="HFALPHA">      0.00000000</i>
   <i name="MCALPHA">      0.00000000</i>
   <i name="ALDAX">      1.00000000</i>
   <i name="AGGAX">      1.00000000</i>
   <i name="ALDAC">      1.00000000</i>
   <i name="AGGAC">      1.00000000</i>
   <i type="int" name="NKREDX">     1</i>
   <i type="int" name="NKREDY">     1</i>
   <i type="int" name="NKREDZ">     1</i>
   <i type="logical" name="SHIFTRED"> F  </i>
   <i type="logical" name="ODDONLY"> F  </i>
   <i type="logical" name="EVENONLY"> F  </i>
   <i type="int" name="LMAXFOCK">     0</i>
   <i type="int" name="NMAXFOCKAE">     0</i>
   <i type="logical" name="LFOCKAEDFT"> F  </i>
   <i name="HFSCREEN">      0.00000000</i>
   <i name="HFSCREENC">      0.00000000</i>
   <i type="int" name="NBANDSGWLOW">     0</i>
  </separator>
  <separator name="vdW DFT" >
   <i type="logical" name="LUSE_VDW"> F  </i>
   <i name="Zab_VDW">     -0.84910000</i>
   <i name="PARAM1">      0.12340000</i>
   <i name="PARAM2">      1.00000000</i>
   <i name="PARAM3">      0.00000000</i>
  </separator>
  <separator name="model GW" >
   <i type="int" name="MODEL_GW">     0</i>
   <i name="MODEL_EPS0">     12.01104290</i>
   <i name="MODEL_ALPHA">      1.00000000</i>
  </separator>
  <separator name="linear response parameters" >
   <i type="logical" name="LEPSILON"> F  </i>
   <i type="logical" name="LRPA"> F  </i>
   <i type="logical" name="LNABLA"> F  </i>
   <i type="logical" name="LVEL"> F  </i>
   <i type="int" name="KINTER">     0</i>
   <i name="CSHIFT">      0.10000000</i>
   <i name="OMEGAMAX">     -1.00000000</i>
   <i name="DEG_THRESHOLD">      0.00200000</i>
   <i name="RTIME">     -0.10000000</i>
   <i name="WPLASMAI">      0.00000000</i>
   <v name="DFIELD">      0.00000000      0.00000000      0.00000000</v>
   <v name="WPLASMA">      0.00000000      0.00000000      0.00000000      0.00000000      0.00000000      0.00000000      0.00000000      0.00000000      0.00000000</v>
  </separator>
  <separator name="orbital magnetization" >
   <i type="logical" name="NUCIND"> F  </i>
   <v name="MAGPOS">      0.00000000      0.00000000      0.00000000</v>
   <i type="logical" name="LNICSALL"> T  </i>
   <i type="logical" name="ORBITALMAG"> F  </i>
   <i type="logical" name="LMAGBLOCH"> F  </i>
   <i type="logical" name="LCHIMAG"> F  </i>
   <i type="logical" name="LGAUGE"> T  </i>
   <i type="int" name="MAGATOM">     0</i>
   <v name="MAGDIPOL">      0.00000000      0.00000000      0.00000000</v>
   <v name="AVECCONST">      0.00000000      0.00000000      0.00000000</v>
  </separator>
  <separator name="response functions" >
   <i type="logical" name="LADDER"> F  </i>
   <i type="logical" name="LRPAFORCE"> F  </i>
   <i type="logical" name="LFXC"> F  </i>
   <i type="logical" name="LHARTREE"> T  </i>
   <i type="int" name="IBSE">     0</i>
   <v type="int" name="KPOINT">    -1     0     0     0</v>
   <i type="logical" name="LTCTE"> F  </i>
   <i type="logical" name="LTETE"> F  </i>
   <i type="logical" name="LTRIPLET"> F  </i>
   <i type="logical" name="LFXCEPS"> F  </i>
   <i type="logical" name="LFXHEG"> F  </i>
   <i type="int" name="NATURALO">     2</i>
   <i type="logical" name="L2ORDER"> F  </i>
   <i type="logical" name="LMP2LT"> F  </i>
   <i type="logical" name="LUSEW"> F  </i>
   <i name="ENCUTGW">     -2.00000000</i>
   <i name="ENCUTGWSOFT">     -2.00000000</i>
   <i name="ENCUTLF">     -1.00000000</i>
   <i type="int" name="LMAXMP2">    -1</i>
   <i name="SCISSOR">      0.00000000</i>
   <i type="int" name="NOMEGA">     0</i>
   <i type="int" name="NOMEGAR">     0</i>
   <i type="int" name="NBANDSGW">    -1</i>
   <i type="int" name="NBANDSO">    -1</i>
   <i type="int" name="NBANDSV">    -1</i>
   <i type="int" name="NELM">   200</i>
   <i type="int" name="NELMHF">     1</i>
   <i type="int" name="DIM">     3</i>
   <i type="int" name="ANTIRES">     0</i>
   <i name="OMEGAMAX">    -30.00000000</i>
   <i name="OMEGAMIN">    -30.00000000</i>
   <i name="OMEGATL">   -200.00000000</i>
   <i type="int" name="OMEGAGRID">   140</i>
   <i name="CSHIFT">     -0.10000000</i>
   <i type="logical" name="SELFENERGY"> F  </i>
   <i type="logical" name="LSPECTRAL"> F  </i>
   <i type="logical" name="LSPECTRALGW"> F  </i>
   <i type="logical" name="LSINGLES"> F  </i>
   <i type="logical" name="LFERMIGW"> F  </i>
   <i type="logical" name="ODDONLYGW"> F  </i>
   <i type="logical" name="EVENONLYGW"> F  </i>
   <i type="int" name="NKREDLFX">     1</i>
   <i type="int" name="NKREDLFY">     1</i>
   <i type="int" name="NKREDLFZ">     1</i>
   <i type="int" name="MAXMEM">  2800</i>
   <i type="int" name="TELESCOPE">     0</i>
   <i type="int" name="TAUPAR">     1</i>
   <i type="int" name="OMEGAPAR">    -1</i>
   <i name="LAMBDA">      1.00000000</i>
  </separator>
  <separator name="External order field" >
   <i name="OFIELD_KAPPA">      0.00000000</i>
   <v name="OFIELD_K">      0.00000000      0.00000000      0.00000000</v>
   <i name="OFIELD_Q6_NEAR">      0.00000000</i>
   <i name="OFIELD_Q6_FAR">      0.00000000</i>
   <i name="OFIELD_A">      0.00000000</i>
  </separator>
 </parameters>
 <atominfo>
  <atoms>      54 </atoms>
  <types>       2 </types>
  <array name="atoms" >
   <dimension dim="1">ion</dimension>
   <field type="string">element</field>
   <field type="int">atomtype</field>
   <set>
    <rc><c>B </c><c>   1</c></rc>
    <rc><c>Si</c><c>   2</c></rc>
    <rc><c>Si</c><c>   2</c></rc>
    <rc><c>Si</c><c>   2</c></rc>
    <rc><c>Si</c><c>   2</c></rc>
    <rc><c>Si</c><c>   2</c></rc>
    <rc><c>Si</c><c>   2</c></rc>
    <rc><c>Si</c><c>   2</c></rc>
    <rc><c>Si</c><c>   2</c></rc>
    <rc><c>Si</c><c>   2</c></rc>
    <rc><c>Si</c><c>   2</c></rc>
    <rc><c>Si</c><c>   2</c></rc>
    <rc><c>Si</c><c>   2</c></rc>
    <rc><c>Si</c><c>   2</c></rc>
    <rc><c>Si</c><c>   2</c></rc>
    <rc><c>Si</c><c>   2</c></rc>
    <rc><c>Si</c><c>   2</c></rc>
    <rc><c>Si</c><c>   2</c></rc>
    <rc><c>Si</c><c>   2</c></rc>
    <rc><c>Si</c><c>   2</c></rc>
    <rc><c>Si</c><c>   2</c></rc>
    <rc><c>Si</c><c>   2</c></rc>
    <rc><c>Si</c><c>   2</c></rc>
    <rc><c>Si</c><c>   2</c></rc>
    <rc><c>Si</c><c>   2</c></rc>
    <rc><c>Si</c><c>   2</c></rc>
    <rc><c>Si</c><c>   2</c></rc>
    <rc><c>Si</c><c>   2</c></rc>
    <rc><c>Si</c><c>   2</c></rc>
    <rc><c>Si</c><c>   2</c></rc>
    <rc><c>Si</c><c>   2</c></rc>
    <rc><c>Si</c><c>   2</c></rc>
    <rc><c>Si</c><c>   2</c></rc>
    <rc><c>Si</c><c>   2</c></rc>
    <rc><c>Si</c><c>   2</c></rc>
    <rc><c>Si</c><c>   2</c></rc>
    <rc><c>Si</c><c>   2</c></rc>
    <rc><c>Si</c><c>   2</c></rc>
    <rc><c>Si</c><c>   2</c></rc>
    <rc><c>Si</c><c>   2</c></rc>
    <rc><c>Si</c><c>   2</c></rc>
    <rc><c>Si</c><c>   2</c></rc>
    <rc><c>Si</c><c>   2</c></rc>
    <rc><c>Si</c><c>   2</c></rc>
    <rc><c>Si</c><c>   2</c></rc>
    <rc><c>Si</c><c>   2</c></rc>
    <rc><c>Si</c><c>   2</c></rc>
    <rc><c>Si</c><c>   2</c></rc>
    <rc><c>Si</c><c>   2</c></rc>
    <rc><c>Si</c><c>   2</c></rc>
    <rc><c>Si</c><c>   2</c></rc>
    <rc><c>Si</c><c>   2</c></rc>
    <rc><c>Si</c><c>   2</c></rc>
    <rc><c>Si</c><c>   2</c></rc>
   </set>
  </array>
  <array name="atomtypes" >
   <dimension dim="1">type</dimension>
   <field type="int">atomspertype</field>
   <field type="string">element</field>
   <field>mass</field>
   <field>valence</field>
   <field type="string">pseudopotential</field>
   <set>
    <rc><c>   1</c><c>B </c><c>     10.81100000</c><c>      3.00000000</c><c>  PAW_PBE B 06Sep2000                   </c></rc>
    <rc><c>  53</c><c>Si</c><c>     28.08500000</c><c>      4.00000000</c><c>  PAW_PBE Si 05Jan2001                  </c></rc>
   </set>
  </array>
 </atominfo>
 <structure name="initialpos" >
  <crystal>
   <varray name="basis" >
    <v>       9.97646553       0.00000000       5.75991507 </v>
    <v>       3.32548851       9.40590192       5.75991507 </v>
    <v>       0.00000000       0.00000000      11.51983014 </v>
   </varray>
   <i name="volume">   1080.99386112 </i>
   <varray name="rec_basis" >
    <v>       0.10023590      -0.03543874       0.00000000 </v>
    <v>       0.00000000       0.10631623       0.00000000 </v>
    <v>      -0.05011795      -0.03543874       0.08680684 </v>
   </varray>
  </crystal>
  <varray name="positions" >
   <v>       0.29166667       0.29166667       0.29166667 </v>
   <v>       0.29166667       0.29166667       0.62500000 </v>
   <v>       0.29166667       0.29166667       0.95833333 </v>
   <v>       0.29166667       0.62500000       0.29166667 </v>
   <v>       0.29166667       0.62500000       0.62500000 </v>
   <v>       0.29166667       0.62500000       0.95833333 </v>
   <v>       0.29166667       0.95833333       0.29166667 </v>
   <v>       0.29166667       0.95833333       0.62500000 </v>
   <v>       0.29166667       0.95833333       0.95833333 </v>
   <v>       0.62500000       0.29166667       0.29166667 </v>
   <v>       0.62500000       0.29166667       0.62500000 </v>
   <v>       0.62500000       0.29166667       0.95833333 </v>
   <v>       0.62500000       0.62500000       0.29166667 </v>
   <v>       0.62500000       0.62500000       0.62500000 </v>
   <v>       0.62500000       0.62500000       0.95833333 </v>
   <v>       0.62500000       0.95833333       0.29166667 </v>
   <v>       0.62500000       0.95833333       0.62500000 </v>
   <v>       0.62500000       0.95833333       0.95833333 </v>
   <v>       0.95833333       0.29166667       0.29166667 </v>
   <v>       0.95833333       0.29166667       0.62500000 </v>
   <v>       0.95833333       0.29166667       0.95833333 </v>
   <v>       0.95833333       0.62500000       0.29166667 </v>
   <v>       0.95833333       0.62500000       0.62500000 </v>
   <v>       0.95833333       0.62500000       0.95833333 </v>
   <v>       0.95833333       0.95833333       0.29166667 </v>
   <v>       0.95833333       0.95833333       0.62500000 </v>
   <v>       0.95833333       0.95833333       0.95833333 </v>
   <v>       0.04166667       0.04166667       0.04166667 </v>
   <v>       0.04166667       0.04166667       0.37500000 </v>
   <v>       0.04166667       0.04166667       0.70833333 </v>
   <v>       0.04166667       0.37500000       0.04166667 </v>
   <v>       0.04166667       0.37500000       0.37500000 </v>
   <v>       0.04166667       0.37500000       0.70833333 </v>
   <v>       0.04166667       0.70833333       0.04166667 </v>
   <v>       0.04166667       0.70833333       0.37500000 </v>
   <v>       0.04166667       0.70833333       0.70833333 </v>
   <v>       0.37500000       0.04166667       0.04166667 </v>
   <v>       0.37500000       0.04166667       0.37500000 </v>
   <v>       0.37500000       0.04166667       0.70833333 </v>
   <v>       0.37500000       0.37500000       0.04166667 </v>
   <v>       0.37500000       0.37500000       0.37500000 </v>
   <v>       0.37500000       0.37500000       0.70833333 </v>
   <v>       0.37500000       0.70833333       0.04166667 </v>
   <v>       0.37500000       0.70833333       0.37500000 </v>
   <v>       0.37500000       0.70833333       0.70833333 </v>
   <v>       0.70833333       0.04166667       0.04166667 </v>
   <v>       0.70833333       0.04166667       0.37500000 </v>
   <v>       0.70833333       0.04166667       0.70833333 </v>
   <v>       0.70833333       0.37500000       0.04166667 </v>
   <v>       0.70833333       0.37500000       0.37500000 </v>
   <v>       0.70833333       0.37500000       0.70833333 </v>
   <v>       0.70833333       0.70833333       0.04166667 </v>
   <v>       0.70833333       0.70833333       0.37500000 </v>
   <v>       0.70833333       0.70833333       0.70833333 </v>
  </varray>
 </structure>
 <calculation>
  <scstep>
   <time name="dav">    2.90    2.93</time>
   <time name="total">    3.84    3.89</time>
   <energy>
    <i name="alphaZ">     93.27357238 </i>
    <i name="ewald">  -6115.53854741 </i>
    <i name="hartreedc">   -405.56294817 </i>
    <i name="XCdc">   -464.91329510 </i>
    <i name="pawpsdc">  23103.53881776 </i>
    <i name="pawaedc"> -22176.34486399 </i>
    <i name="eentropy">     -0.01153770 </i>
    <i name="bandstr">    151.93842714 </i>
    <i name="atom">   5533.69225236 </i>
    <i name="e_fr_energy">   -279.92812273 </i>
    <i name="e_wo_entrp">   -279.91658503 </i>
    <i name="e_0_energy">   -279.92235388 </i>
   </energy>
  </scstep>
  <scstep>
   <time name="dav">    3.10    3.92</time>
   <time name="total">    3.75    5.00</time>
   <energy>
    <i name="alphaZ">     93.27357238 </i>
    <i name="ewald">  -6115.53854741 </i>
    <i name="hartreedc">   -405.56275043 </i>
    <i name="XCdc">   -464.91330825 </i>
    <i name="pawpsdc">  23103.55849246 </i>
    <i name="pawaedc"> -22176.36452842 </i>
    <i name="eentropy">     -0.01153771 </i>
    <i name="bandstr">    151.93823230 </i>
    <i name="atom">   5533.69225236 </i>
    <i name="e_fr_energy">   -279.92812271 </i>
    <i name="e_wo_entrp">   -279.91658500 </i>
    <i name="e_0_energy">   -279.92235386 </i>
   </energy>
  </scstep>
  <structure>
   <crystal>
    <varray name="basis" >
     <v>       9.97646553       0.00000000       5.75991507 </v>
     <v>       3.32548851       9.40590192       5.75991507 </v>
     <v>       0.00000000       0.00000000      11.51983014 </v>
    </varray>
    <i name="volume">   1080.99386112 </i>
    <varray name="rec_basis" >
     <v>       0.10023590      -0.03543874       0.00000000 </v>
     <v>       0.00000000       0.10631623       0.00000000 </v>
     <v>      -0.05011795      -0.03543874       0.08680684 </v>
    </varray>
   </crystal>
   <varray name="positions" >
    <v>       0.29166667       0.29166667       0.29166667 </v>
    <v>       0.29166667       0.29166667       0.62500000 </v>
    <v>       0.29166667       0.29166667       0.95833333 </v>
    <v>       0.29166667       0.62500000       0.29166667 </v>
    <v>       0.29166667       0.62500000       0.62500000 </v>
    <v>       0.29166667       0.62500000       0.95833333 </v>
    <v>       0.29166667       0.95833333       0.29166667 </v>
    <v>       0.29166667       0.95833333       0.62500000 </v>
    <v>       0.29166667       0.95833333       0.95833333 </v>
    <v>       0.62500000       0.29166667       0.29166667 </v>
    <v>       0.62500000       0.29166667       0.62500000 </v>
    <v>       0.62500000       0.29166667       0.95833333 </v>
    <v>       0.62500000       0.62500000       0.29166667 </v>
    <v>       0.62500000       0.62500000       0.62500000 </v>
    <v>       0.62500000       0.62500000       0.95833333 </v>
    <v>       0.62500000       0.95833333       0.29166667 </v>
    <v>       0.62500000       0.95833333       0.62500000 </v>
    <v>       0.62500000       0.95833333       0.95833333 </v>
    <v>       0.95833333       0.29166667       0.29166667 </v>
    <v>       0.95833333       0.29166667       0.62500000 </v>
    <v>       0.95833333       0.29166667       0.95833333 </v>
    <v>       0.95833333       0.62500000       0.29166667 </v>
    <v>       0.95833333       0.62500000       0.62500000 </v>
    <v>       0.95833333       0.62500000       0.95833333 </v>
    <v>       0.95833333       0.95833333       0.29166667 </v>
    <v>       0.95833333       0.95833333       0.62500000 </v>
    <v>       0.95833333       0.95833333       0.95833333 </v>
    <v>       0.04166667       0.04166667       0.04166667 </v>
    <v>       0.04166667       0.04166667       0.37500000 </v>
    <v>       0.04166667       0.04166667       0.70833333 </v>
    <v>       0.04166667       0.37500000       0.04166667 </v>
    <v>       0.04166667       0.37500000       0.37500000 </v>
    <v>       0.04166667       0.37500000       0.70833333 </v>
    <v>       0.04166667       0.70833333       0.04166667 </v>
    <v>       0.04166667       0.70833333       0.37500000 </v>
    <v>       0.04166667       0.70833333       0.70833333 </v>
    <v>       0.37500000       0.04166667       0.04166667 </v>
    <v>       0.37500000       0.04166667       0.37500000 </v>
    <v>       0.37500000       0.04166667       0.70833333 </v>
    <v>       0.37500000       0.37500000       0.04166667 </v>
    <v>       0.37500000       0.37500000       0.37500000 </v>
    <v>       0.37500000       0.37500000       0.70833333 </v>
    <v>       0.37500000       0.70833333       0.04166667 </v>
    <v>       0.37500000       0.70833333       0.37500000 </v>
    <v>       0.37500000       0.70833333       0.70833333 </v>
    <v>       0.70833333       0.04166667       0.04166667 </v>
    <v>       0.70833333       0.04166667       0.37500000 </v>
    <v>       0.70833333       0.04166667       0.70833333 </v>
    <v>       0.70833333       0.37500000       0.04166667 </v>
    <v>       0.70833333       0.37500000       0.37500000 </v>
    <v>       0.70833333       0.37500000       0.70833333 </v>
    <v>       0.70833333       0.70833333       0.04166667 </v>
    <v>       0.70833333       0.70833333       0.37500000 </v>
    <v>       0.70833333       0.70833333       0.70833333 </v>
   </varray>
  </structure>
  <varray name="forces" >
   <v>       0.00000000      -0.00000000       0.00000000 </v>
   <v>       0.16887396       0.11941192      -0.06814122 </v>
   <v>       0.16887396       0.11941192       0.06814122 </v>
   <v>       0.06476630      -0.17504900       0.11217853 </v>
   <v>       0.04239451      -0.01498872       0.00000000 </v>
   <v>       0.06476630      -0.17504900      -0.11217853 </v>
   <v>       0.10410766      -0.06377485       0.18031975 </v>
   <v>       0.10410766      -0.06377485      -0.18031975 </v>
   <v>       0.06234536      -0.02204241       0.00000000 </v>
   <v>      -0.14344901       0.11941192       0.11217853 </v>
   <v>       0.00000000       0.04496617       0.00000000 </v>
   <v>      -0.14344901       0.11941192      -0.11217853 </v>
   <v>      -0.02119726      -0.01498872       0.03671472 </v>
   <v>      -0.02119726      -0.01498872      -0.03671472 </v>
   <v>      -0.00467606      -0.00330647       0.00000000 </v>
   <v>      -0.20821531      -0.06377485       0.00000000 </v>
   <v>      -0.00233803       0.00330647      -0.00404958 </v>
   <v>      -0.00233803       0.00330647       0.00404958 </v>
   <v>      -0.02542495       0.11941192       0.18031975 </v>
   <v>      -0.02542495       0.11941192      -0.18031975 </v>
   <v>       0.00000000       0.06612724       0.00000000 </v>
   <v>      -0.12953261      -0.17504900       0.00000000 </v>
   <v>       0.00233803      -0.00330647      -0.00404958 </v>
   <v>       0.00233803      -0.00330647       0.00404958 </v>
   <v>      -0.03117268      -0.02204241       0.05399266 </v>
   <v>       0.00467606       0.00330647       0.00000000 </v>
   <v>      -0.03117268      -0.02204241      -0.05399266 </v>
   <v>       0.00000000      -0.00000000       0.00000000 </v>
   <v>       0.02943396       0.02081295      -0.04827323 </v>
   <v>       0.02943396       0.02081295       0.04827323 </v>
   <v>       0.00078170      -0.06022788       0.00135394 </v>
   <v>       2.12347417      -0.75076150       0.00000000 </v>
   <v>       0.00078170      -0.06022788      -0.00135394 </v>
   <v>       0.02865226       0.01860197       0.04962717 </v>
   <v>       0.02865226       0.01860197      -0.04962717 </v>
   <v>      -0.00625786       0.00221249       0.00000000 </v>
   <v>      -0.05652282       0.02081295       0.00135394 </v>
   <v>       0.00000000       2.25228449       0.00000000 </v>
   <v>      -0.05652282       0.02081295      -0.00135394 </v>
   <v>      -1.06173709      -0.75076150       1.83898258 </v>
   <v>      -1.06173709      -0.75076150      -1.83898258 </v>
   <v>      -0.14340640      -0.10140364       0.00000000 </v>
   <v>      -0.05730452       0.01860197       0.00000000 </v>
   <v>      -0.07170320       0.10140364      -0.12419358 </v>
   <v>      -0.07170320       0.10140364       0.12419358 </v>
   <v>       0.02708886       0.02081295       0.04962717 </v>
   <v>       0.02708886       0.02081295      -0.04962717 </v>
   <v>       0.00000000      -0.00663746       0.00000000 </v>
   <v>      -0.00156340      -0.06022788       0.00000000 </v>
   <v>       0.07170320      -0.10140364      -0.12419358 </v>
   <v>       0.07170320      -0.10140364       0.12419358 </v>
   <v>       0.00312893       0.00221249      -0.00541947 </v>
   <v>       0.14340640       0.10140364       0.00000000 </v>
   <v>       0.00312893       0.00221249       0.00541947 </v>
  </varray>
  <varray name="stress" >
   <v>      35.97318919       0.00000000       0.00000000 </v>
   <v>       0.00000000      35.97318931       0.00000000 </v>
   <v>      -0.00000000      -0.00000000      35.97318932 </v>
  </varray>
  <energy>
   <i name="e_fr_energy">   -279.92812271 </i>
   <i name="e_wo_entrp">   -279.92235386 </i>
   <i name="e_0_energy">     -0.01153771 </i>
  </energy>
  <time name="totalsc">   21.05   22.58</time>
 </calculation>
 <calculation>
  <scstep>
   <time name="dav">    3.60    3.64</time>
   <time name="total">    4.45    4.50</time>
   <energy>
    <i name="alphaZ">     93.27357238 </i>
    <i name="ewald">  -6118.61557051 </i>
    <i name="hartreedc">   -404.32755370 </i>
    <i name="XCdc">   -464.97182736 </i>
    <i name="pawpsdc">  23103.61406206 </i>
    <i name="pawaedc"> -22176.42008416 </i>
    <i name="eentropy">     -0.01150742 </i>
    <i name="bandstr">    153.04587297 </i>
    <i name="atom">   5533.69225236 </i>
    <i name="e_fr_energy">   -280.72078338 </i>
    <i name="e_wo_entrp">   -280.70927596 </i>
    <i name="e_0_energy">   -280.71502967 </i>
   </energy>
  </scstep>
  <scstep>
   <time name="dav">    7.00    7.46</time>
   <time name="total">    7.99    8.47</time>
   <energy>
    <i name="e_fr_energy">   -280.77099178 </i>
    <i name="e_wo_entrp">   -280.75948242 </i>
    <i name="e_0_energy">   -280.76523710 </i>
   </energy>
  </scstep>
  <scstep>
   <time name="dav">    4.51    4.56</time>
   <time name="total">    4.92    4.97</time>
   <energy>
    <i name="e_fr_energy">   -280.75798771 </i>
    <i name="e_wo_entrp">   -280.74647920 </i>
    <i name="e_0_energy">   -280.75223346 </i>
   </energy>
  </scstep>
  <scstep>
   <time name="dav">    3.80    3.84</time>
   <time name="total">    4.06    4.10</time>
   <energy>
    <i name="e_fr_energy">   -280.75157757 </i>
    <i name="e_wo_entrp">   -280.74006913 </i>
    <i name="e_0_energy">   -280.74582335 </i>
   </energy>
  </scstep>
  <scstep>
   <time name="dav">    4.33    4.37</time>
   <time name="total">    5.12    5.18</time>
   <energy>
    <i name="e_fr_energy">   -280.75148507 </i>
    <i name="e_wo_entrp">   -280.73997703 </i>
    <i name="e_0_energy">   -280.74573105 </i>
   </energy>
  </scstep>
  <scstep>
   <time name="dav">    6.69    6.76</time>
   <time name="total">    7.08    7.15</time>
   <energy>
    <i name="e_fr_energy">   -280.75143737 </i>
    <i name="e_wo_entrp">   -280.73992989 </i>
    <i name="e_0_energy">   -280.74568363 </i>
   </energy>
  </scstep>
  <scstep>
   <time name="dav">    4.50    4.62</time>
   <time name="total">    5.38    5.56</time>
   <energy>
    <i name="e_fr_energy">   -280.75141745 </i>
    <i name="e_wo_entrp">   -280.73991039 </i>
    <i name="e_0_energy">   -280.74566392 </i>
   </energy>
  </scstep>
  <scstep>
   <time name="dav">    4.67    5.04</time>
   <time name="total">    5.54    5.93</time>
   <energy>
    <i name="alphaZ">     93.27357238 </i>
    <i name="ewald">  -6118.61557051 </i>
    <i name="hartreedc">   -404.70094091 </i>
    <i name="XCdc">   -464.97843982 </i>
    <i name="pawpsdc">  22954.28864494 </i>
    <i name="pawaedc"> -22027.02073006 </i>
    <i name="eentropy">     -0.01150700 </i>
    <i name="bandstr">    153.32130056 </i>
    <i name="atom">   5533.69225236 </i>
    <i name="e_fr_energy">   -280.75141805 </i>
    <i name="e_wo_entrp">   -280.73991106 </i>
    <i name="e_0_energy">   -280.74566455 </i>
   </energy>
  </scstep>
  <structure>
   <crystal>
    <varray name="basis" >
     <v>       9.97646553       0.00000000       5.75991507 </v>
     <v>       3.32548851       9.40590192       5.75991507 </v>
     <v>       0.00000000       0.00000000      11.51983014 </v>
    </varray>
    <i name="volume">   1080.99386112 </i>
    <varray name="rec_basis" >
     <v>       0.10023590      -0.03543874       0.00000000 </v>
     <v>       0.00000000       0.10631623       0.00000000 </v>
     <v>      -0.05011795      -0.03543874       0.08680684 </v>
    </varray>
   </crystal>
   <varray name="positions" >
    <v>       0.29166667       0.29166667       0.29166667 </v>
    <v>       0.29227913       0.29227913       0.62410218 </v>
    <v>       0.29227913       0.29227913       0.95800623 </v>
    <v>       0.29227913       0.62410218       0.29227913 </v>
    <v>       0.29189730       0.62492312       0.62492312 </v>
    <v>       0.29227913       0.62410218       0.95800623 </v>
    <v>       0.29227913       0.95800623       0.29227913 </v>
    <v>       0.29227913       0.95800623       0.62410218 </v>
    <v>       0.29200583       0.95822028       0.95822028 </v>
    <v>       0.62410218       0.29227913       0.29227913 </v>
    <v>       0.62492312       0.29189730       0.62492312 </v>
    <v>       0.62410218       0.29227913       0.95800623 </v>
    <v>       0.62492312       0.62492312       0.29189730 </v>
    <v>       0.62492312       0.62492312       0.62492312 </v>
    <v>       0.62498304       0.62498304       0.95835029 </v>
    <v>       0.62410218       0.95800623       0.29227913 </v>
    <v>       0.62498304       0.95835029       0.62498304 </v>
    <v>       0.62498304       0.95835029       0.95835029 </v>
    <v>       0.95800623       0.29227913       0.29227913 </v>
    <v>       0.95800623       0.29227913       0.62410218 </v>
    <v>       0.95822028       0.29200583       0.95822028 </v>
    <v>       0.95800623       0.62410218       0.29227913 </v>
    <v>       0.95835029       0.62498304       0.62498304 </v>
    <v>       0.95835029       0.62498304       0.95835029 </v>
    <v>       0.95822028       0.95822028       0.29200583 </v>
    <v>       0.95835029       0.95835029       0.62498304 </v>
    <v>       0.95822028       0.95822028       0.95822028 </v>
    <v>       0.04166667       0.04166667       0.04166667 </v>
    <v>       0.04177342       0.04177342       0.37469109 </v>
    <v>       0.04177342       0.04177342       0.70842874 </v>
    <v>       0.04177342       0.37469109       0.04177342 </v>
    <v>       0.05321858       0.37114936       0.37114936 </v>
    <v>       0.04177342       0.37469109       0.70842874 </v>
    <v>       0.04177342       0.70842874       0.04177342 </v>
    <v>       0.04177342       0.70842874       0.37469109 </v>
    <v>       0.04163262       0.70834468       0.70834468 </v>
    <v>       0.37469109       0.04177342       0.04177342 </v>
    <v>       0.37114936       0.05321858       0.37114936 </v>
    <v>       0.37469109       0.04177342       0.70842874 </v>
    <v>       0.37114936       0.37114936       0.05321858 </v>
    <v>       0.37114936       0.37114936       0.37114936 </v>
    <v>       0.37447990       0.37447990       0.70885343 </v>
    <v>       0.37469109       0.70842874       0.04177342 </v>
    <v>       0.37447990       0.70885343       0.37447990 </v>
    <v>       0.37447990       0.70885343       0.70885343 </v>
    <v>       0.70842874       0.04177342       0.04177342 </v>
    <v>       0.70842874       0.04177342       0.37469109 </v>
    <v>       0.70834468       0.04163262       0.70834468 </v>
    <v>       0.70842874       0.37469109       0.04177342 </v>
    <v>       0.70885343       0.37447990       0.37447990 </v>
    <v>       0.70885343       0.37447990       0.70885343 </v>
    <v>       0.70834468       0.70834468       0.04163262 </v>
    <v>       0.70885343       0.70885343       0.37447990 </v>
    <v>       0.70834468       0.70834468       0.70834468 </v>
   </varray>
  </structure>
  <varray name="forces" >
   <v>      -0.00000000       0.00000000       0.00000000 </v>
   <v>       0.05411185       0.03826286      -0.32575246 </v>
   <v>       0.05411185       0.03826286       0.32575246 </v>
   <v>      -0.06698071      -0.30423863      -0.11601399 </v>
   <v>       0.02271078      -0.00802947       0.00000000 </v>
   <v>      -0.06698071      -0.30423863       0.11601399 </v>
   <v>       0.12109256       0.22771291       0.20973847 </v>
   <v>       0.12109256       0.22771291      -0.20973847 </v>
   <v>       0.01903225      -0.00672892       0.00000000 </v>
   <v>      -0.30916583       0.03826286      -0.11601399 </v>
   <v>      -0.00000000       0.02408842       0.00000000 </v>
   <v>      -0.30916583       0.03826286       0.11601399 </v>
   <v>      -0.01135539      -0.00802947       0.01966811 </v>
   <v>      -0.01135539      -0.00802947      -0.01966811 </v>
   <v>      -0.02863622      -0.02024887       0.00000000 </v>
   <v>      -0.24218512       0.22771291       0.00000000 </v>
   <v>      -0.01431811       0.02024887      -0.02479970 </v>
   <v>      -0.01431811       0.02024887       0.02479970 </v>
   <v>       0.25505398       0.03826286       0.20973847 </v>
   <v>       0.25505398       0.03826286      -0.20973847 </v>
   <v>      -0.00000000       0.02018675       0.00000000 </v>
   <v>       0.13396142      -0.30423863       0.00000000 </v>
   <v>       0.01431811      -0.02024887      -0.02479970 </v>
   <v>       0.01431811      -0.02024887       0.02479970 </v>
   <v>      -0.00951613      -0.00672892       0.01648241 </v>
   <v>       0.02863622       0.02024887       0.00000000 </v>
   <v>      -0.00951613      -0.00672892      -0.01648241 </v>
   <v>      -0.00000000       0.00000000       0.00000000 </v>
   <v>       0.02751137       0.01945348      -0.03393132 </v>
   <v>       0.02751137       0.01945348       0.03393132 </v>
   <v>       0.00396056      -0.04715828       0.00685989 </v>
   <v>       1.27477684      -0.45070167       0.00000000 </v>
   <v>       0.00396056      -0.04715828      -0.00685989 </v>
   <v>       0.02355081       0.00825133       0.04079120 </v>
   <v>       0.02355081       0.00825133      -0.04079120 </v>
   <v>       0.00201466      -0.00071229       0.00000000 </v>
   <v>      -0.04314107       0.01945348       0.00685989 </v>
   <v>      -0.00000000       1.35210502       0.00000000 </v>
   <v>      -0.04314107       0.01945348      -0.00685989 </v>
   <v>      -0.63738842      -0.45070167       1.10398913 </v>
   <v>      -0.63738842      -0.45070167      -1.10398913 </v>
   <v>       0.06920184       0.04893309       0.00000000 </v>
   <v>      -0.04710162       0.00825133       0.00000000 </v>
   <v>       0.03460092      -0.04893309       0.05993055 </v>
   <v>       0.03460092      -0.04893309      -0.05993055 </v>
   <v>       0.01562970       0.01945348       0.04079120 </v>
   <v>       0.01562970       0.01945348      -0.04079120 </v>
   <v>      -0.00000000       0.00213687       0.00000000 </v>
   <v>      -0.00792112      -0.04715828       0.00000000 </v>
   <v>      -0.03460092       0.04893309       0.05993055 </v>
   <v>      -0.03460092       0.04893309      -0.05993055 </v>
   <v>      -0.00100733      -0.00071229       0.00174475 </v>
   <v>      -0.06920184      -0.04893309       0.00000000 </v>
   <v>      -0.00100733      -0.00071229      -0.00174475 </v>
  </varray>
  <varray name="stress" >
   <v>      33.40619178       0.00000000      -0.00000000 </v>
   <v>      -0.00000000      33.40619189       0.00000000 </v>
   <v>      -0.00000000      -0.00000000      33.40619190 </v>
  </varray>
  <energy>
   <i name="e_fr_energy">   -280.75141805 </i>
   <i name="e_wo_entrp">   -280.74566455 </i>
   <i name="e_0_energy">     -0.01150700 </i>
  </energy>
  <time name="totalsc">   53.28   54.68</time>
 </calculation>
 <calculation>
  <scstep>
   <time name="dav">    4.28    4.32</time>
   <time name="total">    6.39    6.47</time>
   <energy>
    <i name="alphaZ">     93.27357238 </i>
    <i name="ewald">  -6118.29209580 </i>
    <i name="hartreedc">   -405.99268513 </i>
    <i name="XCdc">   -465.02357124 </i>
    <i name="pawpsdc">  22952.66153776 </i>
    <i name="pawaedc"> -22025.39356587 </i>
    <i name="eentropy">     -0.01151227 </i>
    <i name="bandstr">    154.02133302 </i>
    <i name="atom">   5533.69225236 </i>
    <i name="e_fr_energy">   -281.06473478 </i>
    <i name="e_wo_entrp">   -281.05322251 </i>
    <i name="e_0_energy">   -281.05897865 </i>
   </energy>
  </scstep>
  <scstep>
   <time name="dav">    4.66    4.72</time>
   <time name="total">    5.69    5.77</time>
   <energy>
    <i name="e_fr_energy">   -281.12867227 </i>
    <i name="e_wo_entrp">   -281.11716602 </i>
    <i name="e_0_energy">   -281.12291914 </i>
   </energy>
  </scstep>
  <scstep>
   <time name="dav">    4.59    4.64</time>
   <time name="total">    6.39    6.47</time>
   <energy>
    <i name="e_fr_energy">   -281.10681323 </i>
    <i name="e_wo_entrp">   -281.09531661 </i>
    <i name="e_0_energy">   -281.10106492 </i>
   </energy>
  </scstep>
  <scstep>
   <time name="dav">    4.38    4.43</time>
   <time name="total">    5.22    5.28</time>
   <energy>
    <i name="e_fr_energy">   -281.09772990 </i>
    <i name="e_wo_entrp">   -281.08624583 </i>
    <i name="e_0_energy">   -281.09198787 </i>
   </energy>
  </scstep>
  <scstep>
   <time name="dav">    4.06    4.10</time>
   <time name="total">    4.32    4.36</time>
   <energy>
    <i name="e_fr_energy">   -281.09761137 </i>
    <i name="e_wo_entrp">   -281.08612814 </i>
    <i name="e_0_energy">   -281.09186976 </i>
   </energy>
  </scstep>
  <scstep>
   <time name="dav">    4.59    4.65</time>
   <time name="total">    4.85    4.92</time>
   <energy>
    <i name="e_fr_energy">   -281.09755204 </i>
    <i name="e_wo_entrp">   -281.08606829 </i>
    <i name="e_0_energy">   -281.09181017 </i>
   </energy>
  </scstep>
  <scstep>
   <time name="dav">    4.05    4.09</time>
   <time name="total">    4.90    4.96</time>
   <energy>
    <i name="e_fr_energy">   -281.09755856 </i>
    <i name="e_wo_entrp">   -281.08607301 </i>
    <i name="e_0_energy">   -281.09181579 </i>
   </energy>
  </scstep>
  <scstep>
   <time name="dav">    4.87    4.92</time>
   <time name="total">    5.57    5.63</time>
   <energy>
    <i name="alphaZ">     93.27357238 </i>
    <i name="ewald">  -6118.29209580 </i>
    <i name="hartreedc">   -406.49168803 </i>
    <i name="XCdc">   -465.02529688 </i>
    <i name="pawpsdc">  22797.05579267 </i>
    <i name="pawaedc"> -21869.71225213 </i>
    <i name="eentropy">     -0.01148610 </i>
    <i name="bandstr">    154.41363868 </i>
    <i name="atom">   5533.69225236 </i>
    <i name="e_fr_energy">   -281.09756284 </i>
    <i name="e_wo_entrp">   -281.08607674 </i>
    <i name="e_0_energy">   -281.09181979 </i>
   </energy>
  </scstep>
  <structure>
   <crystal>
    <varray name="basis" >
     <v>       9.97646553       0.00000000       5.75991507 </v>
     <v>       3.32548851       9.40590192       5.75991507 </v>
     <v>       0.00000000       0.00000000      11.51983014 </v>
    </varray>
    <i name="volume">   1080.99386112 </i>
    <varray name="rec_basis" >
     <v>       0.10023590      -0.03543874       0.00000000 </v>
     <v>       0.00000000       0.10631623       0.00000000 </v>
     <v>      -0.05011795      -0.03543874       0.08680684 </v>
    </varray>
   </crystal>
   <varray name="positions" >
    <v>       0.29166667       0.29166667       0.29166667 </v>
    <v>       0.29295552       0.29295552       0.62311063 </v>
    <v>       0.29295552       0.29295552       0.95764499 </v>
    <v>       0.29295552       0.62311063       0.29295552 </v>
    <v>       0.29215200       0.62483822       0.62483822 </v>
    <v>       0.29295552       0.62311063       0.95764499 </v>
    <v>       0.29295552       0.95764499       0.29295552 </v>
    <v>       0.29295552       0.95764499       0.62311063 </v>
    <v>       0.29238040       0.95809542       0.95809542 </v>
    <v>       0.62311063       0.29295552       0.29295552 </v>
    <v>       0.62483822       0.29215200       0.62483822 </v>
    <v>       0.62311063       0.29295552       0.95764499 </v>
    <v>       0.62483822       0.62483822       0.29215200 </v>
    <v>       0.62483822       0.62483822       0.62483822 </v>
    <v>       0.62496431       0.62496431       0.95836902 </v>
    <v>       0.62311063       0.95764499       0.29295552 </v>
    <v>       0.62496431       0.95836902       0.62496431 </v>
    <v>       0.62496431       0.95836902       0.95836902 </v>
    <v>       0.95764499       0.29295552       0.29295552 </v>
    <v>       0.95764499       0.29295552       0.62311063 </v>
    <v>       0.95809542       0.29238040       0.95809542 </v>
    <v>       0.95764499       0.62311063       0.29295552 </v>
    <v>       0.95836902       0.62496431       0.62496431 </v>
    <v>       0.95836902       0.62496431       0.95836902 </v>
    <v>       0.95809542       0.95809542       0.29238040 </v>
    <v>       0.95836902       0.95836902       0.62496431 </v>
    <v>       0.95809542       0.95809542       0.95809542 </v>
    <v>       0.04166667       0.04166667       0.04166667 </v>
    <v>       0.04189131       0.04189131       0.37434994 </v>
    <v>       0.04189131       0.04189131       0.70853411 </v>
    <v>       0.04189131       0.37434994       0.04189131 </v>
    <v>       0.06597641       0.36689675       0.36689675 </v>
    <v>       0.04189131       0.37434994       0.70853411 </v>
    <v>       0.04189131       0.70853411       0.04189131 </v>
    <v>       0.04189131       0.70853411       0.37434994 </v>
    <v>       0.04159503       0.70835721       0.70835721 </v>
    <v>       0.37434994       0.04189131       0.04189131 </v>
    <v>       0.36689675       0.06597641       0.36689675 </v>
    <v>       0.37434994       0.04189131       0.70853411 </v>
    <v>       0.36689675       0.36689675       0.06597641 </v>
    <v>       0.36689675       0.36689675       0.36689675 </v>
    <v>       0.37390551       0.37390551       0.70942782 </v>
    <v>       0.37434994       0.70853411       0.04189131 </v>
    <v>       0.37390551       0.70942782       0.37390551 </v>
    <v>       0.37390551       0.70942782       0.70942782 </v>
    <v>       0.70853411       0.04189131       0.04189131 </v>
    <v>       0.70853411       0.04189131       0.37434994 </v>
    <v>       0.70835721       0.04159503       0.70835721 </v>
    <v>       0.70853411       0.37434994       0.04189131 </v>
    <v>       0.70942782       0.37390551       0.37390551 </v>
    <v>       0.70942782       0.37390551       0.70942782 </v>
    <v>       0.70835721       0.70835721       0.04159503 </v>
    <v>       0.70942782       0.70942782       0.37390551 </v>
    <v>       0.70835721       0.70835721       0.70835721 </v>
   </varray>
  </structure>
  <varray name="forces" >
   <v>      -0.00000000      -0.00000000      -0.00000000 </v>
   <v>      -0.09201816      -0.06506666      -0.63586278 </v>
   <v>      -0.09201816      -0.06506666       0.63586278 </v>
   <v>      -0.22956685      -0.45411312      -0.39762145 </v>
   <v>      -0.00044926       0.00015884      -0.00000000 </v>
   <v>      -0.22956685      -0.45411312       0.39762145 </v>
   <v>       0.13754869       0.58424645       0.23824133 </v>
   <v>       0.13754869       0.58424645      -0.23824133 </v>
   <v>      -0.02566521       0.00907402      -0.00000000 </v>
   <v>      -0.50466424      -0.06506666      -0.39762145 </v>
   <v>      -0.00000000      -0.00047651      -0.00000000 </v>
   <v>      -0.50466424      -0.06506666       0.39762145 </v>
   <v>       0.00022463       0.00015884      -0.00038907 </v>
   <v>       0.00022463       0.00015884       0.00038907 </v>
   <v>      -0.05742722      -0.04060718      -0.00000000 </v>
   <v>      -0.27509739       0.58424645      -0.00000000 </v>
   <v>      -0.02871361       0.04060718      -0.04973344 </v>
   <v>      -0.02871361       0.04060718       0.04973344 </v>
   <v>       0.59668240      -0.06506666       0.23824133 </v>
   <v>       0.59668240      -0.06506666      -0.23824133 </v>
   <v>      -0.00000000      -0.02722206      -0.00000000 </v>
   <v>       0.45913370      -0.45411312      -0.00000000 </v>
   <v>       0.02871361      -0.04060718      -0.04973344 </v>
   <v>       0.02871361      -0.04060718       0.04973344 </v>
   <v>       0.01283260       0.00907402      -0.02222672 </v>
   <v>       0.05742722       0.04060718      -0.00000000 </v>
   <v>       0.01283260       0.00907402       0.02222672 </v>
   <v>      -0.00000000      -0.00000000      -0.00000000 </v>
   <v>       0.02570586       0.01817679      -0.01746474 </v>
   <v>       0.02570586       0.01817679       0.01746474 </v>
   <v>       0.00781129      -0.03243669       0.01352956 </v>
   <v>      -0.00879381       0.00310908      -0.00000000 </v>
   <v>       0.00781129      -0.03243669      -0.01352956 </v>
   <v>       0.01789457      -0.00391689       0.03099430 </v>
   <v>       0.01789457      -0.00391689      -0.03099430 </v>
   <v>       0.01256963      -0.00444404      -0.00000000 </v>
   <v>      -0.02797784       0.01817679       0.01352956 </v>
   <v>      -0.00000000      -0.00932724      -0.00000000 </v>
   <v>      -0.02797784       0.01817679      -0.01352956 </v>
   <v>       0.00439691       0.00310908      -0.00761566 </v>
   <v>       0.00439691       0.00310908       0.00761566 </v>
   <v>       0.29828108       0.21091657      -0.00000000 </v>
   <v>      -0.03578914      -0.00391689      -0.00000000 </v>
   <v>       0.14914054      -0.21091657       0.25831899 </v>
   <v>       0.14914054      -0.21091657      -0.25831899 </v>
   <v>       0.00227198       0.01817679       0.03099430 </v>
   <v>       0.00227198       0.01817679      -0.03099430 </v>
   <v>      -0.00000000       0.01333211      -0.00000000 </v>
   <v>      -0.01562259      -0.03243669      -0.00000000 </v>
   <v>      -0.14914054       0.21091657       0.25831899 </v>
   <v>      -0.14914054       0.21091657      -0.25831899 </v>
   <v>      -0.00628482      -0.00444404       0.01088562 </v>
   <v>      -0.29828108      -0.21091657       0.00000000 </v>
   <v>      -0.00628482      -0.00444404      -0.01088562 </v>
  </varray>
  <varray name="stress" >
   <v>      31.52848310       0.00000000       0.00000000 </v>
   <v>       0.00000000      31.52848321       0.00000000 </v>
   <v>       0.00000000      -0.00000000      31.52848322 </v>
  </varray>
  <energy>
   <i name="e_fr_energy">   -281.09756284 </i>
   <i name="e_wo_entrp">   -281.09181979 </i>
   <i name="e_0_energy">     -0.01148610 </i>
  </energy>
  <time name="totalsc">   55.57   56.22</time>
 </calculation>
 <calculation>
  <scstep>
   <time name="dav">    4.33    4.38</time>
   <time name="total">    6.00    6.11</time>
   <energy>
    <i name="alphaZ">     93.27357238 </i>
    <i name="ewald">  -6116.55858912 </i>
    <i name="hartreedc">   -408.52128321 </i>
    <i name="XCdc">   -465.03349315 </i>
    <i name="pawpsdc">  22794.61731983 </i>
    <i name="pawaedc"> -21867.27393959 </i>
    <i name="eentropy">     -0.01172138 </i>
    <i name="bandstr">    154.56966862 </i>
    <i name="atom">   5533.69225236 </i>
    <i name="e_fr_energy">   -281.24621326 </i>
    <i name="e_wo_entrp">   -281.23449188 </i>
    <i name="e_0_energy">   -281.24035257 </i>
   </energy>
  </scstep>
  <scstep>
   <time name="dav">    4.55    6.12</time>
   <time name="total">    5.47    7.19</time>
   <energy>
    <i name="e_fr_energy">   -281.28693581 </i>
    <i name="e_wo_entrp">   -281.27521206 </i>
    <i name="e_0_energy">   -281.28107393 </i>
   </energy>
  </scstep>
  <scstep>
   <time name="dav">    4.24    4.28</time>
   <time name="total">    4.64    4.69</time>
   <energy>
    <i name="e_fr_energy">   -281.27933209 </i>
    <i name="e_wo_entrp">   -281.26761097 </i>
    <i name="e_0_energy">   -281.27347153 </i>
   </energy>
  </scstep>
  <scstep>
   <time name="dav">    4.03    4.06</time>
   <time name="total">    4.29    4.33</time>
   <energy>
    <i name="e_fr_energy">   -281.27648459 </i>
    <i name="e_wo_entrp">   -281.26476533 </i>
    <i name="e_0_energy">   -281.27062496 </i>
   </energy>
  </scstep>
  <scstep>
   <time name="dav">    4.65    4.70</time>
   <time name="total">    4.91    4.96</time>
   <energy>
    <i name="e_fr_energy">   -281.27640320 </i>
    <i name="e_wo_entrp">   -281.26467738 </i>
    <i name="e_0_energy">   -281.27054029 </i>
   </energy>
  </scstep>
  <scstep>
   <time name="dav">    5.45    5.50</time>
   <time name="total">    6.28    6.34</time>
   <energy>
    <i name="e_fr_energy">   -281.27656273 </i>
    <i name="e_wo_entrp">   -281.26483666 </i>
    <i name="e_0_energy">   -281.27069970 </i>
   </energy>
  </scstep>
  <scstep>
   <time name="dav">    6.21    8.69</time>
   <time name="total">    7.18    9.68</time>
   <energy>
    <i name="e_fr_energy">   -281.27654485 </i>
    <i name="e_wo_entrp">   -281.26481930 </i>
    <i name="e_0_energy">   -281.27068207 </i>
   </energy>
  </scstep>
  <scstep>
   <time name="dav">    4.72    4.77</time>
   <time name="total">    6.53    6.60</time>
   <energy>
    <i name="e_fr_energy">   -281.27652317 </i>
    <i name="e_wo_entrp">   -281.26479796 </i>
    <i name="e_0_energy">   -281.27066057 </i>
   </energy>
  </scstep>
  <scstep>
   <time name="dav">    6.91    7.00</time>
   <time name="total">    8.02    8.12</time>
   <energy>
    <i name="alphaZ">     93.27357238 </i>
    <i name="ewald">  -6116.55858912 </i>
    <i name="hartreedc">   -408.80712998 </i>
    <i name="XCdc">   -465.02554282 </i>
    <i name="pawpsdc">  22732.88359242 </i>
    <i name="pawaedc"> -21805.51230243 </i>
    <i name="eentropy">     -0.01172490 </i>
    <i name="bandstr">    154.78934773 </i>
    <i name="atom">   5533.69225236 </i>
    <i name="e_fr_energy">   -281.27652436 </i>
    <i name="e_wo_entrp">   -281.26479946 </i>
    <i name="e_0_energy">   -281.27066191 </i>
   </energy>
  </scstep>
  <structure>
   <crystal>
    <varray name="basis" >
     <v>       9.97646553       0.00000000       5.75991507 </v>
     <v>       3.32548851       9.40590192       5.75991507 </v>
     <v>       0.00000000       0.00000000      11.51983014 </v>
    </varray>
    <i name="volume">   1080.99386112 </i>
    <varray name="rec_basis" >
     <v>       0.10023590      -0.03543874       0.00000000 </v>
     <v>       0.00000000       0.10631623       0.00000000 </v>
     <v>      -0.05011795      -0.03543874       0.08680684 </v>
    </varray>
   </crystal>
   <varray name="positions" >
    <v>       0.29166667       0.29166667       0.29166667 </v>
    <v>       0.29276285       0.29276285       0.61995221 </v>
    <v>       0.29276285       0.29276285       0.96118875 </v>
    <v>       0.29276285       0.61995221       0.29276285 </v>
    <v>       0.29222989       0.62481226       0.62481226 </v>
    <v>       0.29276285       0.61995221       0.96118875 </v>
    <v>       0.29276285       0.96118875       0.29276285 </v>
    <v>       0.29276285       0.96118875       0.61995221 </v>
    <v>       0.29232887       0.95811260       0.95811260 </v>
    <v>       0.61995221       0.29276285       0.29276285 </v>
    <v>       0.62481226       0.29222989       0.62481226 </v>
    <v>       0.61995221       0.29276285       0.96118875 </v>
    <v>       0.62481226       0.62481226       0.29222989 </v>
    <v>       0.62481226       0.62481226       0.62481226 </v>
    <v>       0.62470409       0.62470409       0.95862924 </v>
    <v>       0.61995221       0.96118875       0.29276285 </v>
    <v>       0.62470409       0.95862924       0.62470409 </v>
    <v>       0.62470409       0.95862924       0.95862924 </v>
    <v>       0.96118875       0.29276285       0.29276285 </v>
    <v>       0.96118875       0.29276285       0.61995221 </v>
    <v>       0.95811260       0.29232887       0.95811260 </v>
    <v>       0.96118875       0.61995221       0.29276285 </v>
    <v>       0.95862924       0.62470409       0.62470409 </v>
    <v>       0.95862924       0.62470409       0.95862924 </v>
    <v>       0.95811260       0.95811260       0.29232887 </v>
    <v>       0.95862924       0.95862924       0.62470409 </v>
    <v>       0.95811260       0.95811260       0.95811260 </v>
    <v>       0.04166667       0.04166667       0.04166667 </v>
    <v>       0.04204256       0.04204256       0.37403850 </v>
    <v>       0.04204256       0.04204256       0.70854304 </v>
    <v>       0.04204256       0.37403850       0.04204256 </v>
    <v>       0.06996877       0.36556597       0.36556597 </v>
    <v>       0.04204256       0.37403850       0.70854304 </v>
    <v>       0.04204256       0.70854304       0.04204256 </v>
    <v>       0.04204256       0.70854304       0.37403850 </v>
    <v>       0.04166657       0.70833336       0.70833336 </v>
    <v>       0.37403850       0.04204256       0.04204256 </v>
    <v>       0.36556597       0.06996877       0.36556597 </v>
    <v>       0.37403850       0.04204256       0.70854304 </v>
    <v>       0.36556597       0.36556597       0.06996877 </v>
    <v>       0.36556597       0.36556597       0.36556597 </v>
    <v>       0.37504387       0.37504387       0.70828947 </v>
    <v>       0.37403850       0.70854304       0.04204256 </v>
    <v>       0.37504387       0.70828947       0.37504387 </v>
    <v>       0.37504387       0.70828947       0.70828947 </v>
    <v>       0.70854304       0.04204256       0.04204256 </v>
    <v>       0.70854304       0.04204256       0.37403850 </v>
    <v>       0.70833336       0.04166657       0.70833336 </v>
    <v>       0.70854304       0.37403850       0.04204256 </v>
    <v>       0.70828947       0.37504387       0.37504387 </v>
    <v>       0.70828947       0.37504387       0.70828947 </v>
    <v>       0.70833336       0.70833336       0.04166657 </v>
    <v>       0.70828947       0.70828947       0.37504387 </v>
    <v>       0.70833336       0.70833336       0.70833336 </v>
   </varray>
  </structure>
  <varray name="forces" >
   <v>      -0.00000000      -0.00000000       0.00000000 </v>
   <v>       0.02853809       0.02017948      -0.12666880 </v>
   <v>       0.02853809       0.02017948       0.12666880 </v>
   <v>      -0.02229709      -0.12360412      -0.03861969 </v>
   <v>      -0.01314071       0.00464594       0.00000000 </v>
   <v>      -0.02229709      -0.12360412       0.03861969 </v>
   <v>       0.05083518       0.08324517       0.08804911 </v>
   <v>       0.05083518       0.08324517      -0.08804911 </v>
   <v>      -0.05664016       0.02002532      -0.00000000 </v>
   <v>      -0.12396745       0.02017948      -0.03861969 </v>
   <v>      -0.00000000      -0.01393783       0.00000000 </v>
   <v>      -0.12396745       0.02017948       0.03861969 </v>
   <v>       0.00657036       0.00464594      -0.01138019 </v>
   <v>       0.00657036       0.00464594       0.01138019 </v>
   <v>      -0.03000516      -0.02121685       0.00000000 </v>
   <v>      -0.10167036       0.08324517      -0.00000000 </v>
   <v>      -0.01500258       0.02121685      -0.02598523 </v>
   <v>      -0.01500258       0.02121685       0.02598523 </v>
   <v>       0.09542935       0.02017948       0.08804911 </v>
   <v>       0.09542935       0.02017948      -0.08804911 </v>
   <v>      -0.00000000      -0.06007596      -0.00000000 </v>
   <v>       0.04459417      -0.12360412      -0.00000000 </v>
   <v>       0.01500258      -0.02121685      -0.02598523 </v>
   <v>       0.01500258      -0.02121685       0.02598523 </v>
   <v>       0.02832008       0.02002532      -0.04905181 </v>
   <v>       0.03000516       0.02121685       0.00000000 </v>
   <v>       0.02832008       0.02002532       0.04905181 </v>
   <v>      -0.00000000      -0.00000000       0.00000000 </v>
   <v>       0.04215001       0.02980456       0.02380273 </v>
   <v>       0.04215001       0.02980456      -0.02380273 </v>
   <v>       0.02794626      -0.01036971       0.04840435 </v>
   <v>      -0.17496220       0.06185848      -0.00000000 </v>
   <v>       0.02794626      -0.01036971      -0.04840435 </v>
   <v>       0.01420375      -0.04923941       0.02460162 </v>
   <v>       0.01420375      -0.04923941      -0.02460162 </v>
   <v>       0.00036264      -0.00012821       0.00000000 </v>
   <v>      -0.00046124       0.02980456       0.04840435 </v>
   <v>       0.00000000      -0.18557543      -0.00000000 </v>
   <v>      -0.00046124       0.02980456      -0.04840435 </v>
   <v>       0.08748110       0.06185848      -0.15152171 </v>
   <v>       0.08748110       0.06185848       0.15152171 </v>
   <v>      -0.07965651      -0.05632566       0.00000000 </v>
   <v>      -0.02840750      -0.04923941       0.00000000 </v>
   <v>      -0.03982825       0.05632566      -0.06898456 </v>
   <v>      -0.03982825       0.05632566       0.06898456 </v>
   <v>      -0.04168878       0.02980456       0.02460162 </v>
   <v>      -0.04168878       0.02980456      -0.02460162 </v>
   <v>      -0.00000000       0.00038464       0.00000000 </v>
   <v>      -0.05589253      -0.01036971       0.00000000 </v>
   <v>       0.03982825      -0.05632566      -0.06898456 </v>
   <v>       0.03982825      -0.05632566       0.06898456 </v>
   <v>      -0.00018132      -0.00012821       0.00031405 </v>
   <v>       0.07965651       0.05632566       0.00000000 </v>
   <v>      -0.00018132      -0.00012821      -0.00031405 </v>
  </varray>
  <varray name="stress" >
   <v>      30.87249049       0.00000000       0.00000000 </v>
   <v>      -0.00000000      30.87249059      -0.00000000 </v>
   <v>      -0.00000000       0.00000000      30.87249060 </v>
  </varray>
  <energy>
   <i name="e_fr_energy">   -281.27652436 </i>
   <i name="e_wo_entrp">   -281.27066191 </i>
   <i name="e_0_energy">     -0.01172490 </i>
  </energy>
  <time name="totalsc">   65.68   70.52</time>
 </calculation>
 <calculation>
  <scstep>
   <time name="dav">    3.67    3.71</time>
   <time name="total">    3.94    3.98</time>
   <energy>
    <i name="alphaZ">     93.27357238 </i>
    <i name="ewald">  -6116.33954208 </i>
    <i name="hartreedc">   -409.02517812 </i>
    <i name="XCdc">   -465.02516068 </i>
    <i name="pawpsdc">  22732.03496738 </i>
    <i name="pawaedc"> -21804.66380439 </i>
    <i name="eentropy">     -0.01173042 </i>
    <i name="bandstr">    154.78753946 </i>
    <i name="atom">   5533.69225236 </i>
    <i name="e_fr_energy">   -281.27708409 </i>
    <i name="e_wo_entrp">   -281.26535368 </i>
    <i name="e_0_energy">   -281.27121889 </i>
   </energy>
  </scstep>
  <scstep>
   <time name="dav">    4.14    4.18</time>
   <time name="total">    4.39    4.44</time>
   <energy>
    <i name="e_fr_energy">   -281.27726908 </i>
    <i name="e_wo_entrp">   -281.26553873 </i>
    <i name="e_0_energy">   -281.27140390 </i>
   </energy>
  </scstep>
  <scstep>
   <time name="dav">    3.86    3.90</time>
   <time name="total">    4.12    4.16</time>
   <energy>
    <i name="e_fr_energy">   -281.27723621 </i>
    <i name="e_wo_entrp">   -281.26550614 </i>
    <i name="e_0_energy">   -281.27137117 </i>
   </energy>
  </scstep>
  <scstep>
   <time name="dav">    4.22    4.27</time>
   <time name="total">    4.48    4.53</time>
   <energy>
    <i name="e_fr_energy">   -281.27722850 </i>
    <i name="e_wo_entrp">   -281.26549845 </i>
    <i name="e_0_energy">   -281.27136348 </i>
   </energy>
  </scstep>
  <scstep>
   <time name="dav">    3.64    3.68</time>
   <time name="total">    3.74    3.77</time>
   <energy>
    <i name="alphaZ">     93.27357238 </i>
    <i name="ewald">  -6116.33954208 </i>
    <i name="hartreedc">   -409.04316299 </i>
    <i name="XCdc">   -465.02464816 </i>
    <i name="pawpsdc">  22728.68228790 </i>
    <i name="pawaedc"> -21801.31012785 </i>
    <i name="eentropy">     -0.01173051 </i>
    <i name="bandstr">    154.80387089 </i>
    <i name="atom">   5533.69225236 </i>
    <i name="e_fr_energy">   -281.27722806 </i>
    <i name="e_wo_entrp">   -281.26549755 </i>
    <i name="e_0_energy">   -281.27136280 </i>
   </energy>
  </scstep>
  <structure>
   <crystal>
    <varray name="basis" >
     <v>       9.97646553       0.00000000       5.75991507 </v>
     <v>       3.32548851       9.40590192       5.75991507 </v>
     <v>       0.00000000       0.00000000      11.51983014 </v>
    </varray>
    <i name="volume">   1080.99386112 </i>
    <varray name="rec_basis" >
     <v>       0.10023590      -0.03543874       0.00000000 </v>
     <v>       0.00000000       0.10631623       0.00000000 </v>
     <v>      -0.05011795      -0.03543874       0.08680684 </v>
    </varray>
   </crystal>
   <varray name="positions" >
    <v>       0.29166667       0.29166667       0.29166667 </v>
    <v>       0.29274993       0.29274993       0.61974046 </v>
    <v>       0.29274993       0.29274993       0.96142635 </v>
    <v>       0.29274993       0.61974046       0.29274993 </v>
    <v>       0.29223511       0.62481052       0.62481052 </v>
    <v>       0.29274993       0.61974046       0.96142635 </v>
    <v>       0.29274993       0.96142635       0.29274993 </v>
    <v>       0.29274993       0.96142635       0.61974046 </v>
    <v>       0.29232542       0.95811375       0.95811375 </v>
    <v>       0.61974046       0.29274993       0.29274993 </v>
    <v>       0.62481052       0.29223511       0.62481052 </v>
    <v>       0.61974046       0.29274993       0.96142635 </v>
    <v>       0.62481052       0.62481052       0.29223511 </v>
    <v>       0.62481052       0.62481052       0.62481052 </v>
    <v>       0.62468664       0.62468664       0.95864669 </v>
    <v>       0.61974046       0.96142635       0.29274993 </v>
    <v>       0.62468664       0.95864669       0.62468664 </v>
    <v>       0.62468664       0.95864669       0.95864669 </v>
    <v>       0.96142635       0.29274993       0.29274993 </v>
    <v>       0.96142635       0.29274993       0.61974046 </v>
    <v>       0.95811375       0.29232542       0.95811375 </v>
    <v>       0.96142635       0.61974046       0.29274993 </v>
    <v>       0.95864669       0.62468664       0.62468664 </v>
    <v>       0.95864669       0.62468664       0.95864669 </v>
    <v>       0.95811375       0.95811375       0.29232542 </v>
    <v>       0.95864669       0.95864669       0.62468664 </v>
    <v>       0.95811375       0.95811375       0.95811375 </v>
    <v>       0.04166667       0.04166667       0.04166667 </v>
    <v>       0.04205270       0.04205270       0.37401762 </v>
    <v>       0.04205270       0.04205270       0.70854364 </v>
    <v>       0.04205270       0.37401762       0.04205270 </v>
    <v>       0.07023644       0.36547674       0.36547674 </v>
    <v>       0.04205270       0.37401762       0.70854364 </v>
    <v>       0.04205270       0.70854364       0.04205270 </v>
    <v>       0.04205270       0.70854364       0.37401762 </v>
    <v>       0.04167137       0.70833177       0.70833177 </v>
    <v>       0.37401762       0.04205270       0.04205270 </v>
    <v>       0.36547674       0.07023644       0.36547674 </v>
    <v>       0.37401762       0.04205270       0.70854364 </v>
    <v>       0.36547674       0.36547674       0.07023644 </v>
    <v>       0.36547674       0.36547674       0.36547674 </v>
    <v>       0.37512019       0.37512019       0.70821315 </v>
    <v>       0.37401762       0.70854364       0.04205270 </v>
    <v>       0.37512019       0.70821315       0.37512019 </v>
    <v>       0.37512019       0.70821315       0.70821315 </v>
    <v>       0.70854364       0.04205270       0.04205270 </v>
    <v>       0.70854364       0.04205270       0.37401762 </v>
    <v>       0.70833177       0.04167137       0.70833177 </v>
    <v>       0.70854364       0.37401762       0.04205270 </v>
    <v>       0.70821315       0.37512019       0.37512019 </v>
    <v>       0.70821315       0.37512019       0.70821315 </v>
    <v>       0.70833177       0.70833177       0.04167137 </v>
    <v>       0.70821315       0.70821315       0.37512019 </v>
    <v>       0.70833177       0.70833177       0.70833177 </v>
   </varray>
  </structure>
  <varray name="forces" >
   <v>       0.00000000       0.00000000      -0.00000000 </v>
   <v>       0.03545440       0.02507005      -0.09450563 </v>
   <v>       0.03545440       0.02507005       0.09450563 </v>
   <v>      -0.00955422      -0.10223357      -0.01654840 </v>
   <v>      -0.01405365       0.00496871      -0.00000000 </v>
   <v>      -0.00955422      -0.10223357       0.01654840 </v>
   <v>       0.04500862       0.05209347       0.07795722 </v>
   <v>       0.04500862       0.05209347      -0.07795722 </v>
   <v>      -0.05883254       0.02080045      -0.00000000 </v>
   <v>      -0.09957147       0.02507005      -0.01654840 </v>
   <v>       0.00000000      -0.01490614      -0.00000000 </v>
   <v>      -0.09957147       0.02507005       0.01654840 </v>
   <v>       0.00702682       0.00496871      -0.01217081 </v>
   <v>       0.00702682       0.00496871       0.01217081 </v>
   <v>      -0.02825732      -0.01998095       0.00000000 </v>
   <v>      -0.09001725       0.05209347      -0.00000000 </v>
   <v>      -0.01412866       0.01998095      -0.02447156 </v>
   <v>      -0.01412866       0.01998095       0.02447156 </v>
   <v>       0.06411707       0.02507005       0.07795722 </v>
   <v>       0.06411707       0.02507005      -0.07795722 </v>
   <v>       0.00000000      -0.06240134      -0.00000000 </v>
   <v>       0.01910845      -0.10223357       0.00000000 </v>
   <v>       0.01412866      -0.01998095      -0.02447156 </v>
   <v>       0.01412866      -0.01998095       0.02447156 </v>
   <v>       0.02941627       0.02080045      -0.05095048 </v>
   <v>       0.02825732       0.01998095       0.00000000 </v>
   <v>       0.02941627       0.02080045       0.05095048 </v>
   <v>       0.00000000       0.00000000      -0.00000000 </v>
   <v>       0.04349875       0.03075826       0.02659029 </v>
   <v>       0.04349875       0.03075826      -0.02659029 </v>
   <v>       0.02942533      -0.00904738       0.05096617 </v>
   <v>      -0.18735415       0.06623969      -0.00000000 </v>
   <v>       0.02942533      -0.00904738      -0.05096617 </v>
   <v>       0.01407342      -0.05246914       0.02437588 </v>
   <v>       0.01407342      -0.05246914      -0.02437588 </v>
   <v>      -0.00044730       0.00015815      -0.00000000 </v>
   <v>       0.00127849       0.03075826       0.05096617 </v>
   <v>       0.00000000      -0.19871908      -0.00000000 </v>
   <v>       0.00127849       0.03075826      -0.05096617 </v>
   <v>       0.09367707       0.06623969      -0.16225345 </v>
[...]
        <r>  0.0009  0.0015  0.0000 </r>
       </set>
       <set comment="band 138">
        <r>  0.0000  0.0023  0.0000 </r>
        <r>  0.0008  0.0031  0.0000 </r>
        <r>  0.0008  0.0031  0.0000 </r>
        <r>  0.0004  0.0023  0.0000 </r>
        <r>  0.0002  0.0015  0.0000 </r>
        <r>  0.0008  0.0031  0.0000 </r>
        <r>  0.0004  0.0023  0.0000 </r>
        <r>  0.0008  0.0031  0.0000 </r>
        <r>  0.0000  0.0024  0.0000 </r>
        <r>  0.0008  0.0031  0.0000 </r>
        <r>  0.0002  0.0015  0.0000 </r>
        <r>  0.0004  0.0023  0.0000 </r>
        <r>  0.0002  0.0015  0.0000 </r>
        <r>  0.0002  0.0015  0.0000 </r>
        <r>  0.0004  0.0023  0.0000 </r>
        <r>  0.0008  0.0031  0.0000 </r>
        <r>  0.0000  0.0073  0.0000 </r>
        <r>  0.0004  0.0023  0.0000 </r>
        <r>  0.0008  0.0031  0.0000 </r>
        <r>  0.0004  0.0023  0.0000 </r>
        <r>  0.0000  0.0024  0.0000 </r>
        <r>  0.0008  0.0031  0.0000 </r>
        <r>  0.0004  0.0023  0.0000 </r>
        <r>  0.0000  0.0073  0.0000 </r>
        <r>  0.0000  0.0024  0.0000 </r>
        <r>  0.0004  0.0023  0.0000 </r>
        <r>  0.0000  0.0024  0.0000 </r>
        <r>  0.0000  0.0077  0.0000 </r>
        <r>  0.0000  0.0038  0.0000 </r>
        <r>  0.0000  0.0038  0.0000 </r>
        <r>  0.0001  0.0011  0.0000 </r>
        <r>  0.0002  0.0032  0.0000 </r>
        <r>  0.0000  0.0038  0.0000 </r>
        <r>  0.0001  0.0011  0.0000 </r>
        <r>  0.0000  0.0038  0.0000 </r>
        <r>  0.0007  0.0005  0.0000 </r>
        <r>  0.0000  0.0038  0.0000 </r>
        <r>  0.0002  0.0032  0.0000 </r>
        <r>  0.0001  0.0011  0.0000 </r>
        <r>  0.0002  0.0032  0.0000 </r>
        <r>  0.0002  0.0032  0.0000 </r>
        <r>  0.0009  0.0058  0.0000 </r>
        <r>  0.0000  0.0038  0.0000 </r>
        <r>  0.0004  0.0044  0.0000 </r>
        <r>  0.0009  0.0058  0.0000 </r>
        <r>  0.0000  0.0038  0.0000 </r>
        <r>  0.0001  0.0011  0.0000 </r>
        <r>  0.0007  0.0005  0.0000 </r>
        <r>  0.0000  0.0038  0.0000 </r>
        <r>  0.0009  0.0058  0.0000 </r>
        <r>  0.0004  0.0044  0.0000 </r>
        <r>  0.0007  0.0005  0.0000 </r>
        <r>  0.0009  0.0058  0.0000 </r>
        <r>  0.0007  0.0005  0.0000 </r>
       </set>
       <set comment="band 139">
        <r>  0.0000  0.0001  0.0000 </r>
        <r>  0.0004  0.0037  0.0000 </r>
        <r>  0.0004  0.0037  0.0000 </r>
        <r>  0.0000  0.0017  0.0000 </r>
        <r>  0.0007  0.0007  0.0000 </r>
        <r>  0.0004  0.0037  0.0000 </r>
        <r>  0.0000  0.0017  0.0000 </r>
        <r>  0.0004  0.0037  0.0000 </r>
        <r>  0.0003  0.0066  0.0000 </r>
        <r>  0.0004  0.0037  0.0000 </r>
        <r>  0.0007  0.0007  0.0000 </r>
        <r>  0.0000  0.0017  0.0000 </r>
        <r>  0.0007  0.0007  0.0000 </r>
        <r>  0.0007  0.0007  0.0000 </r>
        <r>  0.0020  0.0006  0.0000 </r>
        <r>  0.0004  0.0037  0.0000 </r>
        <r>  0.0024  0.0031  0.0000 </r>
        <r>  0.0020  0.0006  0.0000 </r>
        <r>  0.0004  0.0037  0.0000 </r>
        <r>  0.0000  0.0017  0.0000 </r>
        <r>  0.0003  0.0066  0.0000 </r>
        <r>  0.0004  0.0037  0.0000 </r>
        <r>  0.0020  0.0006  0.0000 </r>
        <r>  0.0024  0.0031  0.0000 </r>
        <r>  0.0003  0.0066  0.0000 </r>
        <r>  0.0020  0.0006  0.0000 </r>
        <r>  0.0003  0.0066  0.0000 </r>
        <r>  0.0000  0.0077  0.0000 </r>
        <r>  0.0008  0.0034  0.0000 </r>
        <r>  0.0008  0.0034  0.0000 </r>
        <r>  0.0033  0.0029  0.0000 </r>
        <r>  0.0026  0.0001  0.0000 </r>
        <r>  0.0008  0.0034  0.0000 </r>
        <r>  0.0033  0.0029  0.0000 </r>
        <r>  0.0008  0.0034  0.0000 </r>
        <r>  0.0011  0.0014  0.0000 </r>
        <r>  0.0008  0.0034  0.0000 </r>
        <r>  0.0026  0.0001  0.0000 </r>
        <r>  0.0033  0.0029  0.0000 </r>
        <r>  0.0026  0.0001  0.0000 </r>
        <r>  0.0026  0.0001  0.0000 </r>
        <r>  0.0023  0.0020  0.0000 </r>
        <r>  0.0008  0.0034  0.0000 </r>
        <r>  0.0000  0.0021  0.0000 </r>
        <r>  0.0023  0.0020  0.0000 </r>
        <r>  0.0008  0.0034  0.0000 </r>
        <r>  0.0033  0.0029  0.0000 </r>
        <r>  0.0011  0.0014  0.0000 </r>
        <r>  0.0008  0.0034  0.0000 </r>
        <r>  0.0023  0.0020  0.0000 </r>
        <r>  0.0000  0.0021  0.0000 </r>
        <r>  0.0011  0.0014  0.0000 </r>
        <r>  0.0023  0.0020  0.0000 </r>
        <r>  0.0011  0.0014  0.0000 </r>
       </set>
       <set comment="band 140">
        <r>  0.0000  0.0003  0.0000 </r>
        <r>  0.0003  0.0019  0.0000 </r>
        <r>  0.0003  0.0019  0.0000 </r>
        <r>  0.0002  0.0044  0.0000 </r>
        <r>  0.0011  0.0033  0.0000 </r>
        <r>  0.0003  0.0019  0.0000 </r>
        <r>  0.0002  0.0044  0.0000 </r>
        <r>  0.0003  0.0019  0.0000 </r>
        <r>  0.0003  0.0025  0.0000 </r>
        <r>  0.0003  0.0019  0.0000 </r>
        <r>  0.0011  0.0033  0.0000 </r>
        <r>  0.0002  0.0044  0.0000 </r>
        <r>  0.0011  0.0033  0.0000 </r>
        <r>  0.0011  0.0033  0.0000 </r>
        <r>  0.0015  0.0053  0.0000 </r>
        <r>  0.0003  0.0019  0.0000 </r>
        <r>  0.0000  0.0017  0.0000 </r>
        <r>  0.0015  0.0053  0.0000 </r>
        <r>  0.0003  0.0019  0.0000 </r>
        <r>  0.0002  0.0044  0.0000 </r>
        <r>  0.0003  0.0025  0.0000 </r>
        <r>  0.0003  0.0019  0.0000 </r>
        <r>  0.0015  0.0053  0.0000 </r>
        <r>  0.0000  0.0017  0.0000 </r>
        <r>  0.0003  0.0025  0.0000 </r>
        <r>  0.0015  0.0053  0.0000 </r>
        <r>  0.0003  0.0025  0.0000 </r>
        <r>  0.0001  0.0000  0.0000 </r>
        <r>  0.0017  0.0029  0.0000 </r>
        <r>  0.0017  0.0029  0.0000 </r>
        <r>  0.0000  0.0018  0.0000 </r>
        <r>  0.0001  0.0023  0.0000 </r>
        <r>  0.0017  0.0029  0.0000 </r>
        <r>  0.0000  0.0018  0.0000 </r>
        <r>  0.0017  0.0029  0.0000 </r>
        <r>  0.0007  0.0056  0.0000 </r>
        <r>  0.0017  0.0029  0.0000 </r>
        <r>  0.0001  0.0023  0.0000 </r>
        <r>  0.0000  0.0018  0.0000 </r>
        <r>  0.0001  0.0023  0.0000 </r>
        <r>  0.0001  0.0023  0.0000 </r>
        <r>  0.0000  0.0047  0.0000 </r>
        <r>  0.0017  0.0029  0.0000 </r>
        <r>  0.0001  0.0001  0.0000 </r>
        <r>  0.0000  0.0047  0.0000 </r>
        <r>  0.0017  0.0029  0.0000 </r>
        <r>  0.0000  0.0018  0.0000 </r>
        <r>  0.0007  0.0056  0.0000 </r>
        <r>  0.0017  0.0029  0.0000 </r>
        <r>  0.0000  0.0047  0.0000 </r>
        <r>  0.0001  0.0001  0.0000 </r>
        <r>  0.0007  0.0056  0.0000 </r>
        <r>  0.0000  0.0047  0.0000 </r>
        <r>  0.0007  0.0056  0.0000 </r>
       </set>
       <set comment="band 141">
        <r>  0.0000  0.0024  0.0000 </r>
        <r>  0.0005  0.0026  0.0000 </r>
        <r>  0.0005  0.0026  0.0000 </r>
        <r>  0.0004  0.0040  0.0000 </r>
        <r>  0.0001  0.0099  0.0000 </r>
        <r>  0.0005  0.0026  0.0000 </r>
        <r>  0.0004  0.0040  0.0000 </r>
        <r>  0.0005  0.0026  0.0000 </r>
        <r>  0.0027  0.0056  0.0000 </r>
        <r>  0.0005  0.0026  0.0000 </r>
        <r>  0.0001  0.0099  0.0000 </r>
        <r>  0.0004  0.0040  0.0000 </r>
        <r>  0.0001  0.0099  0.0000 </r>
        <r>  0.0001  0.0099  0.0000 </r>
        <r>  0.0001  0.0012  0.0000 </r>
        <r>  0.0005  0.0026  0.0000 </r>
        <r>  0.0000  0.0072  0.0000 </r>
        <r>  0.0001  0.0012  0.0000 </r>
        <r>  0.0005  0.0026  0.0000 </r>
        <r>  0.0004  0.0040  0.0000 </r>
        <r>  0.0027  0.0056  0.0000 </r>
        <r>  0.0005  0.0026  0.0000 </r>
        <r>  0.0001  0.0012  0.0000 </r>
        <r>  0.0000  0.0072  0.0000 </r>
        <r>  0.0027  0.0056  0.0000 </r>
        <r>  0.0001  0.0012  0.0000 </r>
        <r>  0.0027  0.0056  0.0000 </r>
        <r>  0.0000  0.0059  0.0000 </r>
        <r>  0.0007  0.0010  0.0000 </r>
        <r>  0.0007  0.0010  0.0000 </r>
        <r>  0.0001  0.0084  0.0000 </r>
        <r>  0.0003  0.0021  0.0000 </r>
        <r>  0.0007  0.0010  0.0000 </r>
        <r>  0.0001  0.0084  0.0000 </r>
        <r>  0.0007  0.0010  0.0000 </r>
        <r>  0.0000  0.0041  0.0000 </r>
        <r>  0.0007  0.0010  0.0000 </r>
        <r>  0.0003  0.0021  0.0000 </r>
        <r>  0.0001  0.0084  0.0000 </r>
        <r>  0.0003  0.0021  0.0000 </r>
        <r>  0.0003  0.0021  0.0000 </r>
        <r>  0.0052  0.0031  0.0000 </r>
        <r>  0.0007  0.0010  0.0000 </r>
        <r>  0.0003  0.0039  0.0000 </r>
        <r>  0.0052  0.0031  0.0000 </r>
        <r>  0.0007  0.0010  0.0000 </r>
        <r>  0.0001  0.0084  0.0000 </r>
        <r>  0.0000  0.0041  0.0000 </r>
        <r>  0.0007  0.0010  0.0000 </r>
        <r>  0.0052  0.0031  0.0000 </r>
        <r>  0.0003  0.0039  0.0000 </r>
        <r>  0.0000  0.0041  0.0000 </r>
        <r>  0.0052  0.0031  0.0000 </r>
        <r>  0.0000  0.0041  0.0000 </r>
       </set>
       <set comment="band 142">
        <r>  0.0000  0.0002  0.0000 </r>
        <r>  0.0001  0.0078  0.0000 </r>
        <r>  0.0001  0.0078  0.0000 </r>
        <r>  0.0010  0.0029  0.0000 </r>
        <r>  0.0009  0.0023  0.0000 </r>
        <r>  0.0001  0.0078  0.0000 </r>
        <r>  0.0010  0.0029  0.0000 </r>
        <r>  0.0001  0.0078  0.0000 </r>
        <r>  0.0018  0.0035  0.0000 </r>
        <r>  0.0001  0.0078  0.0000 </r>
        <r>  0.0009  0.0023  0.0000 </r>
        <r>  0.0010  0.0029  0.0000 </r>
        <r>  0.0009  0.0023  0.0000 </r>
        <r>  0.0009  0.0023  0.0000 </r>
        <r>  0.0004  0.0070  0.0000 </r>
        <r>  0.0001  0.0078  0.0000 </r>
        <r>  0.0000  0.0005  0.0000 </r>
        <r>  0.0004  0.0070  0.0000 </r>
        <r>  0.0001  0.0078  0.0000 </r>
        <r>  0.0010  0.0029  0.0000 </r>
        <r>  0.0018  0.0035  0.0000 </r>
        <r>  0.0001  0.0078  0.0000 </r>
        <r>  0.0004  0.0070  0.0000 </r>
        <r>  0.0000  0.0005  0.0000 </r>
        <r>  0.0018  0.0035  0.0000 </r>
        <r>  0.0004  0.0070  0.0000 </r>
        <r>  0.0018  0.0035  0.0000 </r>
        <r>  0.0041  0.0000  0.0000 </r>
        <r>  0.0002  0.0072  0.0000 </r>
        <r>  0.0002  0.0072  0.0000 </r>
        <r>  0.0008  0.0018  0.0000 </r>
        <r>  0.0008  0.0030  0.0000 </r>
        <r>  0.0002  0.0072  0.0000 </r>
        <r>  0.0008  0.0018  0.0000 </r>
        <r>  0.0002  0.0072  0.0000 </r>
        <r>  0.0007  0.0025  0.0000 </r>
        <r>  0.0002  0.0072  0.0000 </r>
        <r>  0.0008  0.0030  0.0000 </r>
        <r>  0.0008  0.0018  0.0000 </r>
        <r>  0.0008  0.0030  0.0000 </r>
        <r>  0.0008  0.0030  0.0000 </r>
        <r>  0.0002  0.0063  0.0000 </r>
        <r>  0.0002  0.0072  0.0000 </r>
        <r>  0.0035  0.0000  0.0000 </r>
        <r>  0.0002  0.0063  0.0000 </r>
        <r>  0.0002  0.0072  0.0000 </r>
        <r>  0.0008  0.0018  0.0000 </r>
        <r>  0.0007  0.0025  0.0000 </r>
        <r>  0.0002  0.0072  0.0000 </r>
        <r>  0.0002  0.0063  0.0000 </r>
        <r>  0.0035  0.0000  0.0000 </r>
        <r>  0.0007  0.0025  0.0000 </r>
        <r>  0.0002  0.0063  0.0000 </r>
        <r>  0.0007  0.0025  0.0000 </r>
       </set>
       <set comment="band 143">
        <r>  0.0029  0.0000  0.0000 </r>
        <r>  0.0004  0.0050  0.0000 </r>
        <r>  0.0004  0.0050  0.0000 </r>
        <r>  0.0011  0.0035  0.0000 </r>
        <r>  0.0013  0.0053  0.0000 </r>
        <r>  0.0004  0.0050  0.0000 </r>
        <r>  0.0011  0.0035  0.0000 </r>
        <r>  0.0004  0.0050  0.0000 </r>
        <r>  0.0012  0.0022  0.0000 </r>
        <r>  0.0004  0.0050  0.0000 </r>
        <r>  0.0013  0.0053  0.0000 </r>
        <r>  0.0011  0.0035  0.0000 </r>
        <r>  0.0013  0.0053  0.0000 </r>
        <r>  0.0013  0.0053  0.0000 </r>
        <r>  0.0004  0.0038  0.0000 </r>
        <r>  0.0004  0.0050  0.0000 </r>
        <r>  0.0031  0.0000  0.0000 </r>
        <r>  0.0004  0.0038  0.0000 </r>
        <r>  0.0004  0.0050  0.0000 </r>
        <r>  0.0011  0.0035  0.0000 </r>
        <r>  0.0012  0.0022  0.0000 </r>
        <r>  0.0004  0.0050  0.0000 </r>
        <r>  0.0004  0.0038  0.0000 </r>
        <r>  0.0031  0.0000  0.0000 </r>
        <r>  0.0012  0.0022  0.0000 </r>
        <r>  0.0004  0.0038  0.0000 </r>
        <r>  0.0012  0.0022  0.0000 </r>
        <r>  0.0000  0.0002  0.0000 </r>
        <r>  0.0003  0.0061  0.0000 </r>
        <r>  0.0003  0.0061  0.0000 </r>
        <r>  0.0014  0.0040  0.0000 </r>
        <r>  0.0003  0.0035  0.0000 </r>
        <r>  0.0003  0.0061  0.0000 </r>
        <r>  0.0014  0.0040  0.0000 </r>
        <r>  0.0003  0.0061  0.0000 </r>
        <r>  0.0003  0.0048  0.0000 </r>
        <r>  0.0003  0.0061  0.0000 </r>
        <r>  0.0003  0.0035  0.0000 </r>
        <r>  0.0014  0.0040  0.0000 </r>
        <r>  0.0003  0.0035  0.0000 </r>
        <r>  0.0003  0.0035  0.0000 </r>
        <r>  0.0010  0.0075  0.0000 </r>
        <r>  0.0003  0.0061  0.0000 </r>
        <r>  0.0000  0.0002  0.0000 </r>
        <r>  0.0010  0.0075  0.0000 </r>
        <r>  0.0003  0.0061  0.0000 </r>
        <r>  0.0014  0.0040  0.0000 </r>
        <r>  0.0003  0.0048  0.0000 </r>
        <r>  0.0003  0.0061  0.0000 </r>
        <r>  0.0010  0.0075  0.0000 </r>
        <r>  0.0000  0.0002  0.0000 </r>
        <r>  0.0003  0.0048  0.0000 </r>
        <r>  0.0010  0.0075  0.0000 </r>
        <r>  0.0003  0.0048  0.0000 </r>
       </set>
       <set comment="band 144">
        <r>  0.0000  0.0082  0.0000 </r>
        <r>  0.0003  0.0036  0.0000 </r>
        <r>  0.0003  0.0036  0.0000 </r>
        <r>  0.0000  0.0100  0.0000 </r>
        <r>  0.0000  0.0119  0.0000 </r>
        <r>  0.0003  0.0036  0.0000 </r>
        <r>  0.0000  0.0100  0.0000 </r>
        <r>  0.0003  0.0036  0.0000 </r>
        <r>  0.0001  0.0063  0.0000 </r>
        <r>  0.0003  0.0036  0.0000 </r>
        <r>  0.0000  0.0119  0.0000 </r>
        <r>  0.0000  0.0100  0.0000 </r>
        <r>  0.0000  0.0119  0.0000 </r>
        <r>  0.0000  0.0119  0.0000 </r>
        <r>  0.0002  0.0064  0.0000 </r>
        <r>  0.0003  0.0036  0.0000 </r>
        <r>  0.0001  0.0059  0.0000 </r>
        <r>  0.0002  0.0064  0.0000 </r>
        <r>  0.0003  0.0036  0.0000 </r>
        <r>  0.0000  0.0100  0.0000 </r>
        <r>  0.0001  0.0063  0.0000 </r>
        <r>  0.0003  0.0036  0.0000 </r>
        <r>  0.0002  0.0064  0.0000 </r>
        <r>  0.0001  0.0059  0.0000 </r>
        <r>  0.0001  0.0063  0.0000 </r>
        <r>  0.0002  0.0064  0.0000 </r>
        <r>  0.0001  0.0063  0.0000 </r>
        <r>  0.0000  0.0009  0.0000 </r>
        <r>  0.0027  0.0008  0.0000 </r>
        <r>  0.0027  0.0008  0.0000 </r>
        <r>  0.0020  0.0018  0.0000 </r>
        <r>  0.0064  0.0007  0.0000 </r>
        <r>  0.0027  0.0008  0.0000 </r>
        <r>  0.0020  0.0018  0.0000 </r>
        <r>  0.0027  0.0008  0.0000 </r>
        <r>  0.0044  0.0019  0.0000 </r>
        <r>  0.0027  0.0008  0.0000 </r>
        <r>  0.0064  0.0007  0.0000 </r>
        <r>  0.0020  0.0018  0.0000 </r>
        <r>  0.0064  0.0007  0.0000 </r>
        <r>  0.0064  0.0007  0.0000 </r>
        <r>  0.0009  0.0003  0.0000 </r>
        <r>  0.0027  0.0008  0.0000 </r>
        <r>  0.0000  0.0006  0.0000 </r>
        <r>  0.0009  0.0003  0.0000 </r>
        <r>  0.0027  0.0008  0.0000 </r>
        <r>  0.0020  0.0018  0.0000 </r>
        <r>  0.0044  0.0019  0.0000 </r>
        <r>  0.0027  0.0008  0.0000 </r>
        <r>  0.0009  0.0003  0.0000 </r>
        <r>  0.0000  0.0006  0.0000 </r>
        <r>  0.0044  0.0019  0.0000 </r>
        <r>  0.0009  0.0003  0.0000 </r>
        <r>  0.0044  0.0019  0.0000 </r>
       </set>
      </set>
     </set>
    </set>
   </array>
  </projected>
 </calculation>
 <structure name="finalpos" >
  <crystal>
   <varray name="basis" >
    <v>       9.97646553       0.00000000       5.75991507 </v>
    <v>       3.32548851       9.40590192       5.75991507 </v>
    <v>       0.00000000       0.00000000      11.51983014 </v>
   </varray>
   <i name="volume">   1080.99386112 </i>
   <varray name="rec_basis" >
    <v>       0.10023590      -0.03543874       0.00000000 </v>
    <v>       0.00000000       0.10631623       0.00000000 </v>
    <v>      -0.05011795      -0.03543874       0.08680684 </v>
   </varray>
  </crystal>
  <varray name="positions" >
   <v>       0.29166667       0.29166667       0.29166667 </v>
   <v>       0.29290834       0.29290834       0.61908049 </v>
   <v>       0.29290834       0.29290834       0.96176950 </v>
   <v>       0.29290834       0.61908049       0.29290834 </v>
   <v>       0.29214080       0.62484196       0.62484196 </v>
   <v>       0.29290834       0.61908049       0.96176950 </v>
   <v>       0.29290834       0.96176950       0.29290834 </v>
   <v>       0.29290834       0.96176950       0.61908049 </v>
   <v>       0.29192925       0.95824581       0.95824581 </v>
   <v>       0.61908049       0.29290834       0.29290834 </v>
   <v>       0.62484196       0.29214080       0.62484196 </v>
   <v>       0.61908049       0.29290834       0.96176950 </v>
   <v>       0.62484196       0.62484196       0.29214080 </v>
   <v>       0.62484196       0.62484196       0.62484196 </v>
   <v>       0.62455892       0.62455892       0.95877441 </v>
   <v>       0.61908049       0.96176950       0.29290834 </v>
   <v>       0.62455892       0.95877441       0.62455892 </v>
   <v>       0.62455892       0.95877441       0.95877441 </v>
   <v>       0.96176950       0.29290834       0.29290834 </v>
   <v>       0.96176950       0.29290834       0.61908049 </v>
   <v>       0.95824581       0.29192925       0.95824581 </v>
   <v>       0.96176950       0.61908049       0.29290834 </v>
   <v>       0.95877441       0.62455892       0.62455892 </v>
   <v>       0.95877441       0.62455892       0.95877441 </v>
   <v>       0.95824581       0.95824581       0.29192925 </v>
   <v>       0.95877441       0.95877441       0.62455892 </v>
   <v>       0.95824581       0.95824581       0.95824581 </v>
   <v>       0.04166667       0.04166667       0.04166667 </v>
   <v>       0.04224843       0.04224843       0.37395910 </v>
   <v>       0.04224843       0.04224843       0.70821071 </v>
   <v>       0.04224843       0.37395910       0.04224843 </v>
   <v>       0.06898958       0.36589236       0.36589236 </v>
   <v>       0.04224843       0.37395910       0.70821071 </v>
   <v>       0.04224843       0.70821071       0.04224843 </v>
   <v>       0.04224843       0.70821071       0.37395910 </v>
   <v>       0.04166861       0.70833268       0.70833268 </v>
   <v>       0.37395910       0.04224843       0.04224843 </v>
   <v>       0.36589236       0.06898958       0.36589236 </v>
   <v>       0.37395910       0.04224843       0.70821071 </v>
   <v>       0.36589236       0.36589236       0.06898958 </v>
   <v>       0.36589236       0.36589236       0.36589236 </v>
   <v>       0.37466173       0.37466173       0.70867161 </v>
   <v>       0.37395910       0.70821071       0.04224843 </v>
   <v>       0.37466173       0.70867161       0.37466173 </v>
   <v>       0.37466173       0.70867161       0.70867161 </v>
   <v>       0.70821071       0.04224843       0.04224843 </v>
   <v>       0.70821071       0.04224843       0.37395910 </v>
   <v>       0.70833268       0.04166861       0.70833268 </v>
   <v>       0.70821071       0.37395910       0.04224843 </v>
   <v>       0.70867161       0.37466173       0.37466173 </v>
   <v>       0.70867161       0.37466173       0.70867161 </v>
   <v>       0.70833268       0.70833268       0.04166861 </v>
   <v>       0.70867161       0.70867161       0.37466173 </v>
   <v>       0.70833268       0.70833268       0.70833268 </v>
  </varray>
 </structure>
</modeling>
