 vasp.6.3.0 20Jan22 (build Mar 07 2022 09:35:52) complex                        
  
 executed on             LinuxIFC date 2025.10.02  16:46:32
 running on   96 total cores
 distrk:  each k-point on   96 cores,    1 groups
 distr:  one band on NCORE=   1 cores,   96 groups


--------------------------------------------------------------------------------------------------------


 INCAR:
   ALGO = Normal
   AMIX = 0.2
   EDIFF = 1e-06
   EDIFFG = -0.05
   ENCUT = 550.0
   IBRION = 2
   ISIF = 2
   ISMEAR = 0
   ISPIN = 1
   ISYM = 2
   LCHARG = True
   LORBIT = 11
   LREAL = False
   LVTOT = True
   LWAVE = True
   NELM = 200
   NSW = 0
   SIGMA = 0.05
   SYSTEM = SiO2

 POTCAR:    PAW_PBE Si 05Jan2001                  
 POTCAR:    PAW_PBE O 08Apr2002                   
 WARNING: For LVTOT=.TRUE., VASP.5.x writes the TOTAL local potential to the
     file LOCPOT. If you want only the Hartree contributions, use LVHAR=.TRUE.
     instead. 

 -----------------------------------------------------------------------------
|                                                                             |
|           W    W    AA    RRRRR   N    N  II  N    N   GGGG   !!!           |
|           W    W   A  A   R    R  NN   N  II  NN   N  G    G  !!!           |
|           W    W  A    A  R    R  N N  N  II  N N  N  G       !!!           |
|           W WW W  AAAAAA  RRRRR   N  N N  II  N  N N  G  GGG   !            |
|           WW  WW  A    A  R   R   N   NN  II  N   NN  G    G                |
|           W    W  A    A  R    R  N    N  II  N    N   GGGG   !!!           |
|                                                                             |
|     For optimal performance we recommend to set                             |
|       NCORE = 2 up to number-of-cores-per-socket                            |
|     NCORE specifies how many cores store one orbital (NPAR=cpu/NCORE).      |
|     This setting can greatly improve the performance of VASP for DFT.       |
|     The default, NCORE=1 might be grossly inefficient on modern             |
|     multi-core architectures or massively parallel machines. Do your        |
|     own testing! More info at https://www.vasp.at/wiki/index.php/NCORE      |
|     Unfortunately you need to use the default for GW and RPA                |
|     calculations (for HF NCORE is supported but not extensively tested      |
|     yet).                                                                   |
|                                                                             |
 -----------------------------------------------------------------------------

 POTCAR:    PAW_PBE Si 05Jan2001                  
   VRHFIN =Si: s2p2                                                                                 
   LEXCH  = PE                                                                                      
   EATOM  =   103.0669 eV,    7.5752 Ry                                                             
                                                                                                    
   TITEL  = PAW_PBE Si 05Jan2001                                                                    
   LULTRA =        F    use ultrasoft PP ?                                                          
   IUNSCR =        1    unscreen: 0-lin 1-nonlin 2-no                                               
   RPACOR =    1.500    partial core radius                                                         
   POMASS =   28.085; ZVAL   =    4.000    mass and valenz                                          
   RCORE  =    1.900    outmost cutoff radius                                                       
   RWIGS  =    2.480; RWIGS  =    1.312    wigner-seitz radius (au A)                               
   ENMAX  =  245.345; ENMIN  =  184.009 eV                                                          
   ICORE  =        2    local potential                                                             
   LCOR   =        T    correct aug charges                                                         
   LPAW   =        T    paw PP                                                                      
   EAUG   =  322.069                                                                                
   DEXC   =    0.000                                                                                
   RMAX   =    1.950    core radius for proj-oper                                                   
   RAUG   =    1.300    factor for augmentation sphere                                              
   RDEP   =    1.993    radius for radial grids                                                     
   RDEPT  =    1.837    core radius for aug-charge                                                  
                                                                                                    
   Atomic configuration                                                                             
    6 entries                                                                                       
     n  l   j            E        occ.                                                              
     1  0  0.50     -1785.8828   2.0000                                                             
     2  0  0.50      -139.4969   2.0000                                                             
     2  1  1.50       -95.5546   6.0000                                                             
     3  0  0.50       -10.8127   2.0000                                                             
     3  1  0.50        -4.0811   2.0000                                                             
     3  2  1.50        -4.0817   0.0000                                                             
   Description                                                                                      
     l       E           TYP  RCUT    TYP  RCUT                                                     
     0    -10.8127223     23  1.900                                                                 
     0     -7.6451159     23  1.900                                                                 
     1     -4.0811372     23  1.900                                                                 
     1      2.4879257     23  1.900                                                                 
     2     -4.0817478      7  1.900                                                                 
  local pseudopotential read in
  partial core-charges read in
  partial kinetic energy density read in
  atomic valenz-charges read in
  non local Contribution for L=           0  read in
    real space projection operators read in
  non local Contribution for L=           0  read in
    real space projection operators read in
  non local Contribution for L=           1  read in
    real space projection operators read in
  non local Contribution for L=           1  read in
    real space projection operators read in
    PAW grid and wavefunctions read in
 
   number of l-projection  operators is LMAX  =           4
   number of lm-projection operators is LMMAX =           8
 
 POTCAR:    PAW_PBE O 08Apr2002                   
   VRHFIN =O: s2p4                                                                                  
   LEXCH  = PE                                                                                      
   EATOM  =   432.3788 eV,   31.7789 Ry                                                             
                                                                                                    
   TITEL  = PAW_PBE O 08Apr2002                                                                     
   LULTRA =        F    use ultrasoft PP ?                                                          
   IUNSCR =        1    unscreen: 0-lin 1-nonlin 2-no                                               
   RPACOR =    1.200    partial core radius                                                         
   POMASS =   16.000; ZVAL   =    6.000    mass and valenz                                          
   RCORE  =    1.520    outmost cutoff radius                                                       
   RWIGS  =    1.550; RWIGS  =    0.820    wigner-seitz radius (au A)                               
   ENMAX  =  400.000; ENMIN  =  300.000 eV                                                          
   ICORE  =        2    local potential                                                             
   LCOR   =        T    correct aug charges                                                         
   LPAW   =        T    paw PP                                                                      
   EAUG   =  605.392                                                                                
   DEXC   =    0.000                                                                                
   RMAX   =    1.553    core radius for proj-oper                                                   
   RAUG   =    1.300    factor for augmentation sphere                                              
   RDEP   =    1.550    radius for radial grids                                                     
   RDEPT  =    1.329    core radius for aug-charge                                                  
                                                                                                    
   Atomic configuration                                                                             
    4 entries                                                                                       
     n  l   j            E        occ.                                                              
     1  0  0.50      -514.6923   2.0000                                                             
     2  0  0.50       -23.9615   2.0000                                                             
     2  1  0.50        -9.0305   4.0000                                                             
     3  2  1.50        -9.5241   0.0000                                                             
   Description                                                                                      
     l       E           TYP  RCUT    TYP  RCUT                                                     
     0    -23.9615318     23  1.200                                                                 
     0     -9.5240782     23  1.200                                                                 
     1     -9.0304911     23  1.520                                                                 
     1      8.1634956     23  1.520                                                                 
     2     -9.5240782      7  1.500                                                                 
  local pseudopotential read in
  partial core-charges read in
  partial kinetic energy density read in
  kinetic energy density of atom read in
  atomic valenz-charges read in
  non local Contribution for L=           0  read in
    real space projection operators read in
  non local Contribution for L=           0  read in
    real space projection operators read in
  non local Contribution for L=           1  read in
    real space projection operators read in
  non local Contribution for L=           1  read in
    real space projection operators read in
    PAW grid and wavefunctions read in
 
   number of l-projection  operators is LMAX  =           4
   number of lm-projection operators is LMMAX =           8
 
 -----------------------------------------------------------------------------
|                                                                             |
|               ----> ADVICE to this user running VASP <----                  |
|                                                                             |
|     You have a (more or less) 'large supercell' and for larger cells it     |
|     might be more efficient to use real-space projection operators.         |
|     Therefore, try LREAL= Auto in the INCAR file.                           |
|     Mind: For very accurate calculation, you might also keep the            |
|     reciprocal projection scheme (i.e. LREAL=.FALSE.).                      |
|                                                                             |
 -----------------------------------------------------------------------------

  PAW_PBE Si 05Jan2001                  :
 energy of atom  1       EATOM= -103.0669
 kinetic energy error for atom=    0.0004 (will be added to EATOM!!)
  PAW_PBE O 08Apr2002                   :
 energy of atom  2       EATOM= -432.3788
 kinetic energy error for atom=    0.0194 (will be added to EATOM!!)
 
 
 POSCAR: Si24 O48
  positions in direct lattice
  No initial velocities read in
 exchange correlation table for  LEXCH =        8
   RHO(1)=    0.500       N(1)  =     2000
   RHO(2)=  100.500       N(2)  =     4000

 VTST: version 4.2, (08/11/21)

 CHAIN: initializing optimizer
 
 OPT: Using VASP Conjugate-Gradient optimizer
 CHAIN: Read ICHAIN            0
 
 POSCAR: Si24 O48
  positions in direct lattice
  No initial velocities read in
 


--------------------------------------------------------------------------------------------------------


 ion  position               nearest neighbor table
   1  0.266  0.266  0.000-  66 1.61  33 1.61  49 1.62  26 1.62  14 3.06  19 3.06  17 3.06  10 3.06

   2  0.266  0.266  0.500-  65 1.61  34 1.61  50 1.62  25 1.62  13 3.06  20 3.06  18 3.06   9 3.06

   3  0.266  0.766  0.000-  68 1.61  35 1.61  51 1.62  28 1.62  16 3.06  17 3.06  12 3.06  19 3.06

   4  0.266  0.766  0.500-  67 1.61  36 1.61  52 1.62  27 1.62  15 3.06  18 3.06  11 3.06  20 3.06

   5  0.766  0.266  0.000-  70 1.61  37 1.61  53 1.62  30 1.62  10 3.06  23 3.06  21 3.06  14 3.06

   6  0.766  0.266  0.500-  69 1.61  38 1.61  54 1.62  29 1.62   9 3.06  24 3.06  22 3.06  13 3.06

   7  0.766  0.766  0.000-  72 1.61  39 1.61  55 1.62  32 1.62  12 3.06  21 3.06  16 3.06  23 3.06

   8  0.766  0.766  0.500-  71 1.61  40 1.61  56 1.62  31 1.62  11 3.06  22 3.06  15 3.06  24 3.06

   9  0.000  0.234  0.333-  25 1.61  61 1.61  41 1.62  69 1.62   6 3.06   2 3.06  19 3.06  21 3.06

  10  0.000  0.234  0.833-  26 1.61  62 1.61  42 1.62  70 1.62   5 3.06   1 3.06  20 3.06  22 3.06

  11  0.000  0.734  0.333-  27 1.61  63 1.61  43 1.62  71 1.62   8 3.06   4 3.06  17 3.06  23 3.06

  12  0.000  0.734  0.833-  28 1.61  64 1.61  44 1.62  72 1.62   7 3.06   3 3.06  18 3.06  24 3.06

  13  0.500  0.234  0.333-  29 1.61  57 1.61  45 1.62  65 1.62   2 3.06   6 3.06  17 3.06  23 3.06

  14  0.500  0.234  0.833-  30 1.61  58 1.61  46 1.62  66 1.62   1 3.06   5 3.06  18 3.06  24 3.06

  15  0.500  0.734  0.333-  31 1.61  59 1.61  47 1.62  67 1.62   4 3.06   8 3.06  19 3.06  21 3.06

  16  0.500  0.734  0.833-  32 1.61  60 1.61  48 1.62  68 1.62   3 3.06   7 3.06  20 3.06  22 3.06

  17  0.234  0.000  0.167-  49 1.61  43 1.61  35 1.62  57 1.62   3 3.06   1 3.06  11 3.06  13 3.06

  18  0.234  0.000  0.667-  50 1.61  44 1.61  36 1.62  58 1.62   4 3.06   2 3.06  12 3.06  14 3.06

  19  0.234  0.500  0.167-  51 1.61  41 1.61  33 1.62  59 1.62   1 3.06   3 3.06   9 3.06  15 3.06

  20  0.234  0.500  0.667-  52 1.61  42 1.61  34 1.62  60 1.62   2 3.06   4 3.06  10 3.06  16 3.06

  21  0.734  0.000  0.167-  53 1.61  47 1.61  39 1.62  61 1.62   7 3.06   5 3.06   9 3.06  15 3.06

  22  0.734  0.000  0.667-  54 1.61  48 1.61  40 1.62  62 1.62   8 3.06   6 3.06  10 3.06  16 3.06

  23  0.734  0.500  0.167-  55 1.61  45 1.61  37 1.62  63 1.62   5 3.06   7 3.06  11 3.06  13 3.06

  24  0.734  0.500  0.667-  56 1.61  46 1.61  38 1.62  64 1.62   6 3.06   8 3.06  12 3.06  14 3.06

  25  0.135  0.207  0.392-   9 1.61   2 1.62
  26  0.135  0.207  0.892-  10 1.61   1 1.62
  27  0.135  0.707  0.392-  11 1.61   4 1.62
  28  0.135  0.707  0.892-  12 1.61   3 1.62
  29  0.635  0.207  0.392-  13 1.61   6 1.62
  30  0.635  0.207  0.892-  14 1.61   5 1.62
  31  0.635  0.707  0.392-  15 1.61   8 1.62
  32  0.635  0.707  0.892-  16 1.61   7 1.62
  33  0.293  0.428  0.059-   1 1.61  19 1.62
  34  0.293  0.428  0.559-   2 1.61  20 1.62
  35  0.293  0.928  0.059-   3 1.61  17 1.62
  36  0.293  0.928  0.559-   4 1.61  18 1.62
  37  0.793  0.428  0.059-   5 1.61  23 1.62
  38  0.793  0.428  0.559-   6 1.61  24 1.62
  39  0.793  0.928  0.059-   7 1.61  21 1.62
  40  0.793  0.928  0.559-   8 1.61  22 1.62
  41  0.072  0.365  0.226-  19 1.61   9 1.62
  42  0.072  0.365  0.726-  20 1.61  10 1.62
  43  0.072  0.865  0.226-  17 1.61  11 1.62
  44  0.072  0.865  0.726-  18 1.61  12 1.62
  45  0.572  0.365  0.226-  23 1.61  13 1.62
  46  0.572  0.365  0.726-  24 1.61  14 1.62
  47  0.572  0.865  0.226-  21 1.61  15 1.62
  48  0.572  0.865  0.726-  22 1.61  16 1.62
  49  0.207  0.135  0.108-  17 1.61   1 1.62
  50  0.207  0.135  0.608-  18 1.61   2 1.62
  51  0.207  0.635  0.108-  19 1.61   3 1.62
  52  0.207  0.635  0.608-  20 1.61   4 1.62
  53  0.707  0.135  0.108-  21 1.61   5 1.62
  54  0.707  0.135  0.608-  22 1.61   6 1.62
  55  0.707  0.635  0.108-  23 1.61   7 1.62
  56  0.707  0.635  0.608-  24 1.61   8 1.62
  57  0.365  0.072  0.274-  13 1.61  17 1.62
  58  0.365  0.072  0.774-  14 1.61  18 1.62
  59  0.365  0.572  0.274-  15 1.61  19 1.62
  60  0.365  0.572  0.774-  16 1.61  20 1.62
  61  0.865  0.072  0.274-   9 1.61  21 1.62
  62  0.865  0.072  0.774-  10 1.61  22 1.62
  63  0.865  0.572  0.274-  11 1.61  23 1.62
  64  0.865  0.572  0.774-  12 1.61  24 1.62
  65  0.428  0.293  0.441-   2 1.61  13 1.62
  66  0.428  0.293  0.941-   1 1.61  14 1.62
  67  0.428  0.793  0.441-   4 1.61  15 1.62
  68  0.428  0.793  0.941-   3 1.61  16 1.62
  69  0.928  0.293  0.441-   6 1.61   9 1.62
  70  0.928  0.293  0.941-   5 1.61  10 1.62
  71  0.928  0.793  0.441-   8 1.61  11 1.62
  72  0.928  0.793  0.941-   7 1.61  12 1.62
 
  LATTYP: Found a hexagonal cell.
 ALAT       =     9.8299323535
 C/A-ratio  =     1.1050536148
  
  Lattice vectors:
  
 A1 = (   4.9149661767,  -8.5129711356,   0.0000000000)
 A2 = (   4.9149661767,   8.5129711356,   0.0000000000)
 A3 = (   0.0000000000,   0.0000000000,  10.8626022800)


Analysis of symmetry for initial positions (statically):
=====================================================================
 Subroutine PRICEL returns following result:
 
  LATTYP: Found a hexagonal cell.
 ALAT       =     4.9149661767
 C/A-ratio  =     1.1050536148
  
  Lattice vectors:
  
 A1 = (   2.4574830884,  -4.2564855678,   0.0000000000)
 A2 = (   2.4574830884,   4.2564855678,   0.0000000000)
 A3 = (   0.0000000000,   0.0000000000,   5.4313011400)
 
   8 primitive cells build up your supercell.
 

 Routine SETGRP: Setting up the symmetry group for a 
 hexagonal supercell.


 Subroutine GETGRP returns: Found  6 space group operations
 (whereof  2 operations were pure point group operations)
 out of a pool of 24 trial point group operations.


The static configuration has the point symmetry C_2 .
 The point group associated with its full space group is D_3 .


Analysis of symmetry for dynamics (positions and initial velocities):
=====================================================================
 Subroutine PRICEL returns following result:
 
  LATTYP: Found a hexagonal cell.
 ALAT       =     4.9149661767
 C/A-ratio  =     1.1050536148
  
  Lattice vectors:
  
 A1 = (   2.4574830884,  -4.2564855678,   0.0000000000)
 A2 = (   2.4574830884,   4.2564855678,   0.0000000000)
 A3 = (   0.0000000000,   0.0000000000,   5.4313011400)
 
   8 primitive cells build up your supercell.
 

 Routine SETGRP: Setting up the symmetry group for a 
 hexagonal supercell.


 Subroutine GETGRP returns: Found  6 space group operations
 (whereof  2 operations were pure point group operations)
 out of a pool of 24 trial point group operations.


The dynamic configuration has the point symmetry C_2 .
 The point group associated with its full space group is D_3 .


 Subroutine INISYM returns: Found  6 space group operations
 (whereof  2 operations are pure point group operations),
 and found     8 'primitive' translations


----------------------------------------------------------------------------------------

                                     Primitive cell                                     

  volume of cell :     113.6254

  direct lattice vectors                    reciprocal lattice vectors
     2.457483088 -4.256485568  0.000000000     0.203460200 -0.117467801  0.000000000
     2.457483088  4.256485568  0.000000000     0.203460200  0.117467801  0.000000000
     0.000000000  0.000000000  5.431301140     0.000000000  0.000000000  0.184117944

  length of vectors
     4.914966177  4.914966177  5.431301140     0.234935602  0.234935602  0.184117944

  position of ions in fractional coordinates (direct lattice)
     0.531088590  0.531088590  0.000000000
     0.000000000  0.468911410  0.666666667
     0.468911410  0.000000000  0.333333333
     0.269223110  0.413394290  0.784890980
     0.586605710  0.855828820  0.118224313
     0.144171180  0.730776890  0.451557647
     0.413394290  0.269223110  0.215109020
     0.730776890  0.144171180  0.548442353
     0.855828820  0.586605710  0.881775687

  ion indices of the primitive-cell ions
   primitive index   ion index
                 1           1
                 2          14
                 3          19
                 4          26
                 5          33
                 6          41
                 7          49
                 8          58
                 9          66

----------------------------------------------------------------------------------------

 
 
 KPOINTS: pymatgen with grid density = 1000 / numb

Automatic generation of k-mesh.
 Grid dimensions read from file:
 generate k-points for:    2    2    2

 Generating k-lattice:

  Cartesian coordinates                     Fractional coordinates (reciprocal lattice)
     0.050865050 -0.029366950  0.000000000     0.500000000 -0.000000000  0.000000000
     0.050865050  0.029366950  0.000000000    -0.000000000  0.500000000  0.000000000
     0.000000000  0.000000000  0.046029486     0.000000000  0.000000000  0.500000000

  Length of vectors
     0.058733901  0.058733901  0.046029486

  Shift w.r.t. Gamma in fractional coordinates (k-lattice)
     0.000000000  0.000000000  0.000000000

 
 Subroutine IBZKPT returns following result:
 ===========================================
 
 Found      4 irreducible k-points:
 
 Following reciprocal coordinates:
            Coordinates               Weight
  0.000000  0.000000  0.000000      1.000000
  0.500000  0.000000  0.000000      3.000000
  0.000000  0.000000  0.500000      1.000000
  0.500000  0.000000  0.500000      3.000000
 
 Following cartesian coordinates:
            Coordinates               Weight
  0.000000  0.000000  0.000000      1.000000
  0.050865 -0.029367  0.000000      3.000000
  0.000000  0.000000  0.046029      1.000000
  0.050865 -0.029367  0.046029      3.000000
 


--------------------------------------------------------------------------------------------------------




 Dimension of arrays:
   k-points           NKPTS =      4   k-points in BZ     NKDIM =      4   number of bands    NBANDS=    288
   number of dos      NEDOS =    301   number of ions     NIONS =     72
   non local maximal  LDIM  =      4   non local SUM 2l+1 LMDIM =      8
   total plane-waves  NPLWV = 200704
   max r-space proj   IRMAX =      1   max aug-charges    IRDMAX=   7581
   dimension x,y,z NGX =    56 NGY =   56 NGZ =   64
   dimension x,y,z NGXF=   112 NGYF=  112 NGZF=  128
   support grid    NGXF=   112 NGYF=  112 NGZF=  128
   ions per type =              24  48
   NGX,Y,Z   is equivalent  to a cutoff of   9.47,  9.47,  9.79 a.u.
   NGXF,Y,Z  is equivalent  to a cutoff of  18.94, 18.94, 19.59 a.u.

 SYSTEM =  SiO2                                    
 POSCAR =  Si24 O48                                

 Startparameter for this run:
   NWRITE =      2    write-flag & timer
   PREC   = normal    normal or accurate (medium, high low for compatibility)
   ISTART =      0    job   : 0-new  1-cont  2-samecut
   ICHARG =      2    charge: 1-file 2-atom 10-const
   ISPIN  =      1    spin polarized calculation?
   LNONCOLLINEAR =      F non collinear calculations
   LSORBIT =      F    spin-orbit coupling
   INIWAV =      1    electr: 0-lowe 1-rand  2-diag
   LASPH  =      F    aspherical Exc in radial PAW
 Electronic Relaxation 1
   ENCUT  =  550.0 eV  40.42 Ry    6.36 a.u.  18.80 18.80 20.77*2*pi/ulx,y,z
   ENINI  =  550.0     initial cutoff
   ENAUG  =  605.4 eV  augmentation charge cutoff
   NELM   =    200;   NELMIN=  2; NELMDL= -5     # of ELM steps 
   EDIFF  = 0.1E-05   stopping-criterion for ELM
   LREAL  =      F    real-space projection
   NLSPLINE    = F    spline interpolate recip. space projectors
   LCOMPAT=      F    compatible to vasp.4.4
   GGA_COMPAT  = T    GGA compatible to vasp.4.4-vasp.4.6
   LMAXPAW     = -100 max onsite density
   LMAXMIX     =    2 max onsite mixed and CHGCAR
   VOSKOWN=      0    Vosko Wilk Nusair interpolation
   ROPT   =    0.00000   0.00000
 Ionic relaxation
   EDIFFG = -.5E-01   stopping-criterion for IOM
   NSW    =      0    number of steps for IOM
   NBLOCK =      1;   KBLOCK =      1    inner block; outer block 
   IBRION =     -1    ionic relax: 0-MD 1-quasi-New 2-CG
   NFREE  =      1    steps in history (QN), initial steepest desc. (CG)
   ISIF   =      2    stress and relaxation
   IWAVPR =     10    prediction:  0-non 1-charg 2-wave 3-comb
   ISYM   =      2    0-nonsym 1-usesym 2-fastsym
   LCORR  =      T    Harris-Foulkes like correction to forces

   POTIM  = 0.5000    time-step for ionic-motion
   TEIN   =    0.0    initial temperature
   TEBEG  =    0.0;   TEEND  =   0.0 temperature during run
   SMASS  =  -3.00    Nose mass-parameter (am)
   estimated Nose-frequenzy (Omega)   =  0.10E-29 period in steps = 0.13E+47 mass=  -0.221E-26a.u.
   SCALEE = 1.0000    scale energy and forces
   NPACO  =    256;   APACO  = 10.0  distance and # of slots for P.C.
   PSTRESS=    0.0 pullay stress

  Mass of Ions in am
   POMASS =  28.09 16.00
  Ionic Valenz
   ZVAL   =   4.00  6.00
  Atomic Wigner-Seitz radii
   RWIGS  =  -1.00 -1.00
  virtual crystal weights 
   VCA    =   1.00  1.00
   NELECT =     384.0000    total number of electrons
   NUPDOWN=      -1.0000    fix difference up-down

 DOS related values:
   EMIN   =  10.00;   EMAX   =-10.00  energy-range for DOS
   EFERMI =   0.00
   ISMEAR =     0;   SIGMA  =   0.05  broadening in eV -4-tet -1-fermi 0-gaus

 Electronic relaxation 2 (details)
   IALGO  =     38    algorithm
   LDIAG  =      T    sub-space diagonalisation (order eigenvalues)
   LSUBROT=      F    optimize rotation matrix (better conditioning)
   TURBO    =      0    0=normal 1=particle mesh
   IRESTART =      0    0=no restart 2=restart with 2 vectors
   NREBOOT  =      0    no. of reboots
   NMIN     =      0    reboot dimension
   EREF     =   0.00    reference energy to select bands
   IMIX   =      4    mixing-type and parameters
     AMIX     =   0.20;   BMIX     =  1.00
     AMIX_MAG =   0.80;   BMIX_MAG =  1.00
     AMIN     =   0.10
     WC   =   100.;   INIMIX=   1;  MIXPRE=   1;  MAXMIX= -45

 Intra band minimization:
   WEIMIN = 0.0000     energy-eigenvalue tresh-hold
   EBREAK =  0.87E-09  absolut break condition
   DEPER  =   0.30     relativ break condition  

   TIME   =   0.40     timestep for ELM

  volume/ion in A,a.u.               =      12.63        85.20
  Fermi-wavevector in a.u.,A,eV,Ry     =   1.228372  2.321287 20.529814  1.508899
  Thomas-Fermi vector in A             =   2.363300
 
 Write flags
   LWAVE        =      T    write WAVECAR
   LDOWNSAMPLE  =      F    k-point downsampling of WAVECAR
   LCHARG       =      T    write CHGCAR
   LVTOT        =      T    write LOCPOT, total local potential
   LVHAR        =      F    write LOCPOT, Hartree potential only
   LELF         =      F    write electronic localiz. function (ELF)
   LORBIT       =     11    0 simple, 1 ext, 2 COOP (PROOUT), +10 PAW based schemes


 Dipole corrections
   LMONO  =      F    monopole corrections only (constant potential shift)
   LDIPOL =      F    correct potential (dipole corrections)
   IDIPOL =      0    1-x, 2-y, 3-z, 4-all directions 
   EPSILON=  1.0000000 bulk dielectric constant

 Exchange correlation treatment:
   GGA     =    --    GGA type
   LEXCH   =     8    internal setting for exchange type
   LIBXC   =     F    Libxc                    
   VOSKOWN =     0    Vosko Wilk Nusair interpolation
   LHFCALC =     F    Hartree Fock is set to
   LHFONE  =     F    Hartree Fock one center treatment
   AEXX    =    0.0000 exact exchange contribution

 Linear response parameters
   LEPSILON=     F    determine dielectric tensor
   LRPA    =     F    only Hartree local field effects (RPA)
   LNABLA  =     F    use nabla operator in PAW spheres
   LVEL    =     F    velocity operator in full k-point grid
   CSHIFT  =0.1000    complex shift for real part using Kramers Kronig
   OMEGAMAX=  -1.0    maximum frequency
   DEG_THRESHOLD= 0.2000000E-02 threshold for treating states as degnerate
   RTIME   =   -0.100 relaxation time in fs
  (WPLASMAI=    0.000 imaginary part of plasma frequency in eV, 0.658/RTIME)
   DFIELD  = 0.0000000 0.0000000 0.0000000 field for delta impulse in time
 
  Optional k-point grid parameters
   LKPOINTS_OPT  =     F    use optional k-point grid
   KPOINTS_OPT_MODE=     1    mode for optional k-point grid
 
 Orbital magnetization related:
   ORBITALMAG=     F  switch on orbital magnetization
   LCHIMAG   =     F  perturbation theory with respect to B field
   DQ        =  0.001000  dq finite difference perturbation B field
   LLRAUG    =     F  two centre corrections for induced B field



--------------------------------------------------------------------------------------------------------


 Static calculation
 charge density and potential will be updated during run
 non-spin polarized calculation
 Variant of blocked Davidson
 Davidson routine will perform the subspace rotation
 perform sub-space diagonalisation
    after iterative eigenvector-optimisation
 modified Broyden-mixing scheme, WC =      100.0
 initial mixing is a Kerker type mixing with AMIX =  0.2000 and BMIX =      1.0000
 Hartree-type preconditioning will be used
 using additional bands           96
 reciprocal scheme for non local part
 use partial core corrections
 calculate Harris-corrections to forces 
   (improved forces if not selfconsistent)
 use gradient corrections 
 use of overlap-Matrix (Vanderbilt PP)
 Gauss-broadening in eV      SIGMA  =   0.05


--------------------------------------------------------------------------------------------------------


  energy-cutoff  :      550.00
  volume of cell :      909.00
      direct lattice vectors                 reciprocal lattice vectors
     4.914966177 -8.512971136  0.000000000     0.101730100 -0.058733901  0.000000000
     4.914966177  8.512971136  0.000000000     0.101730100  0.058733901  0.000000000
     0.000000000  0.000000000 10.862602280     0.000000000  0.000000000  0.092058972

  length of vectors
     9.829932353  9.829932353 10.862602280     0.117467801  0.117467801  0.092058972


 
 k-points in units of 2pi/SCALE and weight: pymatgen with grid density = 1000 / numb
   0.00000000  0.00000000  0.00000000       0.125
   0.05086505 -0.02936695  0.00000000       0.375
   0.00000000  0.00000000  0.04602949       0.125
   0.05086505 -0.02936695  0.04602949       0.375
 
 k-points in reciprocal lattice and weights: pymatgen with grid density = 1000 / numb
   0.00000000  0.00000000  0.00000000       0.125
   0.50000000  0.00000000  0.00000000       0.375
   0.00000000  0.00000000  0.50000000       0.125
   0.50000000  0.00000000  0.50000000       0.375
 
 position of ions in fractional coordinates (direct lattice) 
   0.26554429  0.26554429  0.00000000
   0.26554429  0.26554429  0.50000000
   0.26554429  0.76554429  0.00000000
   0.26554429  0.76554429  0.50000000
   0.76554429  0.26554429  0.00000000
   0.76554429  0.26554429  0.50000000
   0.76554429  0.76554429  0.00000000
   0.76554429  0.76554429  0.50000000
   0.00000000  0.23445571  0.33333333
   0.00000000  0.23445571  0.83333333
   0.00000000  0.73445571  0.33333333
   0.00000000  0.73445571  0.83333333
   0.50000000  0.23445571  0.33333333
   0.50000000  0.23445571  0.83333333
   0.50000000  0.73445571  0.33333333
   0.50000000  0.73445571  0.83333333
   0.23445571  0.00000000  0.16666667
   0.23445571  0.00000000  0.66666667
   0.23445571  0.50000000  0.16666667
   0.23445571  0.50000000  0.66666667
   0.73445571  0.00000000  0.16666667
   0.73445571  0.00000000  0.66666667
   0.73445571  0.50000000  0.16666667
   0.73445571  0.50000000  0.66666667
   0.13461155  0.20669714  0.39244549
   0.13461155  0.20669714  0.89244549
   0.13461155  0.70669714  0.39244549
   0.13461155  0.70669714  0.89244549
   0.63461155  0.20669714  0.39244549
   0.63461155  0.20669714  0.89244549
   0.63461155  0.70669714  0.39244549
   0.63461155  0.70669714  0.89244549
   0.29330286  0.42791441  0.05911216
   0.29330286  0.42791441  0.55911216
   0.29330286  0.92791441  0.05911216
   0.29330286  0.92791441  0.55911216
   0.79330286  0.42791441  0.05911216
   0.79330286  0.42791441  0.55911216
   0.79330286  0.92791441  0.05911216
   0.79330286  0.92791441  0.55911216
   0.07208559  0.36538845  0.22577882
   0.07208559  0.36538845  0.72577882
   0.07208559  0.86538845  0.22577882
   0.07208559  0.86538845  0.72577882
   0.57208559  0.36538845  0.22577882
   0.57208559  0.36538845  0.72577882
   0.57208559  0.86538845  0.22577882
   0.57208559  0.86538845  0.72577882
   0.20669714  0.13461155  0.10755451
   0.20669714  0.13461155  0.60755451
   0.20669714  0.63461155  0.10755451
   0.20669714  0.63461155  0.60755451
   0.70669714  0.13461155  0.10755451
   0.70669714  0.13461155  0.60755451
   0.70669714  0.63461155  0.10755451
   0.70669714  0.63461155  0.60755451
   0.36538845  0.07208559  0.27422118
   0.36538845  0.07208559  0.77422118
   0.36538845  0.57208559  0.27422118
   0.36538845  0.57208559  0.77422118
   0.86538845  0.07208559  0.27422118
   0.86538845  0.07208559  0.77422118
   0.86538845  0.57208559  0.27422118
   0.86538845  0.57208559  0.77422118
   0.42791441  0.29330286  0.44088784
   0.42791441  0.29330286  0.94088784
   0.42791441  0.79330286  0.44088784
   0.42791441  0.79330286  0.94088784
   0.92791441  0.29330286  0.44088784
   0.92791441  0.29330286  0.94088784
   0.92791441  0.79330286  0.44088784
   0.92791441  0.79330286  0.94088784
 
 position of ions in cartesian coordinates  (Angst):
   2.61028246 -0.00000000  0.00000000
   2.61028246 -0.00000000  5.43130114
   5.06776555  4.25648557  0.00000000
   5.06776555  4.25648557  5.43130114
   5.06776555 -4.25648557  0.00000000
   5.06776555 -4.25648557  5.43130114
   7.52524863  0.00000000  0.00000000
   7.52524863  0.00000000  5.43130114
   1.15234186  1.99591465  3.62086743
   1.15234186  1.99591465  9.05216857
   3.60982495  6.25240022  3.62086743
   3.60982495  6.25240022  9.05216857
   3.60982495 -2.26057092  3.62086743
   3.60982495 -2.26057092  9.05216857
   6.06730804  1.99591465  3.62086743
   6.06730804  1.99591465  9.05216857
   1.15234186 -1.99591465  1.81043371
   1.15234186 -1.99591465  7.24173485
   3.60982495  2.26057092  1.81043371
   3.60982495  2.26057092  7.24173485
   3.60982495 -6.25240022  1.81043371
   3.60982495 -6.25240022  7.24173485
   6.06730804 -1.99591465  1.81043371
   6.06730804 -1.99591465  7.24173485
   1.67752072  0.61366255  4.26297927
   1.67752072  0.61366255  9.69428041
   4.13500380  4.87014811  4.26297927
   4.13500380  4.87014811  9.69428041
   4.13500380 -3.64282302  4.26297927
   4.13500380 -3.64282302  9.69428041
   6.59248689  0.61366255  4.26297927
   6.59248689  0.61366255  9.69428041
   3.54475846  1.14594428  0.64211185
   3.54475846  1.14594428  6.07341299
   6.00224155  5.40242985  0.64211185
   6.00224155  5.40242985  6.07341299
   6.00224155 -3.11054129  0.64211185
   6.00224155 -3.11054129  6.07341299
   8.45972464  1.14594428  0.64211185
   8.45972464  1.14594428  6.07341299
   2.15017009  2.49687874  2.45254556
   2.15017009  2.49687874  7.88384670
   4.60765317  6.75336431  2.45254556
   4.60765317  6.75336431  7.88384670
   4.60765317 -1.75960683  2.45254556
   4.60765317 -1.75960683  7.88384670
   7.06513626  2.49687874  2.45254556
   7.06513626  2.49687874  7.88384670
   1.67752072 -0.61366255  1.16832187
   1.67752072 -0.61366255  6.59962301
   4.13500380  3.64282302  1.16832187
   4.13500380  3.64282302  6.59962301
   4.13500380 -4.87014811  1.16832187
   4.13500380 -4.87014811  6.59962301
   6.59248689 -0.61366255  1.16832187
   6.59248689 -0.61366255  6.59962301
   2.15017009 -2.49687874  2.97875558
   2.15017009 -2.49687874  8.41005672
   4.60765317  1.75960683  2.97875558
   4.60765317  1.75960683  8.41005672
   4.60765317 -6.75336431  2.97875558
   4.60765317 -6.75336431  8.41005672
   7.06513626 -2.49687874  2.97875558
   7.06513626 -2.49687874  8.41005672
   3.54475846 -1.14594428  4.78918929
   3.54475846 -1.14594428 10.22049043
   6.00224155  3.11054129  4.78918929
   6.00224155  3.11054129 10.22049043
   6.00224155 -5.40242985  4.78918929
   6.00224155 -5.40242985 10.22049043
   8.45972464 -1.14594428  4.78918929
   8.45972464 -1.14594428 10.22049043
 


--------------------------------------------------------------------------------------------------------


 k-point   1 :   0.0000 0.0000 0.0000  plane waves:   26579
 k-point   2 :   0.5000 0.0000 0.0000  plane waves:   26614
 k-point   3 :   0.0000 0.0000 0.5000  plane waves:   26718
 k-point   4 :   0.5000 0.0000 0.5000  plane waves:   26636

 maximum and minimum number of plane-waves per node :     26718    26579

 maximum number of plane-waves:     26718
 maximum index in each direction: 
   IXMAX=   18   IYMAX=   18   IZMAX=   20
   IXMIN=  -19   IYMIN=  -18   IZMIN=  -21


 serial   3D FFT for wavefunctions
 parallel 3D FFT for charge:
    minimum data exchange during FFTs selected (reduces bandwidth)


 total amount of memory used by VASP MPI-rank0    91464. kBytes
=======================================================================

   base      :      30000. kBytes
   nonl-proj :      44568. kBytes
   fftplans  :       1721. kBytes
   grid      :       9701. kBytes
   one-center:        221. kBytes
   wavefun   :       5253. kBytes
 
     INWAV:  cpu time      0.0000: real time      0.0001
 Broyden mixing: mesh for mixing (old mesh)
   NGX = 37   NGY = 37   NGZ = 41
  (NGX  =112   NGY  =112   NGZ  =128)
  gives a total of  56129 points

 initial charge density was supplied:
 charge density of overlapping atoms calculated
 number of electron     384.0000000 magnetization 
 keeping initial charge density in first step


--------------------------------------------------------------------------------------------------------


 Maximum index for augmentation-charges          412 (set IRDMAX)


--------------------------------------------------------------------------------------------------------


 First call to EWALD:  gamma=   0.183
 Maximum number of real-space cells 3x 3x 3
 Maximum number of reciprocal cells 3x 3x 3

    FEWALD:  cpu time      0.0040: real time      0.0040


--------------------------------------- Iteration      1(   1)  ---------------------------------------


    POTLOK:  cpu time      0.0434: real time      0.0518
    SETDIJ:  cpu time      0.0028: real time      0.0028
     EDDAV:  cpu time      2.5023: real time      2.5300
       DOS:  cpu time      0.0019: real time      0.0020
    --------------------------------------------
      LOOP:  cpu time      2.5504: real time      2.5867

 eigenvalue-minimisations  :  2304
 total energy-change (2. order) : 0.1982916E+04  (-0.2076040E+05)
 number of electron     384.0000000 magnetization 
 augmentation part      384.0000000 magnetization 

 Free energy of the ion-electron system (eV)
  ---------------------------------------------------
  alpha Z        PSCENC =       554.92407537
  Ewald energy   TEWEN  =    -15131.20467602
  -Hartree energ DENC   =     -7473.86764816
  -exchange      EXHF   =         0.00000000
  -V(xc)+E(xc)   XCENC  =      1132.14609239
  PAW double counting   =     18749.34608149   -18413.44350966
  entropy T*S    EENTRO =        -0.00921430
  eigenvalues    EBANDS =      -661.82292618
  atomic energy  EATOM  =     23226.84744063
  Solvation  Ediel_sol  =         0.00000000
  ---------------------------------------------------
  free energy    TOTEN  =      1982.91571557 eV

  energy without entropy =     1982.92492986  energy(sigma->0) =     1982.92032271


--------------------------------------------------------------------------------------------------------




--------------------------------------- Iteration      1(   2)  ---------------------------------------


     EDDAV:  cpu time      4.1226: real time      4.1469
       DOS:  cpu time      0.0006: real time      0.0006
    --------------------------------------------
      LOOP:  cpu time      4.1232: real time      4.1474

 eigenvalue-minimisations  :  3744
 total energy-change (2. order) :-0.2513674E+04  (-0.2428605E+04)
 number of electron     384.0000000 magnetization 
 augmentation part      384.0000000 magnetization 

 Free energy of the ion-electron system (eV)
  ---------------------------------------------------
  alpha Z        PSCENC =       554.92407537
  Ewald energy   TEWEN  =    -15131.20467602
  -Hartree energ DENC   =     -7473.86764816
  -exchange      EXHF   =         0.00000000
  -V(xc)+E(xc)   XCENC  =      1132.14609239
  PAW double counting   =     18749.34608149   -18413.44350966
  entropy T*S    EENTRO =        -0.00000000
  eigenvalues    EBANDS =     -3175.50595053
  atomic energy  EATOM  =     23226.84744063
  Solvation  Ediel_sol  =         0.00000000
  ---------------------------------------------------
  free energy    TOTEN  =      -530.75809449 eV

  energy without entropy =     -530.75809449  energy(sigma->0) =     -530.75809449


--------------------------------------------------------------------------------------------------------




--------------------------------------- Iteration      1(   3)  ---------------------------------------


     EDDAV:  cpu time      3.3573: real time      3.3767
       DOS:  cpu time      0.0009: real time      0.0009
    --------------------------------------------
      LOOP:  cpu time      3.3582: real time      3.3776

 eigenvalue-minimisations  :  3072
 total energy-change (2. order) :-0.1126486E+03  (-0.1122524E+03)
 number of electron     384.0000000 magnetization 
 augmentation part      384.0000000 magnetization 

 Free energy of the ion-electron system (eV)
  ---------------------------------------------------
  alpha Z        PSCENC =       554.92407537
  Ewald energy   TEWEN  =    -15131.20467602
  -Hartree energ DENC   =     -7473.86764816
  -exchange      EXHF   =         0.00000000
  -V(xc)+E(xc)   XCENC  =      1132.14609239
  PAW double counting   =     18749.34608149   -18413.44350966
  entropy T*S    EENTRO =        -0.00000000
  eigenvalues    EBANDS =     -3288.15454250
  atomic energy  EATOM  =     23226.84744063
  Solvation  Ediel_sol  =         0.00000000
  ---------------------------------------------------
  free energy    TOTEN  =      -643.40668646 eV

  energy without entropy =     -643.40668646  energy(sigma->0) =     -643.40668646


--------------------------------------------------------------------------------------------------------




--------------------------------------- Iteration      1(   4)  ---------------------------------------


     EDDAV:  cpu time      2.7274: real time      2.7520
       DOS:  cpu time      0.0011: real time      0.0011
    --------------------------------------------
      LOOP:  cpu time      2.7285: real time      2.7531

 eigenvalue-minimisations  :  2688
 total energy-change (2. order) :-0.9884447E+00  (-0.9883696E+00)
 number of electron     384.0000000 magnetization 
 augmentation part      384.0000000 magnetization 

 Free energy of the ion-electron system (eV)
  ---------------------------------------------------
  alpha Z        PSCENC =       554.92407537
  Ewald energy   TEWEN  =    -15131.20467602
  -Hartree energ DENC   =     -7473.86764816
  -exchange      EXHF   =         0.00000000
  -V(xc)+E(xc)   XCENC  =      1132.14609239
  PAW double counting   =     18749.34608149   -18413.44350966
  entropy T*S    EENTRO =        -0.00000000
  eigenvalues    EBANDS =     -3289.14298723
  atomic energy  EATOM  =     23226.84744063
  Solvation  Ediel_sol  =         0.00000000
  ---------------------------------------------------
  free energy    TOTEN  =      -644.39513120 eV

  energy without entropy =     -644.39513120  energy(sigma->0) =     -644.39513120


--------------------------------------------------------------------------------------------------------




--------------------------------------- Iteration      1(   5)  ---------------------------------------


     EDDAV:  cpu time      3.4656: real time      3.4910
       DOS:  cpu time      0.0012: real time      0.0012
    CHARGE:  cpu time      0.0513: real time      0.0518
    MIXING:  cpu time      0.0049: real time      0.0050
    --------------------------------------------
      LOOP:  cpu time      3.5230: real time      3.5489

 eigenvalue-minimisations  :  3072
 total energy-change (2. order) :-0.1155382E-01  (-0.1155194E-01)
 number of electron     384.0000062 magnetization 
 augmentation part       35.7325315 magnetization 

 Broyden mixing:
  rms(total) = 0.72062E+01    rms(broyden)= 0.72054E+01
  rms(prec ) = 0.83107E+01
  weight for this iteration     100.00

 Free energy of the ion-electron system (eV)
  ---------------------------------------------------
  alpha Z        PSCENC =       554.92407537
  Ewald energy   TEWEN  =    -15131.20467602
  -Hartree energ DENC   =     -7473.86764816
  -exchange      EXHF   =         0.00000000
  -V(xc)+E(xc)   XCENC  =      1132.14609239
  PAW double counting   =     18749.34608149   -18413.44350966
  entropy T*S    EENTRO =        -0.00000000
  eigenvalues    EBANDS =     -3289.15454105
  atomic energy  EATOM  =     23226.84744063
  Solvation  Ediel_sol  =         0.00000000
  ---------------------------------------------------
  free energy    TOTEN  =      -644.40668501 eV

  energy without entropy =     -644.40668501  energy(sigma->0) =     -644.40668501


--------------------------------------------------------------------------------------------------------




--------------------------------------- Iteration      1(   6)  ---------------------------------------


    POTLOK:  cpu time      0.0113: real time      0.0115
    SETDIJ:  cpu time      0.0014: real time      0.0014
     EDDAV:  cpu time      3.1192: real time      3.1406
       DOS:  cpu time      0.0005: real time      0.0035
    CHARGE:  cpu time      0.0475: real time      0.0478
    MIXING:  cpu time      0.0009: real time      0.0009
    --------------------------------------------
      LOOP:  cpu time      3.1808: real time      3.2057

 eigenvalue-minimisations  :  2880
 total energy-change (2. order) : 0.5520099E+02  (-0.6037318E+01)
 number of electron     384.0000058 magnetization 
 augmentation part       32.3244640 magnetization 

 Broyden mixing:
  rms(total) = 0.49931E+01    rms(broyden)= 0.49930E+01
  rms(prec ) = 0.55119E+01
  weight for this iteration     100.00

 eigenvalues of (default mixing * dielectric matrix)
  average eigenvalue GAMMA=   2.3247
  2.3247

 Free energy of the ion-electron system (eV)
  ---------------------------------------------------
  alpha Z        PSCENC =       554.92407537
  Ewald energy   TEWEN  =    -15131.20467602
  -Hartree energ DENC   =     -7898.54284085
  -exchange      EXHF   =         0.00000000
  -V(xc)+E(xc)   XCENC  =      1160.70163435
  PAW double counting   =     24795.10736168   -24467.72768441
  entropy T*S    EENTRO =        -0.00000000
  eigenvalues    EBANDS =     -2829.31100784
  atomic energy  EATOM  =     23226.84744063
  Solvation  Ediel_sol  =         0.00000000
  ---------------------------------------------------
  free energy    TOTEN  =      -589.20569709 eV

  energy without entropy =     -589.20569709  energy(sigma->0) =     -589.20569709


--------------------------------------------------------------------------------------------------------




--------------------------------------- Iteration      1(   7)  ---------------------------------------


    POTLOK:  cpu time      0.0116: real time      0.0128
    SETDIJ:  cpu time      0.0015: real time      0.0015
     EDDAV:  cpu time      3.3240: real time      3.3442
       DOS:  cpu time      0.0011: real time      0.0011
    CHARGE:  cpu time      0.0481: real time      0.0485
    MIXING:  cpu time      0.0005: real time      0.0005
    --------------------------------------------
      LOOP:  cpu time      3.3868: real time      3.4099

 eigenvalue-minimisations  :  3072
 total energy-change (2. order) : 0.2074933E+02  (-0.9726881E+01)
 number of electron     384.0000052 magnetization 
 augmentation part       28.0834726 magnetization 

 Broyden mixing:
  rms(total) = 0.21211E+01    rms(broyden)= 0.21205E+01
  rms(prec ) = 0.22107E+01
  weight for this iteration     100.00

 eigenvalues of (default mixing * dielectric matrix)
  average eigenvalue GAMMA=   2.2515
  2.2515  2.2515

 Free energy of the ion-electron system (eV)
  ---------------------------------------------------
  alpha Z        PSCENC =       554.92407537
  Ewald energy   TEWEN  =    -15131.20467602
  -Hartree energ DENC   =     -8456.57881770
  -exchange      EXHF   =         0.00000000
  -V(xc)+E(xc)   XCENC  =      1198.25641957
  PAW double counting   =     43163.78815044   -42846.81501636
  entropy T*S    EENTRO =        -0.00000000
  eigenvalues    EBANDS =     -2277.67394780
  atomic energy  EATOM  =     23226.84744063
  Solvation  Ediel_sol  =         0.00000000
  ---------------------------------------------------
  free energy    TOTEN  =      -568.45637188 eV

  energy without entropy =     -568.45637188  energy(sigma->0) =     -568.45637188


--------------------------------------------------------------------------------------------------------




--------------------------------------- Iteration      1(   8)  ---------------------------------------


    POTLOK:  cpu time      0.0113: real time      0.0128
    SETDIJ:  cpu time      0.0016: real time      0.0017
     EDDAV:  cpu time      2.8073: real time      2.8348
       DOS:  cpu time      0.0010: real time      0.0010
    CHARGE:  cpu time      0.0481: real time      0.0482
    MIXING:  cpu time      0.0005: real time      0.0006
    --------------------------------------------
      LOOP:  cpu time      2.8697: real time      2.8978

 eigenvalue-minimisations  :  2688
 total energy-change (2. order) : 0.4193767E-01  (-0.3615675E+00)
 number of electron     384.0000053 magnetization 
 augmentation part       28.6004861 magnetization 

 Broyden mixing:
  rms(total) = 0.90177E+00    rms(broyden)= 0.90177E+00
  rms(prec ) = 0.97960E+00
  weight for this iteration     100.00

 eigenvalues of (default mixing * dielectric matrix)
  average eigenvalue GAMMA=   2.5727
  4.3746  1.2623  2.0812

 Free energy of the ion-electron system (eV)
  ---------------------------------------------------
  alpha Z        PSCENC =       554.92407537
  Ewald energy   TEWEN  =    -15131.20467602
  -Hartree energ DENC   =     -8426.90374299
  -exchange      EXHF   =         0.00000000
  -V(xc)+E(xc)   XCENC  =      1196.53818757
  PAW double counting   =     52945.20052680   -52626.72842444
  entropy T*S    EENTRO =        -0.00000000
  eigenvalues    EBANDS =     -2307.08782114
  atomic energy  EATOM  =     23226.84744063
  Solvation  Ediel_sol  =         0.00000000
  ---------------------------------------------------
  free energy    TOTEN  =      -568.41443422 eV

  energy without entropy =     -568.41443422  energy(sigma->0) =     -568.41443422


--------------------------------------------------------------------------------------------------------




--------------------------------------- Iteration      1(   9)  ---------------------------------------


    POTLOK:  cpu time      0.0117: real time      0.0119
    SETDIJ:  cpu time      0.0031: real time      0.0031
     EDDAV:  cpu time      3.0937: real time      3.1155
       DOS:  cpu time      0.0009: real time      0.0009
    CHARGE:  cpu time      0.0474: real time      0.0478
    MIXING:  cpu time      0.0005: real time      0.0005
    --------------------------------------------
      LOOP:  cpu time      3.1573: real time      3.1797

 eigenvalue-minimisations  :  2976
 total energy-change (2. order) :-0.1403762E-01  (-0.5520388E-01)
 number of electron     384.0000053 magnetization 
 augmentation part       28.4697956 magnetization 

 Broyden mixing:
  rms(total) = 0.21506E+00    rms(broyden)= 0.21505E+00
  rms(prec ) = 0.22907E+00
  weight for this iteration     100.00

 eigenvalues of (default mixing * dielectric matrix)
  average eigenvalue GAMMA=   2.4413
  5.0544  0.9397  1.8854  1.8854

 Free energy of the ion-electron system (eV)
  ---------------------------------------------------
  alpha Z        PSCENC =       554.92407537
  Ewald energy   TEWEN  =    -15131.20467602
  -Hartree energ DENC   =     -8509.96741288
  -exchange      EXHF   =         0.00000000
  -V(xc)+E(xc)   XCENC  =      1202.61353059
  PAW double counting   =     65427.48090970   -65109.96463183
  entropy T*S    EENTRO =        -0.00000000
  eigenvalues    EBANDS =     -2229.15770740
  atomic energy  EATOM  =     23226.84744063
  Solvation  Ediel_sol  =         0.00000000
  ---------------------------------------------------
  free energy    TOTEN  =      -568.42847184 eV

  energy without entropy =     -568.42847184  energy(sigma->0) =     -568.42847184


--------------------------------------------------------------------------------------------------------




--------------------------------------- Iteration      1(  10)  ---------------------------------------


    POTLOK:  cpu time      0.0111: real time      0.0114
    SETDIJ:  cpu time      0.0014: real time      0.0014
     EDDAV:  cpu time      3.2619: real time      3.2796
       DOS:  cpu time      0.0012: real time      0.0012
    CHARGE:  cpu time      0.0478: real time      0.0480
    MIXING:  cpu time      0.0005: real time      0.0005
    --------------------------------------------
      LOOP:  cpu time      3.3239: real time      3.3420

 eigenvalue-minimisations  :  2976
 total energy-change (2. order) :-0.3935053E-01  (-0.1028059E-01)
 number of electron     384.0000053 magnetization 
 augmentation part       28.3579873 magnetization 

 Broyden mixing:
  rms(total) = 0.23751E+00    rms(broyden)= 0.23750E+00
  rms(prec ) = 0.24053E+00
  weight for this iteration     100.00

 eigenvalues of (default mixing * dielectric matrix)
  average eigenvalue GAMMA=   2.9783
  5.8265  4.8572  1.9744  0.9996  1.2337

 Free energy of the ion-electron system (eV)
  ---------------------------------------------------
  alpha Z        PSCENC =       554.92407537
  Ewald energy   TEWEN  =    -15131.20467602
  -Hartree energ DENC   =     -8534.36357174
  -exchange      EXHF   =         0.00000000
  -V(xc)+E(xc)   XCENC  =      1204.35032092
  PAW double counting   =     66624.89387488   -66307.78208652
  entropy T*S    EENTRO =        -0.00000000
  eigenvalues    EBANDS =     -2206.13319988
  atomic energy  EATOM  =     23226.84744063
  Solvation  Ediel_sol  =         0.00000000
  ---------------------------------------------------
  free energy    TOTEN  =      -568.46782237 eV

  energy without entropy =     -568.46782237  energy(sigma->0) =     -568.46782237


--------------------------------------------------------------------------------------------------------




--------------------------------------- Iteration      1(  11)  ---------------------------------------


    POTLOK:  cpu time      0.0109: real time      0.0111
    SETDIJ:  cpu time      0.0020: real time      0.0021
     EDDAV:  cpu time      3.1392: real time      3.1571
       DOS:  cpu time      0.0009: real time      0.0009
    CHARGE:  cpu time      0.0785: real time      0.0789
    MIXING:  cpu time      0.0005: real time      0.0005
    --------------------------------------------
      LOOP:  cpu time      3.2321: real time      3.2505

 eigenvalue-minimisations  :  2880
 total energy-change (2. order) :-0.1772751E-01  (-0.3916821E-02)
 number of electron     384.0000053 magnetization 
 augmentation part       28.4399275 magnetization 

 Broyden mixing:
  rms(total) = 0.70223E-01    rms(broyden)= 0.70219E-01
  rms(prec ) = 0.72003E-01
  weight for this iteration     100.00

 eigenvalues of (default mixing * dielectric matrix)
  average eigenvalue GAMMA=   2.6198
  5.6226  4.8633  1.9752  1.3662  0.9812  0.9104

 Free energy of the ion-electron system (eV)
  ---------------------------------------------------
  alpha Z        PSCENC =       554.92407537
  Ewald energy   TEWEN  =    -15131.20467602
  -Hartree energ DENC   =     -8529.39212772
  -exchange      EXHF   =         0.00000000
  -V(xc)+E(xc)   XCENC  =      1203.93001046
  PAW double counting   =     62805.42122386   -62488.25737262
  entropy T*S    EENTRO =        -0.00000000
  eigenvalues    EBANDS =     -2210.75412383
  atomic energy  EATOM  =     23226.84744063
  Solvation  Ediel_sol  =         0.00000000
  ---------------------------------------------------
  free energy    TOTEN  =      -568.48554988 eV

  energy without entropy =     -568.48554988  energy(sigma->0) =     -568.48554988


--------------------------------------------------------------------------------------------------------




--------------------------------------- Iteration      1(  12)  ---------------------------------------


    POTLOK:  cpu time      0.0114: real time      0.0117
    SETDIJ:  cpu time      0.0015: real time      0.0015
     EDDAV:  cpu time      3.3704: real time      3.3885
       DOS:  cpu time      0.0009: real time      0.0009
    CHARGE:  cpu time      0.0475: real time      0.0478
    MIXING:  cpu time      0.0006: real time      0.0006
    --------------------------------------------
      LOOP:  cpu time      3.4322: real time      3.4509

 eigenvalue-minimisations  :  2976
 total energy-change (2. order) : 0.9499425E-03  (-0.2017851E-03)
 number of electron     384.0000053 magnetization 
 augmentation part       28.4271608 magnetization 

 Broyden mixing:
  rms(total) = 0.49266E-01    rms(broyden)= 0.49266E-01
  rms(prec ) = 0.49891E-01
  weight for this iteration     100.00

 eigenvalues of (default mixing * dielectric matrix)
  average eigenvalue GAMMA=   2.5570
  5.6993  4.9066  2.0394  2.0394  0.9984  1.1081  1.1081

 Free energy of the ion-electron system (eV)
  ---------------------------------------------------
  alpha Z        PSCENC =       554.92407537
  Ewald energy   TEWEN  =    -15131.20467602
  -Hartree energ DENC   =     -8531.18398102
  -exchange      EXHF   =         0.00000000
  -V(xc)+E(xc)   XCENC  =      1204.05222003
  PAW double counting   =     63067.95020977   -62750.79942194
  entropy T*S    EENTRO =        -0.00000000
  eigenvalues    EBANDS =     -2209.07046675
  atomic energy  EATOM  =     23226.84744063
  Solvation  Ediel_sol  =         0.00000000
  ---------------------------------------------------
  free energy    TOTEN  =      -568.48459994 eV

  energy without entropy =     -568.48459994  energy(sigma->0) =     -568.48459994


--------------------------------------------------------------------------------------------------------




--------------------------------------- Iteration      1(  13)  ---------------------------------------


    POTLOK:  cpu time      0.0109: real time      0.0112
    SETDIJ:  cpu time      0.0014: real time      0.0014
     EDDAV:  cpu time      3.2645: real time      3.2821
       DOS:  cpu time      0.0010: real time      0.0010
    CHARGE:  cpu time      0.0591: real time      0.0594
    MIXING:  cpu time      0.0006: real time      0.0006
    --------------------------------------------
      LOOP:  cpu time      3.3376: real time      3.3557

 eigenvalue-minimisations  :  2880
 total energy-change (2. order) :-0.1115572E-04  (-0.6675111E-04)
 number of electron     384.0000053 magnetization 
 augmentation part       28.4182124 magnetization 

 Broyden mixing:
  rms(total) = 0.23703E-01    rms(broyden)= 0.23702E-01
  rms(prec ) = 0.23901E-01
  weight for this iteration     100.00

 eigenvalues of (default mixing * dielectric matrix)
  average eigenvalue GAMMA=   2.6804
  5.7174  5.1166  4.3264  2.0194  1.1492  1.1492  0.9824  0.9824

 Free energy of the ion-electron system (eV)
  ---------------------------------------------------
  alpha Z        PSCENC =       554.92407537
  Ewald energy   TEWEN  =    -15131.20467602
  -Hartree energ DENC   =     -8532.07637139
  -exchange      EXHF   =         0.00000000
  -V(xc)+E(xc)   XCENC  =      1204.11595743
  PAW double counting   =     63350.05241439   -63032.87632683
  entropy T*S    EENTRO =        -0.00000000
  eigenvalues    EBANDS =     -2208.26712467
  atomic energy  EATOM  =     23226.84744063
  Solvation  Ediel_sol  =         0.00000000
  ---------------------------------------------------
  free energy    TOTEN  =      -568.48461109 eV

  energy without entropy =     -568.48461109  energy(sigma->0) =     -568.48461109


--------------------------------------------------------------------------------------------------------




--------------------------------------- Iteration      1(  14)  ---------------------------------------


    POTLOK:  cpu time      0.0104: real time      0.0107
    SETDIJ:  cpu time      0.0015: real time      0.0015
     EDDAV:  cpu time      3.1961: real time      3.2133
       DOS:  cpu time      0.0011: real time      0.0011
    CHARGE:  cpu time      0.0489: real time      0.0492
    MIXING:  cpu time      0.0006: real time      0.0006
    --------------------------------------------
      LOOP:  cpu time      3.2586: real time      3.2762

 eigenvalue-minimisations  :  2880
 total energy-change (2. order) :-0.5930487E-04  (-0.2412352E-04)
 number of electron     384.0000053 magnetization 
 augmentation part       28.4130421 magnetization 

 Broyden mixing:
  rms(total) = 0.31746E-02    rms(broyden)= 0.31722E-02
  rms(prec ) = 0.32463E-02
  weight for this iteration     100.00

 eigenvalues of (default mixing * dielectric matrix)
  average eigenvalue GAMMA=   2.6332
  5.7093  4.7807  4.7807  2.0990  2.0990  0.9904  0.9904  1.1244  1.1244

 Free energy of the ion-electron system (eV)
  ---------------------------------------------------
  alpha Z        PSCENC =       554.92407537
  Ewald energy   TEWEN  =    -15131.20467602
  -Hartree energ DENC   =     -8532.65476390
  -exchange      EXHF   =         0.00000000
  -V(xc)+E(xc)   XCENC  =      1204.15894665
  PAW double counting   =     63654.19336880   -63336.98993080
  entropy T*S    EENTRO =        -0.00000000
  eigenvalues    EBANDS =     -2207.75913113
  atomic energy  EATOM  =     23226.84744063
  Solvation  Ediel_sol  =         0.00000000
  ---------------------------------------------------
  free energy    TOTEN  =      -568.48467040 eV

  energy without entropy =     -568.48467040  energy(sigma->0) =     -568.48467040


--------------------------------------------------------------------------------------------------------




--------------------------------------- Iteration      1(  15)  ---------------------------------------


    POTLOK:  cpu time      0.0110: real time      0.0113
    SETDIJ:  cpu time      0.0015: real time      0.0015
     EDDAV:  cpu time      3.4340: real time      3.4502
       DOS:  cpu time      0.0010: real time      0.0010
    CHARGE:  cpu time      0.0514: real time      0.0516
    MIXING:  cpu time      0.0006: real time      0.0006
    --------------------------------------------
      LOOP:  cpu time      3.4995: real time      3.5161

 eigenvalue-minimisations  :  2976
 total energy-change (2. order) :-0.5689093E-05  (-0.1305684E-05)
 number of electron     384.0000053 magnetization 
 augmentation part       28.4118494 magnetization 

 Broyden mixing:
  rms(total) = 0.34858E-02    rms(broyden)= 0.34843E-02
  rms(prec ) = 0.35765E-02
  weight for this iteration     100.00

 eigenvalues of (default mixing * dielectric matrix)
  average eigenvalue GAMMA=   2.7235
  5.7748  5.7748  4.6888  3.5904  2.0260  1.2188  1.2188  1.0171  0.9630  0.9630

 Free energy of the ion-electron system (eV)
  ---------------------------------------------------
  alpha Z        PSCENC =       554.92407537
  Ewald energy   TEWEN  =    -15131.20467602
  -Hartree energ DENC   =     -8532.84316864
  -exchange      EXHF   =         0.00000000
  -V(xc)+E(xc)   XCENC  =      1204.17089027
  PAW double counting   =     63656.52237960   -63339.32585540
  entropy T*S    EENTRO =        -0.00000000
  eigenvalues    EBANDS =     -2207.57576191
  atomic energy  EATOM  =     23226.84744063
  Solvation  Ediel_sol  =         0.00000000
  ---------------------------------------------------
  free energy    TOTEN  =      -568.48467608 eV

  energy without entropy =     -568.48467608  energy(sigma->0) =     -568.48467608


--------------------------------------------------------------------------------------------------------




--------------------------------------- Iteration      1(  16)  ---------------------------------------


    POTLOK:  cpu time      0.0104: real time      0.0106
    SETDIJ:  cpu time      0.0013: real time      0.0013
     EDDAV:  cpu time      3.2654: real time      3.2808
       DOS:  cpu time      0.0009: real time      0.0009
    CHARGE:  cpu time      0.0494: real time      0.0497
    MIXING:  cpu time      0.0016: real time      0.0016
    --------------------------------------------
      LOOP:  cpu time      3.3290: real time      3.3449

 eigenvalue-minimisations  :  2880
 total energy-change (2. order) :-0.3711688E-05  (-0.5571450E-06)
 number of electron     384.0000053 magnetization 
 augmentation part       28.4123228 magnetization 

 Broyden mixing:
  rms(total) = 0.15012E-02    rms(broyden)= 0.14978E-02
  rms(prec ) = 0.15641E-02
  weight for this iteration     100.00

 eigenvalues of (default mixing * dielectric matrix)
  average eigenvalue GAMMA=   2.6377
  6.2669  5.3824  4.7172  3.9967  2.0179  1.5805  1.1147  1.1147  0.9944  0.9944
  0.8351

 Free energy of the ion-electron system (eV)
  ---------------------------------------------------
  alpha Z        PSCENC =       554.92407537
  Ewald energy   TEWEN  =    -15131.20467602
  -Hartree energ DENC   =     -8532.85821864
  -exchange      EXHF   =         0.00000000
  -V(xc)+E(xc)   XCENC  =      1204.16947134
  PAW double counting   =     63630.99317764   -63313.80282553
  entropy T*S    EENTRO =        -0.00000000
  eigenvalues    EBANDS =     -2207.55312458
  atomic energy  EATOM  =     23226.84744063
  Solvation  Ediel_sol  =         0.00000000
  ---------------------------------------------------
  free energy    TOTEN  =      -568.48467980 eV

  energy without entropy =     -568.48467980  energy(sigma->0) =     -568.48467980


--------------------------------------------------------------------------------------------------------




--------------------------------------- Iteration      1(  17)  ---------------------------------------


    POTLOK:  cpu time      0.0109: real time      0.0112
    SETDIJ:  cpu time      0.0015: real time      0.0015
     EDDAV:  cpu time      3.5580: real time      3.5765
       DOS:  cpu time      0.0008: real time      0.0008
    --------------------------------------------
      LOOP:  cpu time      3.5713: real time      3.5899

 eigenvalue-minimisations  :  3072
 total energy-change (2. order) : 0.4558169E-06  (-0.4483347E-06)
 number of electron     384.0000053 magnetization 
 augmentation part       28.4123228 magnetization 

 Free energy of the ion-electron system (eV)
  ---------------------------------------------------
  alpha Z        PSCENC =       554.92407537
  Ewald energy   TEWEN  =    -15131.20467602
  -Hartree energ DENC   =     -8532.79731700
  -exchange      EXHF   =         0.00000000
  -V(xc)+E(xc)   XCENC  =      1204.16498202
  PAW double counting   =     63617.32736247   -63300.13725409
  entropy T*S    EENTRO =        -0.00000000
  eigenvalues    EBANDS =     -2207.60929272
  atomic energy  EATOM  =     23226.84744063
  Solvation  Ediel_sol  =         0.00000000
  ---------------------------------------------------
  free energy    TOTEN  =      -568.48467934 eV

  energy without entropy =     -568.48467934  energy(sigma->0) =     -568.48467934


--------------------------------------------------------------------------------------------------------




 average (electrostatic) potential at core
  the test charge radii are     0.9892  0.7215
  (the norm of the test charge is              1.0000)
       1 -86.4823       2 -86.4823       3 -86.4823       4 -86.4823       5 -86.4823
       6 -86.4823       7 -86.4823       8 -86.4823       9 -86.4823      10 -86.4823
      11 -86.4823      12 -86.4823      13 -86.4823      14 -86.4823      15 -86.4823
      16 -86.4823      17 -86.4823      18 -86.4823      19 -86.4823      20 -86.4823
      21 -86.4823      22 -86.4823      23 -86.4823      24 -86.4823      25 -72.4168
      26 -72.4168      27 -72.4168      28 -72.4168      29 -72.4168      30 -72.4168
      31 -72.4168      32 -72.4168      33 -72.4168      34 -72.4168      35 -72.4168
      36 -72.4168      37 -72.4168      38 -72.4168      39 -72.4168      40 -72.4168
      41 -72.4168      42 -72.4168      43 -72.4168      44 -72.4168      45 -72.4168
      46 -72.4168      47 -72.4168      48 -72.4168      49 -72.4168      50 -72.4168
      51 -72.4168      52 -72.4168      53 -72.4168      54 -72.4168      55 -72.4168
      56 -72.4168      57 -72.4168      58 -72.4168      59 -72.4168      60 -72.4168
      61 -72.4168      62 -72.4168      63 -72.4168      64 -72.4168      65 -72.4168
      66 -72.4168      67 -72.4168      68 -72.4168      69 -72.4168      70 -72.4168
      71 -72.4168      72 -72.4168
 
 
 
 E-fermi :   1.2783     XC(G=0):  -9.1927     alpha+bet :-10.2868

 Fermi energy:         1.2782537795

 k-point     1 :       0.0000    0.0000    0.0000
  band No.  band energies     occupation 
      1     -18.3453      2.00000
      2     -17.8838      2.00000
      3     -17.8838      2.00000
      4     -17.8577      2.00000
      5     -17.8577      2.00000
      6     -17.8577      2.00000
      7     -17.7901      2.00000
      8     -17.7901      2.00000
      9     -17.7901      2.00000
     10     -17.3830      2.00000
     11     -17.3830      2.00000
     12     -17.3830      2.00000
     13     -17.3500      2.00000
     14     -17.3500      2.00000
     15     -17.3500      2.00000
     16     -16.9054      2.00000
     17     -16.9054      2.00000
     18     -16.9054      2.00000
     19     -16.8337      2.00000
     20     -16.8337      2.00000
     21     -16.7775      2.00000
     22     -16.7775      2.00000
     23     -16.7775      2.00000
     24     -16.2761      2.00000
     25     -16.2761      2.00000
     26     -16.2761      2.00000
     27     -16.2558      2.00000
     28     -16.2558      2.00000
     29     -16.2558      2.00000
     30     -16.2164      2.00000
     31     -16.2164      2.00000
     32     -16.2164      2.00000
     33     -16.2081      2.00000
     34     -16.2047      2.00000
     35     -16.2047      2.00000
     36     -16.2047      2.00000
     37     -16.1838      2.00000
     38     -16.1838      2.00000
     39     -16.1838      2.00000
     40     -16.1833      2.00000
     41     -16.1774      2.00000
     42     -16.1774      2.00000
     43     -16.1747      2.00000
     44     -16.1747      2.00000
     45     -16.1747      2.00000
     46     -16.1530      2.00000
     47     -16.1530      2.00000
     48     -16.1297      2.00000
     49      -8.2484      2.00000
     50      -7.3075      2.00000
     51      -7.3075      2.00000
     52      -7.3075      2.00000
     53      -7.1663      2.00000
     54      -7.1663      2.00000
     55      -7.1574      2.00000
     56      -7.1574      2.00000
     57      -7.1574      2.00000
     58      -6.2996      2.00000
     59      -6.2996      2.00000
     60      -6.2996      2.00000
     61      -6.1855      2.00000
     62      -6.1855      2.00000
     63      -6.1855      2.00000
     64      -5.3160      2.00000
     65      -5.3160      2.00000
     66      -5.3160      2.00000
     67      -5.1894      2.00000
     68      -5.1894      2.00000
     69      -4.8119      2.00000
     70      -4.8119      2.00000
     71      -4.8119      2.00000
     72      -4.5091      2.00000
     73      -4.5091      2.00000
     74      -4.3583      2.00000
     75      -4.3480      2.00000
     76      -4.3480      2.00000
     77      -4.3480      2.00000
     78      -4.3349      2.00000
     79      -4.3349      2.00000
     80      -4.3349      2.00000
     81      -4.3190      2.00000
     82      -4.2312      2.00000
     83      -4.2312      2.00000
     84      -4.2312      2.00000
     85      -4.1487      2.00000
     86      -4.1487      2.00000
     87      -3.9694      2.00000
     88      -3.9694      2.00000
     89      -3.9694      2.00000
     90      -3.8620      2.00000
     91      -3.8620      2.00000
     92      -3.8620      2.00000
     93      -3.5796      2.00000
     94      -3.5378      2.00000
     95      -3.5378      2.00000
     96      -3.5378      2.00000
     97      -2.1202      2.00000
     98      -2.1202      2.00000
     99      -2.1202      2.00000
    100      -2.1062      2.00000
    101      -2.1062      2.00000
    102      -2.1062      2.00000
    103      -2.0019      2.00000
    104      -2.0019      2.00000
    105      -2.0019      2.00000
    106      -1.8604      2.00000
    107      -1.8604      2.00000
    108      -1.8297      2.00000
    109      -1.8297      2.00000
    110      -1.8297      2.00000
    111      -1.6389      2.00000
    112      -1.6389      2.00000
    113      -1.6033      2.00000
    114      -1.6033      2.00000
    115      -1.6033      2.00000
    116      -1.6032      2.00000
    117      -1.5676      2.00000
    118      -1.3721      2.00000
    119      -1.3486      2.00000
    120      -1.3486      2.00000
    121      -1.3486      2.00000
    122      -1.2055      2.00000
    123      -1.2055      2.00000
    124      -1.2055      2.00000
    125      -1.0407      2.00000
    126      -1.0407      2.00000
    127      -1.0407      2.00000
    128      -1.0084      2.00000
    129      -1.0084      2.00000
    130      -1.0083      2.00000
    131      -0.9972      2.00000
    132      -0.9972      2.00000
    133      -0.9972      2.00000
    134      -0.9231      2.00000
    135      -0.9231      2.00000
    136      -0.7443      2.00000
    137      -0.7443      2.00000
    138      -0.6751      2.00000
    139      -0.6751      2.00000
    140      -0.6751      2.00000
    141      -0.5766      2.00000
    142      -0.5766      2.00000
    143      -0.5766      2.00000
    144      -0.4804      2.00000
    145      -0.4804      2.00000
    146      -0.4804      2.00000
    147      -0.4528      2.00000
    148      -0.4123      2.00000
    149      -0.4123      2.00000
    150      -0.3859      2.00000
    151      -0.1972      2.00000
    152      -0.1972      2.00000
    153      -0.1972      2.00000
    154      -0.1264      2.00000
    155      -0.0743      2.00000
    156      -0.0743      2.00000
    157      -0.0743      2.00000
    158      -0.0314      2.00000
    159      -0.0314      2.00000
    160      -0.0314      2.00000
    161       0.0454      2.00000
    162       0.0454      2.00000
    163       0.0454      2.00000
    164       0.0665      2.00000
    165       0.0666      2.00000
    166       0.1887      2.00000
    167       0.1887      2.00000
    168       0.1887      2.00000
    169       0.2258      2.00000
    170       0.2258      2.00000
    171       0.2258      2.00000
    172       0.2952      2.00000
    173       0.2952      2.00000
    174       0.2952      2.00000
    175       0.3748      2.00000
    176       0.4693      2.00000
    177       0.4693      2.00000
    178       0.4693      2.00000
    179       0.7596      2.00000
    180       0.7596      2.00000
    181       0.7947      2.00000
    182       0.7947      2.00000
    183       0.7947      2.00000
    184       0.8462      2.00000
    185       0.8462      2.00000
    186       0.8818      2.00000
    187       0.8818      2.00000
    188       0.8818      2.00000
    189       0.9762      2.00000
    190       1.0275      2.00000
    191       1.0275      2.00000
    192       1.0275      2.00000
    193       7.0079      0.00000
    194       8.9581      0.00000
    195       8.9581      0.00000
    196       9.2679      0.00000
    197       9.2679      0.00000
    198       9.2679      0.00000
    199       9.8831      0.00000
    200       9.8831      0.00000
    201       9.8831      0.00000
    202      10.0197      0.00000
    203      10.0197      0.00000
    204      10.0197      0.00000
    205      10.0892      0.00000
    206      10.3288      0.00000
    207      10.3288      0.00000
    208      10.3668      0.00000
    209      10.3668      0.00000
    210      10.3668      0.00000
    211      10.7021      0.00000
    212      10.7021      0.00000
    213      10.7021      0.00000
    214      10.7033      0.00000
    215      10.7033      0.00000
    216      10.7034      0.00000
    217      10.7267      0.00000
    218      10.7267      0.00000
    219      10.7427      0.00000
    220      10.7427      0.00000
    221      10.7427      0.00000
    222      10.7991      0.00000
    223      10.7991      0.00000
    224      10.8762      0.00000
    225      10.8762      0.00000
    226      10.8763      0.00000
    227      11.2421      0.00000
    228      11.2421      0.00000
    229      11.2421      0.00000
    230      11.4863      0.00000
    231      11.4863      0.00000
    232      11.4863      0.00000
    233      11.5867      0.00000
    234      11.5867      0.00000
    235      11.5867      0.00000
    236      11.6440      0.00000
    237      11.6440      0.00000
    238      11.6440      0.00000
    239      11.7088      0.00000
    240      11.7103      0.00000
    241      11.7104      0.00000
    242      11.7104      0.00000
    243      11.9917      0.00000
    244      12.1999      0.00000
    245      12.1999      0.00000
    246      12.1999      0.00000
    247      12.2785      0.00000
    248      12.2785      0.00000
    249      12.2785      0.00000
    250      12.3642      0.00000
    251      12.3642      0.00000
    252      12.3642      0.00000
    253      12.4784      0.00000
    254      12.4784      0.00000
    255      12.4784      0.00000
    256      12.6422      0.00000
    257      12.6422      0.00000
    258      12.6861      0.00000
    259      12.7547      0.00000
    260      12.9435      0.00000
    261      12.9435      0.00000
    262      12.9435      0.00000
    263      12.9621      0.00000
    264      12.9621      0.00000
    265      12.9621      0.00000
    266      13.0016      0.00000
    267      13.0016      0.00000
    268      13.0016      0.00000
[...]
   0.116E+01 0.201E+01 0.893E-05   -.103E+01 -.178E+01 -.654E-11   -.129E+00 -.224E+00 0.483E-19   0.199E-05 0.344E-05 0.360E-07
   0.116E+01 0.201E+01 0.893E-05   -.103E+01 -.178E+01 -.651E-11   -.129E+00 -.224E+00 0.120E-18   0.199E-05 0.344E-05 0.360E-07
   0.116E+01 0.201E+01 0.893E-05   -.103E+01 -.178E+01 -.652E-11   -.129E+00 -.224E+00 -.869E-19   0.199E-05 0.344E-05 0.360E-07
   0.116E+01 0.201E+01 0.893E-05   -.103E+01 -.178E+01 -.654E-11   -.129E+00 -.224E+00 -.333E-19   0.199E-05 0.344E-05 0.360E-07
   0.116E+01 0.201E+01 0.893E-05   -.103E+01 -.178E+01 -.653E-11   -.129E+00 -.224E+00 0.822E-19   0.199E-05 0.344E-05 0.360E-07
   0.116E+01 -.201E+01 -.892E-05   -.103E+01 0.178E+01 0.654E-11   -.129E+00 0.224E+00 0.185E-18   0.199E-05 -.344E-05 -.361E-07
   0.116E+01 -.201E+01 -.892E-05   -.103E+01 0.178E+01 0.651E-11   -.129E+00 0.224E+00 0.155E-18   0.199E-05 -.344E-05 -.361E-07
   0.116E+01 -.201E+01 -.892E-05   -.103E+01 0.178E+01 0.655E-11   -.129E+00 0.224E+00 0.128E-18   0.199E-05 -.344E-05 -.360E-07
   0.116E+01 -.201E+01 -.892E-05   -.103E+01 0.178E+01 0.654E-11   -.129E+00 0.224E+00 -.557E-19   0.199E-05 -.344E-05 -.361E-07
   0.116E+01 -.201E+01 -.892E-05   -.103E+01 0.178E+01 0.652E-11   -.129E+00 0.224E+00 0.750E-19   0.199E-05 -.344E-05 -.361E-07
   0.116E+01 -.201E+01 -.892E-05   -.103E+01 0.178E+01 0.652E-11   -.129E+00 0.224E+00 0.262E-18   0.199E-05 -.344E-05 -.361E-07
   0.116E+01 -.201E+01 -.892E-05   -.103E+01 0.178E+01 0.657E-11   -.129E+00 0.224E+00 0.232E-18   0.199E-05 -.344E-05 -.361E-07
   0.116E+01 -.201E+01 -.892E-05   -.103E+01 0.178E+01 0.653E-11   -.129E+00 0.224E+00 0.129E-18   0.199E-05 -.344E-05 -.361E-07
   0.425E+02 0.574E+02 0.323E+02   -.510E+02 -.736E+02 -.428E+02   0.838E+01 0.161E+02 0.104E+02   -.234E-04 0.300E-03 0.199E-03
   0.425E+02 0.574E+02 0.323E+02   -.510E+02 -.736E+02 -.428E+02   0.838E+01 0.161E+02 0.104E+02   -.234E-04 0.300E-03 0.199E-03
   0.425E+02 0.574E+02 0.323E+02   -.510E+02 -.736E+02 -.428E+02   0.838E+01 0.161E+02 0.104E+02   -.234E-04 0.300E-03 0.199E-03
   0.425E+02 0.574E+02 0.323E+02   -.510E+02 -.736E+02 -.428E+02   0.838E+01 0.161E+02 0.104E+02   -.234E-04 0.300E-03 0.199E-03
   0.425E+02 0.574E+02 0.323E+02   -.510E+02 -.736E+02 -.428E+02   0.838E+01 0.161E+02 0.104E+02   -.234E-04 0.300E-03 0.199E-03
   0.425E+02 0.574E+02 0.323E+02   -.510E+02 -.736E+02 -.428E+02   0.838E+01 0.161E+02 0.104E+02   -.234E-04 0.300E-03 0.199E-03
   0.425E+02 0.574E+02 0.323E+02   -.510E+02 -.736E+02 -.428E+02   0.838E+01 0.161E+02 0.104E+02   -.234E-04 0.300E-03 0.199E-03
   0.425E+02 0.574E+02 0.323E+02   -.510E+02 -.736E+02 -.428E+02   0.838E+01 0.161E+02 0.104E+02   -.234E-04 0.300E-03 0.199E-03
   -.710E+02 0.813E+01 0.323E+02   0.893E+02 -.739E+01 -.428E+02   -.181E+02 -.767E+00 0.104E+02   -.248E-03 -.170E-03 0.199E-03
   -.710E+02 0.813E+01 0.323E+02   0.893E+02 -.739E+01 -.428E+02   -.181E+02 -.767E+00 0.104E+02   -.248E-03 -.170E-03 0.199E-03
   -.710E+02 0.813E+01 0.323E+02   0.893E+02 -.739E+01 -.428E+02   -.181E+02 -.767E+00 0.104E+02   -.248E-03 -.170E-03 0.199E-03
   -.710E+02 0.813E+01 0.323E+02   0.893E+02 -.739E+01 -.428E+02   -.181E+02 -.767E+00 0.104E+02   -.248E-03 -.170E-03 0.199E-03
   -.710E+02 0.813E+01 0.323E+02   0.893E+02 -.739E+01 -.428E+02   -.181E+02 -.767E+00 0.104E+02   -.248E-03 -.170E-03 0.199E-03
   -.710E+02 0.813E+01 0.323E+02   0.893E+02 -.739E+01 -.428E+02   -.181E+02 -.767E+00 0.104E+02   -.248E-03 -.170E-03 0.199E-03
   -.710E+02 0.813E+01 0.323E+02   0.893E+02 -.739E+01 -.428E+02   -.181E+02 -.767E+00 0.104E+02   -.248E-03 -.170E-03 0.199E-03
   -.710E+02 0.813E+01 0.323E+02   0.893E+02 -.739E+01 -.428E+02   -.181E+02 -.767E+00 0.104E+02   -.248E-03 -.170E-03 0.199E-03
   0.284E+02 -.655E+02 0.323E+02   -.383E+02 0.810E+02 -.428E+02   0.971E+01 -.153E+02 0.104E+02   0.271E-03 -.130E-03 0.199E-03
   0.284E+02 -.655E+02 0.323E+02   -.383E+02 0.810E+02 -.428E+02   0.971E+01 -.153E+02 0.104E+02   0.271E-03 -.130E-03 0.199E-03
   0.284E+02 -.655E+02 0.323E+02   -.383E+02 0.810E+02 -.428E+02   0.971E+01 -.153E+02 0.104E+02   0.271E-03 -.130E-03 0.199E-03
   0.284E+02 -.655E+02 0.323E+02   -.383E+02 0.810E+02 -.428E+02   0.971E+01 -.153E+02 0.104E+02   0.271E-03 -.130E-03 0.199E-03
   0.284E+02 -.655E+02 0.323E+02   -.383E+02 0.810E+02 -.428E+02   0.971E+01 -.153E+02 0.104E+02   0.271E-03 -.130E-03 0.199E-03
   0.284E+02 -.655E+02 0.323E+02   -.383E+02 0.810E+02 -.428E+02   0.971E+01 -.153E+02 0.104E+02   0.271E-03 -.130E-03 0.199E-03
   0.284E+02 -.655E+02 0.323E+02   -.383E+02 0.810E+02 -.428E+02   0.971E+01 -.153E+02 0.104E+02   0.271E-03 -.130E-03 0.199E-03
   0.284E+02 -.655E+02 0.323E+02   -.383E+02 0.810E+02 -.428E+02   0.971E+01 -.153E+02 0.104E+02   0.271E-03 -.130E-03 0.199E-03
   0.425E+02 -.574E+02 -.323E+02   -.510E+02 0.736E+02 0.428E+02   0.838E+01 -.161E+02 -.104E+02   -.234E-04 -.300E-03 -.199E-03
   0.425E+02 -.574E+02 -.323E+02   -.510E+02 0.736E+02 0.428E+02   0.838E+01 -.161E+02 -.104E+02   -.234E-04 -.300E-03 -.199E-03
   0.425E+02 -.574E+02 -.323E+02   -.510E+02 0.736E+02 0.428E+02   0.838E+01 -.161E+02 -.104E+02   -.234E-04 -.300E-03 -.199E-03
   0.425E+02 -.574E+02 -.323E+02   -.510E+02 0.736E+02 0.428E+02   0.838E+01 -.161E+02 -.104E+02   -.234E-04 -.300E-03 -.199E-03
   0.425E+02 -.574E+02 -.323E+02   -.510E+02 0.736E+02 0.428E+02   0.838E+01 -.161E+02 -.104E+02   -.234E-04 -.300E-03 -.199E-03
   0.425E+02 -.574E+02 -.323E+02   -.510E+02 0.736E+02 0.428E+02   0.838E+01 -.161E+02 -.104E+02   -.234E-04 -.300E-03 -.199E-03
   0.425E+02 -.574E+02 -.323E+02   -.510E+02 0.736E+02 0.428E+02   0.838E+01 -.161E+02 -.104E+02   -.234E-04 -.300E-03 -.199E-03
   0.425E+02 -.574E+02 -.323E+02   -.510E+02 0.736E+02 0.428E+02   0.838E+01 -.161E+02 -.104E+02   -.234E-04 -.300E-03 -.199E-03
   0.284E+02 0.655E+02 -.323E+02   -.383E+02 -.810E+02 0.428E+02   0.971E+01 0.153E+02 -.104E+02   0.271E-03 0.130E-03 -.199E-03
   0.284E+02 0.655E+02 -.323E+02   -.383E+02 -.810E+02 0.428E+02   0.971E+01 0.153E+02 -.104E+02   0.271E-03 0.130E-03 -.199E-03
   0.284E+02 0.655E+02 -.323E+02   -.383E+02 -.810E+02 0.428E+02   0.971E+01 0.153E+02 -.104E+02   0.271E-03 0.130E-03 -.199E-03
   0.284E+02 0.655E+02 -.323E+02   -.383E+02 -.810E+02 0.428E+02   0.971E+01 0.153E+02 -.104E+02   0.271E-03 0.130E-03 -.199E-03
   0.284E+02 0.655E+02 -.323E+02   -.383E+02 -.810E+02 0.428E+02   0.971E+01 0.153E+02 -.104E+02   0.271E-03 0.130E-03 -.199E-03
   0.284E+02 0.655E+02 -.323E+02   -.383E+02 -.810E+02 0.428E+02   0.971E+01 0.153E+02 -.104E+02   0.271E-03 0.130E-03 -.199E-03
   0.284E+02 0.655E+02 -.323E+02   -.383E+02 -.810E+02 0.428E+02   0.971E+01 0.153E+02 -.104E+02   0.271E-03 0.130E-03 -.199E-03
   0.284E+02 0.655E+02 -.323E+02   -.383E+02 -.810E+02 0.428E+02   0.971E+01 0.153E+02 -.104E+02   0.271E-03 0.130E-03 -.199E-03
   -.710E+02 -.813E+01 -.323E+02   0.893E+02 0.739E+01 0.428E+02   -.181E+02 0.767E+00 -.104E+02   -.248E-03 0.170E-03 -.199E-03
   -.710E+02 -.813E+01 -.323E+02   0.893E+02 0.739E+01 0.428E+02   -.181E+02 0.767E+00 -.104E+02   -.248E-03 0.170E-03 -.199E-03
   -.710E+02 -.813E+01 -.323E+02   0.893E+02 0.739E+01 0.428E+02   -.181E+02 0.767E+00 -.104E+02   -.248E-03 0.170E-03 -.199E-03
   -.710E+02 -.813E+01 -.323E+02   0.893E+02 0.739E+01 0.428E+02   -.181E+02 0.767E+00 -.104E+02   -.248E-03 0.170E-03 -.199E-03
   -.710E+02 -.813E+01 -.323E+02   0.893E+02 0.739E+01 0.428E+02   -.181E+02 0.767E+00 -.104E+02   -.248E-03 0.170E-03 -.199E-03
   -.710E+02 -.813E+01 -.323E+02   0.893E+02 0.739E+01 0.428E+02   -.181E+02 0.767E+00 -.104E+02   -.248E-03 0.170E-03 -.199E-03
   -.710E+02 -.813E+01 -.323E+02   0.893E+02 0.739E+01 0.428E+02   -.181E+02 0.767E+00 -.104E+02   -.248E-03 0.170E-03 -.199E-03
   -.710E+02 -.813E+01 -.323E+02   0.893E+02 0.739E+01 0.428E+02   -.181E+02 0.767E+00 -.104E+02   -.248E-03 0.170E-03 -.199E-03
 -----------------------------------------------------------------------------------------------
   0.400E-03 -.136E-04 0.836E-05   -.426E-13 0.247E-12 -.263E-12   0.426E-13 -.411E-13 0.924E-13   -.219E-06 0.518E-10 -.205E-09
 
 
 POSITION                                       TOTAL-FORCE (eV/Angst)
 -----------------------------------------------------------------------------------
      2.61028     -0.00000      0.00000        -0.005611      0.000000      0.000000
      2.61028     -0.00000      5.43130        -0.005611      0.000000      0.000000
      5.06777      4.25649      0.00000        -0.005611      0.000000      0.000000
      5.06777      4.25649      5.43130        -0.005611      0.000000      0.000000
      5.06777     -4.25649      0.00000        -0.005611      0.000000      0.000000
      5.06777     -4.25649      5.43130        -0.005611      0.000000      0.000000
      7.52525      0.00000      0.00000        -0.005611      0.000000      0.000000
      7.52525      0.00000      5.43130        -0.005611      0.000000      0.000000
      1.15234      1.99591      3.62087         0.002805      0.004859      0.000000
      1.15234      1.99591      9.05217         0.002805      0.004859      0.000000
      3.60982      6.25240      3.62087         0.002805      0.004859      0.000000
      3.60982      6.25240      9.05217         0.002805      0.004859      0.000000
      3.60982     -2.26057      3.62087         0.002805      0.004859      0.000000
      3.60982     -2.26057      9.05217         0.002805      0.004859      0.000000
      6.06731      1.99591      3.62087         0.002805      0.004859      0.000000
      6.06731      1.99591      9.05217         0.002805      0.004859      0.000000
      1.15234     -1.99591      1.81043         0.002805     -0.004859      0.000000
      1.15234     -1.99591      7.24173         0.002805     -0.004859      0.000000
      3.60982      2.26057      1.81043         0.002805     -0.004859      0.000000
      3.60982      2.26057      7.24173         0.002805     -0.004859      0.000000
      3.60982     -6.25240      1.81043         0.002805     -0.004859      0.000000
      3.60982     -6.25240      7.24173         0.002805     -0.004859      0.000000
      6.06731     -1.99591      1.81043         0.002805     -0.004859      0.000000
      6.06731     -1.99591      7.24173         0.002805     -0.004859      0.000000
      1.67752      0.61366      4.26298        -0.136635     -0.196925     -0.134074
      1.67752      0.61366      9.69428        -0.136635     -0.196925     -0.134074
      4.13500      4.87015      4.26298        -0.136635     -0.196925     -0.134074
      4.13500      4.87015      9.69428        -0.136635     -0.196925     -0.134074
      4.13500     -3.64282      4.26298        -0.136635     -0.196925     -0.134074
      4.13500     -3.64282      9.69428        -0.136635     -0.196925     -0.134074
      6.59249      0.61366      4.26298        -0.136635     -0.196925     -0.134074
      6.59249      0.61366      9.69428        -0.136635     -0.196925     -0.134074
      3.54476      1.14594      0.64211         0.238860     -0.019867     -0.134074
      3.54476      1.14594      6.07341         0.238860     -0.019867     -0.134074
      6.00224      5.40243      0.64211         0.238860     -0.019867     -0.134074
      6.00224      5.40243      6.07341         0.238860     -0.019867     -0.134074
      6.00224     -3.11054      0.64211         0.238860     -0.019867     -0.134074
      6.00224     -3.11054      6.07341         0.238860     -0.019867     -0.134074
      8.45972      1.14594      0.64211         0.238860     -0.019867     -0.134074
      8.45972      1.14594      6.07341         0.238860     -0.019867     -0.134074
      2.15017      2.49688      2.45255        -0.102225      0.216792     -0.134074
      2.15017      2.49688      7.88385        -0.102225      0.216792     -0.134074
      4.60765      6.75336      2.45255        -0.102225      0.216792     -0.134074
      4.60765      6.75336      7.88385        -0.102225      0.216792     -0.134074
      4.60765     -1.75961      2.45255        -0.102225      0.216792     -0.134074
      4.60765     -1.75961      7.88385        -0.102225      0.216792     -0.134074
      7.06514      2.49688      2.45255        -0.102225      0.216792     -0.134074
      7.06514      2.49688      7.88385        -0.102225      0.216792     -0.134074
      1.67752     -0.61366      1.16832        -0.136635      0.196925      0.134074
      1.67752     -0.61366      6.59962        -0.136635      0.196925      0.134074
      4.13500      3.64282      1.16832        -0.136635      0.196925      0.134074
      4.13500      3.64282      6.59962        -0.136635      0.196925      0.134074
      4.13500     -4.87015      1.16832        -0.136635      0.196925      0.134074
      4.13500     -4.87015      6.59962        -0.136635      0.196925      0.134074
      6.59249     -0.61366      1.16832        -0.136635      0.196925      0.134074
      6.59249     -0.61366      6.59962        -0.136635      0.196925      0.134074
      2.15017     -2.49688      2.97876        -0.102225     -0.216792      0.134074
      2.15017     -2.49688      8.41006        -0.102225     -0.216792      0.134074
      4.60765      1.75961      2.97876        -0.102225     -0.216792      0.134074
      4.60765      1.75961      8.41006        -0.102225     -0.216792      0.134074
      4.60765     -6.75336      2.97876        -0.102225     -0.216792      0.134074
      4.60765     -6.75336      8.41006        -0.102225     -0.216792      0.134074
      7.06514     -2.49688      2.97876        -0.102225     -0.216792      0.134074
      7.06514     -2.49688      8.41006        -0.102225     -0.216792      0.134074
      3.54476     -1.14594      4.78919         0.238860      0.019867      0.134074
      3.54476     -1.14594     10.22049         0.238860      0.019867      0.134074
      6.00224      3.11054      4.78919         0.238860      0.019867      0.134074
      6.00224      3.11054     10.22049         0.238860      0.019867      0.134074
      6.00224     -5.40243      4.78919         0.238860      0.019867      0.134074
      6.00224     -5.40243     10.22049         0.238860      0.019867      0.134074
      8.45972     -1.14594      4.78919         0.238860      0.019867      0.134074
      8.45972     -1.14594     10.22049         0.238860      0.019867      0.134074
 -----------------------------------------------------------------------------------
    total drift:                                0.000400     -0.000014      0.000008


--------------------------------------------------------------------------------------------------------



  FREE ENERGIE OF THE ION-ELECTRON SYSTEM (eV)
  ---------------------------------------------------
  free  energy   TOTEN  =      -568.48467934 eV

  energy  without entropy=     -568.48467934  energy(sigma->0) =     -568.48467934
 


--------------------------------------------------------------------------------------------------------


    POTLOK:  cpu time      0.0131: real time      0.0131


--------------------------------------------------------------------------------------------------------


 stress matrix after NEB project (eV)
     31.86734      0.00000      0.00000
      0.00000     31.86734     -0.00000
      0.00000      0.00000     30.82418
  FORCES: max atom, RMS     0.274635    0.224262
  FORCE total and by dimension    1.902929    0.238860
  Stress total and by dimension   54.600230   31.867341
 writing wavefunctions
     LOOP+:  cpu time     61.1526: real time     61.6218
    4ORBIT:  cpu time      0.0000: real time      0.0000



 total charge

# of ion       s       p       d       tot
------------------------------------------
    1        0.647   1.007   0.000   1.653
    2        0.647   1.007   0.000   1.653
    3        0.647   1.007   0.000   1.653
    4        0.647   1.007   0.000   1.653
    5        0.647   1.007   0.000   1.653
    6        0.647   1.007   0.000   1.653
    7        0.647   1.007   0.000   1.653
    8        0.647   1.007   0.000   1.653
    9        0.647   1.007   0.000   1.653
   10        0.647   1.007   0.000   1.653
   11        0.647   1.007   0.000   1.653
   12        0.647   1.007   0.000   1.653
   13        0.647   1.007   0.000   1.653
   14        0.647   1.007   0.000   1.653
   15        0.647   1.007   0.000   1.653
   16        0.647   1.007   0.000   1.653
   17        0.647   1.007   0.000   1.653
   18        0.647   1.007   0.000   1.653
   19        0.647   1.007   0.000   1.653
   20        0.647   1.007   0.000   1.653
   21        0.647   1.007   0.000   1.653
   22        0.647   1.007   0.000   1.653
   23        0.647   1.007   0.000   1.653
   24        0.647   1.007   0.000   1.653
   25        1.548   3.705   0.000   5.253
   26        1.548   3.705   0.000   5.253
   27        1.548   3.705   0.000   5.253
   28        1.548   3.705   0.000   5.253
   29        1.548   3.705   0.000   5.253
   30        1.548   3.705   0.000   5.253
   31        1.548   3.705   0.000   5.253
   32        1.548   3.705   0.000   5.253
   33        1.548   3.705   0.000   5.253
   34        1.548   3.705   0.000   5.253
   35        1.548   3.705   0.000   5.253
   36        1.548   3.705   0.000   5.253
   37        1.548   3.705   0.000   5.253
   38        1.548   3.705   0.000   5.253
   39        1.548   3.705   0.000   5.253
   40        1.548   3.705   0.000   5.253
   41        1.548   3.705   0.000   5.253
   42        1.548   3.705   0.000   5.253
   43        1.548   3.705   0.000   5.253
   44        1.548   3.705   0.000   5.253
   45        1.548   3.705   0.000   5.253
   46        1.548   3.705   0.000   5.253
   47        1.548   3.705   0.000   5.253
   48        1.548   3.705   0.000   5.253
   49        1.548   3.705   0.000   5.253
   50        1.548   3.705   0.000   5.253
   51        1.548   3.705   0.000   5.253
   52        1.548   3.705   0.000   5.253
   53        1.548   3.705   0.000   5.253
   54        1.548   3.705   0.000   5.253
   55        1.548   3.705   0.000   5.253
   56        1.548   3.705   0.000   5.253
   57        1.548   3.705   0.000   5.253
   58        1.548   3.705   0.000   5.253
   59        1.548   3.705   0.000   5.253
   60        1.548   3.705   0.000   5.253
   61        1.548   3.705   0.000   5.253
   62        1.548   3.705   0.000   5.253
   63        1.548   3.705   0.000   5.253
   64        1.548   3.705   0.000   5.253
   65        1.548   3.705   0.000   5.253
   66        1.548   3.705   0.000   5.253
   67        1.548   3.705   0.000   5.253
   68        1.548   3.705   0.000   5.253
   69        1.548   3.705   0.000   5.253
   70        1.548   3.705   0.000   5.253
   71        1.548   3.705   0.000   5.253
   72        1.548   3.705   0.000   5.253
--------------------------------------------------
tot         89.838 201.987   0.000 291.826
 

 total amount of memory used by VASP MPI-rank0    91464. kBytes
=======================================================================

   base      :      30000. kBytes
   nonl-proj :      44568. kBytes
   fftplans  :       1721. kBytes
   grid      :       9701. kBytes
   one-center:        221. kBytes
   wavefun   :       5253. kBytes
 
  
  
 General timing and accounting informations for this job:
 ========================================================
  
                  Total CPU time used (sec):       70.065
                            User time (sec):       67.201
                          System time (sec):        2.864
                         Elapsed time (sec):       72.711
  
                   Maximum memory used (kb):      333672.
                   Average memory used (kb):          N/A
  
                          Minor page faults:        91766
                          Major page faults:          368
                 Voluntary context switches:         4359
