<?xml version="1.0" encoding="ISO-8859-1"?>
<modeling>
 <generator>
  <i name="program" type="string">vasp </i>
  <i name="version" type="string">5.4.4.18Apr17-6-g9f103f2a35  </i>
  <i name="subversion" type="string">(build Jun 19 2019 10:34:07) complex            parallel </i>
  <i name="platform" type="string">LB-5.4 </i>
  <i name="date" type="string">2023 05 15 </i>
  <i name="time" type="string">18:34:39 </i>
 </generator>
 <incar>
  <i type="string" name="SYSTEM"> Si</i>
  <i type="string" name="PREC">normal</i>
  <i type="string" name="ALGO"> Normal</i>
  <i type="int" name="ISPIN">     1</i>
  <i name="AMIX">      0.20000000</i>
  <i type="int" name="NELM">   200</i>
  <i type="int" name="IBRION">     2</i>
  <i name="EDIFF">      0.00000100</i>
  <i name="EDIFFG">     -0.05000000</i>
  <i type="int" name="NSW">     0</i>
  <i type="int" name="ISIF">     2</i>
  <i type="int" name="ISYM">     2</i>
  <i name="ENCUT">    550.00000000</i>
  <i name="NELECT">    211.00000000</i>
  <i type="logical" name="LREAL"> F  </i>
  <i type="int" name="ISMEAR">     0</i>
  <i name="SIGMA">      0.05000000</i>
  <i type="logical" name="LWAVE"> T  </i>
  <i type="logical" name="LCHARG"> T  </i>
  <i type="int" name="LORBIT">    10</i>
  <v type="int" name="KPOINT_BSE">    -1     0     0     0</v>
  <i type="int" name="NELM">   200</i>
 </incar>
 <structure name="primitive_cell" >
  <crystal>
   <varray name="basis" >
    <v>       9.97646553       0.00000000       5.75991507 </v>
    <v>       3.32548851       9.40590192       5.75991507 </v>
    <v>       0.00000000       0.00000000      11.51983014 </v>
   </varray>
   <i name="volume">   1080.99386112 </i>
   <varray name="rec_basis" >
    <v>       0.10023590      -0.03543874       0.00000000 </v>
    <v>       0.00000000       0.10631623       0.00000000 </v>
    <v>      -0.05011795      -0.03543874       0.08680684 </v>
   </varray>
  </crystal>
  <varray name="positions" >
   <v>       0.29166667       0.29166667      -0.37500000 </v>
   <v>       0.04166667       0.37500000      -0.29166667 </v>
   <v>       0.37500000       0.37500000       0.37500000 </v>
   <v>       0.37500000       0.37500000      -0.29166667 </v>
   <v>       0.37500000       0.04166667      -0.29166667 </v>
   <v>      -0.04166667       0.29166667      -0.37500000 </v>
   <v>      -0.04166667       0.29166667      -0.04166667 </v>
   <v>      -0.37500000       0.29166667       0.29166667 </v>
   <v>      -0.37500000       0.29166667      -0.37500000 </v>
   <v>      -0.37500000      -0.04166667      -0.37500000 </v>
   <v>      -0.04166667      -0.37500000      -0.37500000 </v>
   <v>       0.29166667      -0.04166667      -0.37500000 </v>
   <v>       0.29166667      -0.04166667      -0.04166667 </v>
   <v>       0.29166667      -0.37500000       0.29166667 </v>
   <v>       0.29166667      -0.37500000      -0.37500000 </v>
   <v>       0.29166667       0.29166667      -0.04166667 </v>
   <v>      -0.29166667       0.37500000       0.37500000 </v>
   <v>       0.04166667       0.04166667      -0.29166667 </v>
   <v>       0.04166667       0.04166667       0.04166667 </v>
   <v>      -0.29166667       0.04166667       0.37500000 </v>
   <v>      -0.29166667       0.04166667      -0.29166667 </v>
   <v>       0.37500000      -0.29166667       0.37500000 </v>
   <v>       0.04166667       0.37500000       0.37500000 </v>
   <v>       0.04166667       0.37500000       0.04166667 </v>
   <v>       0.04166667      -0.29166667       0.37500000 </v>
   <v>       0.04166667      -0.29166667      -0.29166667 </v>
   <v>       0.37500000       0.04166667       0.37500000 </v>
   <v>       0.37500000       0.04166667       0.04166667 </v>
   <v>      -0.04166667      -0.04166667      -0.04166667 </v>
   <v>      -0.37500000      -0.37500000       0.29166667 </v>
   <v>      -0.37500000      -0.04166667       0.29166667 </v>
   <v>      -0.04166667      -0.37500000       0.29166667 </v>
   <v>      -0.37500000      -0.04166667      -0.04166667 </v>
   <v>      -0.04166667      -0.37500000      -0.04166667 </v>
   <v>      -0.29166667       0.37500000      -0.29166667 </v>
   <v>      -0.29166667       0.37500000       0.04166667 </v>
   <v>      -0.29166667      -0.29166667      -0.29166667 </v>
   <v>       0.37500000      -0.29166667       0.04166667 </v>
   <v>       0.37500000      -0.29166667      -0.29166667 </v>
   <v>       0.37500000       0.37500000       0.04166667 </v>
   <v>      -0.37500000       0.29166667      -0.04166667 </v>
   <v>      -0.04166667       0.29166667       0.29166667 </v>
   <v>      -0.37500000      -0.37500000      -0.37500000 </v>
   <v>      -0.37500000      -0.37500000      -0.04166667 </v>
   <v>      -0.04166667      -0.04166667       0.29166667 </v>
   <v>      -0.04166667      -0.04166667      -0.37500000 </v>
   <v>       0.29166667      -0.37500000      -0.04166667 </v>
   <v>       0.29166667      -0.04166667       0.29166667 </v>
   <v>      -0.29166667       0.04166667       0.04166667 </v>
   <v>       0.04166667       0.04166667       0.37500000 </v>
   <v>      -0.29166667      -0.29166667       0.04166667 </v>
   <v>      -0.29166667      -0.29166667       0.37500000 </v>
   <v>       0.04166667      -0.29166667       0.04166667 </v>
  </varray>
 </structure>
 <varray name="primitive_index" >
  <v type="int" >        1 </v>
  <v type="int" >       32 </v>
  <v type="int" >       40 </v>
  <v type="int" >       41 </v>
  <v type="int" >       38 </v>
  <v type="int" >       19 </v>
  <v type="int" >       20 </v>
  <v type="int" >        9 </v>
  <v type="int" >       10 </v>
  <v type="int" >       16 </v>
  <v type="int" >       22 </v>
  <v type="int" >        7 </v>
  <v type="int" >        8 </v>
  <v type="int" >        3 </v>
  <v type="int" >        4 </v>
  <v type="int" >        2 </v>
  <v type="int" >       49 </v>
  <v type="int" >       29 </v>
  <v type="int" >       27 </v>
  <v type="int" >       46 </v>
  <v type="int" >       47 </v>
  <v type="int" >       43 </v>
  <v type="int" >       31 </v>
  <v type="int" >       30 </v>
  <v type="int" >       34 </v>
  <v type="int" >       35 </v>
  <v type="int" >       37 </v>
  <v type="int" >       36 </v>
  <v type="int" >       26 </v>
  <v type="int" >       12 </v>
  <v type="int" >       15 </v>
  <v type="int" >       21 </v>
  <v type="int" >       17 </v>
  <v type="int" >       23 </v>
  <v type="int" >       50 </v>
  <v type="int" >       48 </v>
  <v type="int" >       53 </v>
  <v type="int" >       42 </v>
  <v type="int" >       44 </v>
  <v type="int" >       39 </v>
  <v type="int" >       11 </v>
  <v type="int" >       18 </v>
  <v type="int" >       13 </v>
  <v type="int" >       14 </v>
  <v type="int" >       24 </v>
  <v type="int" >       25 </v>
  <v type="int" >        5 </v>
  <v type="int" >        6 </v>
  <v type="int" >       45 </v>
  <v type="int" >       28 </v>
  <v type="int" >       51 </v>
  <v type="int" >       52 </v>
  <v type="int" >       33 </v>
 </varray>
 <kpoints>
  <generation param="Gamma">
   <v type="int" name="divisions">       4        4        4 </v>
   <v name="usershift">      0.00000000       0.00000000       0.00000000 </v>
   <v name="genvec1">      0.25000000       0.00000000       0.00000000 </v>
   <v name="genvec2">      0.00000000       0.25000000       0.00000000 </v>
   <v name="genvec3">     -0.00000000      -0.00000000       0.25000000 </v>
   <v name="shift">      0.00000000       0.00000000       0.00000000 </v>
  </generation>
  <varray name="kpointlist" >
   <v>       0.00000000       0.00000000       0.00000000 </v>
   <v>       0.25000000       0.00000000       0.00000000 </v>
   <v>       0.50000000       0.00000000       0.00000000 </v>
   <v>       0.25000000       0.25000000       0.00000000 </v>
   <v>       0.50000000       0.25000000       0.00000000 </v>
   <v>      -0.25000000       0.25000000       0.00000000 </v>
   <v>       0.50000000       0.50000000       0.00000000 </v>
   <v>      -0.25000000       0.50000000       0.25000000 </v>
  </varray>
  <varray name="weights" >
   <v>       0.01562500 </v>
   <v>       0.12500000 </v>
   <v>       0.06250000 </v>
   <v>       0.09375000 </v>
   <v>       0.37500000 </v>
   <v>       0.18750000 </v>
   <v>       0.04687500 </v>
   <v>       0.09375000 </v>
  </varray>
 </kpoints>
 <parameters>
  <separator name="general" >
   <i type="string" name="SYSTEM">Si</i>
   <i type="logical" name="LCOMPAT"> F  </i>
  </separator>
  <separator name="electronic" >
   <i type="string" name="PREC">normal</i>
   <i name="ENMAX">    550.00000000</i>
   <i name="ENAUG">    322.06900000</i>
   <i name="EDIFF">      0.00000100</i>
   <i type="int" name="IALGO">    38</i>
   <i type="int" name="IWAVPR">    10</i>
   <i type="int" name="NBANDS">   144</i>
   <i name="NELECT">    211.00000000</i>
   <i type="int" name="TURBO">     0</i>
   <i type="int" name="IRESTART">     0</i>
   <i type="int" name="NREBOOT">     0</i>
   <i type="int" name="NMIN">     0</i>
   <i name="EREF">      0.00000000</i>
   <separator name="electronic smearing" >
    <i type="int" name="ISMEAR">     0</i>
    <i name="SIGMA">      0.05000000</i>
    <i name="KSPACING">      0.50000000</i>
    <i type="logical" name="KGAMMA"> T  </i>
   </separator>
   <separator name="electronic projectors" >
    <i type="logical" name="LREAL"> F  </i>
    <v name="ROPT">      0.00000000</v>
    <i type="int" name="LMAXPAW">  -100</i>
    <i type="int" name="LMAXMIX">     2</i>
    <i type="logical" name="NLSPLINE"> F  </i>
   </separator>
   <separator name="electronic startup" >
    <i type="int" name="ISTART">     0</i>
    <i type="int" name="ICHARG">     2</i>
    <i type="int" name="INIWAV">     1</i>
   </separator>
   <separator name="electronic spin" >
    <i type="int" name="ISPIN">     1</i>
    <i type="logical" name="LNONCOLLINEAR"> F  </i>
    <v name="MAGMOM">      1.00000000      1.00000000      1.00000000      1.00000000      1.00000000      1.00000000      1.00000000      1.00000000      1.00000000      1.00000000      1.00000000      1.00000000      1.00000000      1.00000000      1.00000000      1.00000000      1.00000000      1.00000000      1.00000000      1.00000000
      1.00000000      1.00000000      1.00000000      1.00000000      1.00000000      1.00000000      1.00000000      1.00000000      1.00000000      1.00000000      1.00000000      1.00000000      1.00000000      1.00000000      1.00000000      1.00000000      1.00000000      1.00000000      1.00000000      1.00000000
      1.00000000      1.00000000      1.00000000      1.00000000      1.00000000      1.00000000      1.00000000      1.00000000      1.00000000      1.00000000      1.00000000      1.00000000      1.00000000</v>
    <i name="NUPDOWN">     -1.00000000</i>
    <i type="logical" name="LSORBIT"> F  </i>
    <v name="SAXIS">      0.00000000      0.00000000      1.00000000</v>
    <i type="logical" name="LSPIRAL"> F  </i>
    <v name="QSPIRAL">      0.00000000      0.00000000      0.00000000</v>
    <i type="logical" name="LZEROZ"> F  </i>
   </separator>
   <separator name="electronic exchange-correlation" >
    <i type="logical" name="LASPH"> F  </i>
    <i type="logical" name="LMETAGGA"> F  </i>
   </separator>
   <separator name="electronic convergence" >
    <i type="int" name="NELM">   200</i>
    <i type="int" name="NELMDL">    -5</i>
    <i type="int" name="NELMIN">     2</i>
    <i name="ENINI">    550.00000000</i>
    <separator name="electronic convergence detail" >
     <i type="logical" name="LDIAG"> T  </i>
     <i type="logical" name="LSUBROT"> F  </i>
     <i name="WEIMIN">      0.00000000</i>
     <i name="EBREAK">      0.00000000</i>
     <i name="DEPER">      0.30000000</i>
     <i type="int" name="NRMM">     4</i>
     <i name="TIME">      0.40000000</i>
    </separator>
   </separator>
   <separator name="electronic mixer" >
    <i name="AMIX">      0.20000000</i>
    <i name="BMIX">      1.00000000</i>
    <i name="AMIN">      0.10000000</i>
    <i name="AMIX_MAG">      0.80000000</i>
    <i name="BMIX_MAG">      1.00000000</i>
    <separator name="electronic mixer details" >
     <i type="int" name="IMIX">     4</i>
     <i type="logical" name="MIXFIRST"> F  </i>
     <i type="int" name="MAXMIX">   -45</i>
     <i name="WC">    100.00000000</i>
     <i type="int" name="INIMIX">     1</i>
     <i type="int" name="MIXPRE">     1</i>
     <i type="int" name="MREMOVE">     5</i>
    </separator>
   </separator>
   <separator name="electronic dipolcorrection" >
    <i type="logical" name="LDIPOL"> F  </i>
    <i type="logical" name="LMONO"> F  </i>
    <i type="int" name="IDIPOL">     0</i>
    <i name="EPSILON">      1.00000000</i>
    <v name="DIPOL">   -100.00000000   -100.00000000   -100.00000000</v>
    <i name="EFIELD">      0.00000000</i>
   </separator>
  </separator>
  <separator name="grids" >
   <i type="int" name="NGX">    70</i>
   <i type="int" name="NGY">    70</i>
   <i type="int" name="NGZ">    70</i>
   <i type="int" name="NGXF">   140</i>
   <i type="int" name="NGYF">   140</i>
   <i type="int" name="NGZF">   140</i>
   <i type="logical" name="ADDGRID"> F  </i>
  </separator>
  <separator name="ionic" >
   <i type="int" name="NSW">     0</i>
   <i type="int" name="IBRION">    -1</i>
   <i type="int" name="MDALGO">     0</i>
   <i type="int" name="ISIF">     2</i>
   <i name="PSTRESS">      0.00000000</i>
   <i name="EDIFFG">     -0.05000000</i>
   <i type="int" name="NFREE">     1</i>
   <i name="POTIM">      0.50000000</i>
   <i name="SMASS">     -3.00000000</i>
   <i name="SCALEE">      1.00000000</i>
  </separator>
  <separator name="ionic md" >
   <i name="TEBEG">      0.00010000</i>
   <i name="TEEND">      0.00010000</i>
   <i type="int" name="NBLOCK">     1</i>
   <i type="int" name="KBLOCK">     1</i>
   <i type="int" name="NPACO">   256</i>
   <i name="APACO">     16.00000000</i>
  </separator>
  <separator name="symmetry" >
   <i type="int" name="ISYM">     2</i>
   <i name="SYMPREC">      0.00001000</i>
  </separator>
  <separator name="dos" >
   <i type="int" name="LORBIT">    10</i>
   <v name="RWIGS">     -1.00000000</v>
   <i type="int" name="NEDOS">   301</i>
   <i name="EMIN">     10.00000000</i>
   <i name="EMAX">    -10.00000000</i>
   <i name="EFERMI">      0.00000000</i>
  </separator>
  <separator name="writing" >
   <i type="int" name="NWRITE">     2</i>
   <i type="logical" name="LWAVE"> T  </i>
   <i type="logical" name="LDOWNSAMPLE"> F  </i>
   <i type="logical" name="LCHARG"> T  </i>
   <i type="logical" name="LPARD"> F  </i>
   <i type="logical" name="LVTOT"> F  </i>
   <i type="logical" name="LVHAR"> F  </i>
   <i type="logical" name="LELF"> F  </i>
   <i type="logical" name="LOPTICS"> F  </i>
   <v name="STM">      0.00000000      0.00000000      0.00000000      0.00000000      0.00000000      0.00000000      0.00000000</v>
  </separator>
  <separator name="performance" >
   <i type="int" name="NPAR">    24</i>
   <i type="int" name="NSIM">     4</i>
   <i type="int" name="NBLK">    -1</i>
   <i type="logical" name="LPLANE"> T  </i>
   <i type="logical" name="LSCALAPACK"> T  </i>
   <i type="logical" name="LSCAAWARE"> F  </i>
   <i type="logical" name="LSCALU"> F  </i>
   <i type="logical" name="LASYNC"> F  </i>
   <i type="logical" name="LORBITALREAL"> F  </i>
  </separator>
  <separator name="miscellaneous" >
   <i type="int" name="IDIOT">     3</i>
   <i type="int" name="ISPECIAL">     0</i>
   <i type="logical" name="LMUSIC"> F  </i>
   <v name="POMASS">     28.08500000</v>
   <v name="DARWINR">      0.00000000</v>
   <v name="DARWINV">      1.00000000</v>
   <i type="logical" name="LCORR"> T  </i>
  </separator>
  <i type="logical" name="GGA_COMPAT"> T  </i>
  <i type="logical" name="LBERRY"> F  </i>
  <i type="int" name="ICORELEVEL">     0</i>
  <i type="logical" name="LDAU"> F  </i>
  <i type="int" name="I_CONSTRAINED_M">     0</i>
  <separator name="electronic exchange-correlation" >
   <i type="string" name="GGA">--</i>
   <i type="int" name="VOSKOWN">     0</i>
   <i type="logical" name="LHFCALC"> F  </i>
   <i type="string" name="PRECFOCK"></i>
   <i type="logical" name="LSYMGRAD"> F  </i>
   <i type="logical" name="LHFONE"> F  </i>
   <i type="logical" name="LRHFCALC"> F  </i>
   <i type="logical" name="LTHOMAS"> F  </i>
   <i type="logical" name="LMODELHF"> F  </i>
   <i name="ENCUT4O">     -1.00000000</i>
   <i type="int" name="EXXOEP">     0</i>
   <i type="int" name="FOURORBIT">     0</i>
   <i name="AEXX">      0.00000000</i>
   <i name="HFALPHA">      0.00000000</i>
   <i name="MCALPHA">      0.00000000</i>
   <i name="ALDAX">      1.00000000</i>
   <i name="AGGAX">      1.00000000</i>
   <i name="ALDAC">      1.00000000</i>
   <i name="AGGAC">      1.00000000</i>
   <i type="int" name="NKREDX">     1</i>
   <i type="int" name="NKREDY">     1</i>
   <i type="int" name="NKREDZ">     1</i>
   <i type="logical" name="SHIFTRED"> F  </i>
   <i type="logical" name="ODDONLY"> F  </i>
   <i type="logical" name="EVENONLY"> F  </i>
   <i type="int" name="LMAXFOCK">     0</i>
   <i type="int" name="NMAXFOCKAE">     0</i>
   <i type="logical" name="LFOCKAEDFT"> F  </i>
   <i name="HFSCREEN">      0.00000000</i>
   <i name="HFSCREENC">      0.00000000</i>
   <i type="int" name="NBANDSGWLOW">     0</i>
  </separator>
  <separator name="vdW DFT" >
   <i type="logical" name="LUSE_VDW"> F  </i>
   <i name="Zab_VDW">     -0.84910000</i>
   <i name="PARAM1">      0.12340000</i>
   <i name="PARAM2">      1.00000000</i>
   <i name="PARAM3">      0.00000000</i>
  </separator>
  <separator name="model GW" >
   <i type="int" name="MODEL_GW">     0</i>
   <i name="MODEL_EPS0">     12.23766635</i>
   <i name="MODEL_ALPHA">      1.00000000</i>
  </separator>
  <separator name="linear response parameters" >
   <i type="logical" name="LEPSILON"> F  </i>
   <i type="logical" name="LRPA"> F  </i>
   <i type="logical" name="LNABLA"> F  </i>
   <i type="logical" name="LVEL"> F  </i>
   <i type="int" name="KINTER">     0</i>
   <i name="CSHIFT">      0.10000000</i>
   <i name="OMEGAMAX">     -1.00000000</i>
   <i name="DEG_THRESHOLD">      0.00200000</i>
   <i name="RTIME">     -0.10000000</i>
   <i name="WPLASMAI">      0.00000000</i>
   <v name="DFIELD">      0.00000000      0.00000000      0.00000000</v>
   <v name="WPLASMA">      0.00000000      0.00000000      0.00000000      0.00000000      0.00000000      0.00000000      0.00000000      0.00000000      0.00000000</v>
  </separator>
  <separator name="orbital magnetization" >
   <i type="logical" name="NUCIND"> F  </i>
   <v name="MAGPOS">      0.00000000      0.00000000      0.00000000</v>
   <i type="logical" name="LNICSALL"> T  </i>
   <i type="logical" name="ORBITALMAG"> F  </i>
   <i type="logical" name="LMAGBLOCH"> F  </i>
   <i type="logical" name="LCHIMAG"> F  </i>
   <i type="logical" name="LGAUGE"> T  </i>
   <i type="int" name="MAGATOM">     0</i>
   <v name="MAGDIPOL">      0.00000000      0.00000000      0.00000000</v>
   <v name="AVECCONST">      0.00000000      0.00000000      0.00000000</v>
  </separator>
  <separator name="response functions" >
   <i type="logical" name="LADDER"> F  </i>
   <i type="logical" name="LRPAFORCE"> F  </i>
   <i type="logical" name="LFXC"> F  </i>
   <i type="logical" name="LHARTREE"> T  </i>
   <i type="int" name="IBSE">     0</i>
   <v type="int" name="KPOINT">    -1     0     0     0</v>
   <i type="logical" name="LTCTE"> F  </i>
   <i type="logical" name="LTETE"> F  </i>
   <i type="logical" name="LTRIPLET"> F  </i>
   <i type="logical" name="LFXCEPS"> F  </i>
   <i type="logical" name="LFXHEG"> F  </i>
   <i type="int" name="NATURALO">     2</i>
   <i type="logical" name="L2ORDER"> F  </i>
   <i type="logical" name="LMP2LT"> F  </i>
   <i type="logical" name="LUSEW"> F  </i>
   <i name="ENCUTGW">     -2.00000000</i>
   <i name="ENCUTGWSOFT">     -2.00000000</i>
   <i name="ENCUTLF">     -1.00000000</i>
   <i type="int" name="LMAXMP2">    -1</i>
   <i name="SCISSOR">      0.00000000</i>
   <i type="int" name="NOMEGA">     0</i>
   <i type="int" name="NOMEGAR">     0</i>
   <i type="int" name="NBANDSGW">    -1</i>
   <i type="int" name="NBANDSO">    -1</i>
   <i type="int" name="NBANDSV">    -1</i>
   <i type="int" name="NELM">   200</i>
   <i type="int" name="NELMHF">     1</i>
   <i type="int" name="DIM">     3</i>
   <i type="int" name="ANTIRES">     0</i>
   <i name="OMEGAMAX">    -30.00000000</i>
   <i name="OMEGAMIN">    -30.00000000</i>
   <i name="OMEGATL">   -200.00000000</i>
   <i type="int" name="OMEGAGRID">   140</i>
   <i name="CSHIFT">     -0.10000000</i>
   <i type="logical" name="SELFENERGY"> F  </i>
   <i type="logical" name="LSPECTRAL"> F  </i>
   <i type="logical" name="LSPECTRALGW"> F  </i>
   <i type="logical" name="LSINGLES"> F  </i>
   <i type="logical" name="LFERMIGW"> F  </i>
   <i type="logical" name="ODDONLYGW"> F  </i>
   <i type="logical" name="EVENONLYGW"> F  </i>
   <i type="int" name="NKREDLFX">     1</i>
   <i type="int" name="NKREDLFY">     1</i>
   <i type="int" name="NKREDLFZ">     1</i>
   <i type="int" name="MAXMEM">  2800</i>
   <i type="int" name="TELESCOPE">     0</i>
   <i type="int" name="TAUPAR">     1</i>
   <i type="int" name="OMEGAPAR">    -1</i>
   <i name="LAMBDA">      1.00000000</i>
  </separator>
  <separator name="External order field" >
   <i name="OFIELD_KAPPA">      0.00000000</i>
   <v name="OFIELD_K">      0.00000000      0.00000000      0.00000000</v>
   <i name="OFIELD_Q6_NEAR">      0.00000000</i>
   <i name="OFIELD_Q6_FAR">      0.00000000</i>
   <i name="OFIELD_A">      0.00000000</i>
  </separator>
 </parameters>
 <atominfo>
  <atoms>      53 </atoms>
  <types>       1 </types>
  <array name="atoms" >
   <dimension dim="1">ion</dimension>
   <field type="string">element</field>
   <field type="int">atomtype</field>
   <set>
    <rc><c>Si</c><c>   1</c></rc>
    <rc><c>Si</c><c>   1</c></rc>
    <rc><c>Si</c><c>   1</c></rc>
    <rc><c>Si</c><c>   1</c></rc>
    <rc><c>Si</c><c>   1</c></rc>
    <rc><c>Si</c><c>   1</c></rc>
    <rc><c>Si</c><c>   1</c></rc>
    <rc><c>Si</c><c>   1</c></rc>
    <rc><c>Si</c><c>   1</c></rc>
    <rc><c>Si</c><c>   1</c></rc>
    <rc><c>Si</c><c>   1</c></rc>
    <rc><c>Si</c><c>   1</c></rc>
    <rc><c>Si</c><c>   1</c></rc>
    <rc><c>Si</c><c>   1</c></rc>
    <rc><c>Si</c><c>   1</c></rc>
    <rc><c>Si</c><c>   1</c></rc>
    <rc><c>Si</c><c>   1</c></rc>
    <rc><c>Si</c><c>   1</c></rc>
    <rc><c>Si</c><c>   1</c></rc>
    <rc><c>Si</c><c>   1</c></rc>
    <rc><c>Si</c><c>   1</c></rc>
    <rc><c>Si</c><c>   1</c></rc>
    <rc><c>Si</c><c>   1</c></rc>
    <rc><c>Si</c><c>   1</c></rc>
    <rc><c>Si</c><c>   1</c></rc>
    <rc><c>Si</c><c>   1</c></rc>
    <rc><c>Si</c><c>   1</c></rc>
    <rc><c>Si</c><c>   1</c></rc>
    <rc><c>Si</c><c>   1</c></rc>
    <rc><c>Si</c><c>   1</c></rc>
    <rc><c>Si</c><c>   1</c></rc>
    <rc><c>Si</c><c>   1</c></rc>
    <rc><c>Si</c><c>   1</c></rc>
    <rc><c>Si</c><c>   1</c></rc>
    <rc><c>Si</c><c>   1</c></rc>
    <rc><c>Si</c><c>   1</c></rc>
    <rc><c>Si</c><c>   1</c></rc>
    <rc><c>Si</c><c>   1</c></rc>
    <rc><c>Si</c><c>   1</c></rc>
    <rc><c>Si</c><c>   1</c></rc>
    <rc><c>Si</c><c>   1</c></rc>
    <rc><c>Si</c><c>   1</c></rc>
    <rc><c>Si</c><c>   1</c></rc>
    <rc><c>Si</c><c>   1</c></rc>
    <rc><c>Si</c><c>   1</c></rc>
    <rc><c>Si</c><c>   1</c></rc>
    <rc><c>Si</c><c>   1</c></rc>
    <rc><c>Si</c><c>   1</c></rc>
    <rc><c>Si</c><c>   1</c></rc>
    <rc><c>Si</c><c>   1</c></rc>
    <rc><c>Si</c><c>   1</c></rc>
    <rc><c>Si</c><c>   1</c></rc>
    <rc><c>Si</c><c>   1</c></rc>
   </set>
  </array>
  <array name="atomtypes" >
   <dimension dim="1">type</dimension>
   <field type="int">atomspertype</field>
   <field type="string">element</field>
   <field>mass</field>
   <field>valence</field>
   <field type="string">pseudopotential</field>
   <set>
    <rc><c>  53</c><c>Si</c><c>     28.08500000</c><c>      4.00000000</c><c>  PAW_PBE Si 05Jan2001                  </c></rc>
   </set>
  </array>
 </atominfo>
 <structure name="initialpos" >
  <crystal>
   <varray name="basis" >
    <v>       9.97646553       0.00000000       5.75991507 </v>
    <v>       3.32548851       9.40590192       5.75991507 </v>
    <v>       0.00000000       0.00000000      11.51983014 </v>
   </varray>
   <i name="volume">   1080.99386112 </i>
   <varray name="rec_basis" >
    <v>       0.10023590      -0.03543874       0.00000000 </v>
    <v>       0.00000000       0.10631623       0.00000000 </v>
    <v>      -0.05011795      -0.03543874       0.08680684 </v>
   </varray>
  </crystal>
  <varray name="positions" >
   <v>       0.29166667       0.29166667       0.62500000 </v>
   <v>       0.29166667       0.29166667       0.95833333 </v>
   <v>       0.29166667       0.62500000       0.29166667 </v>
   <v>       0.29166667       0.62500000       0.62500000 </v>
   <v>       0.29166667       0.62500000       0.95833333 </v>
   <v>       0.29166667       0.95833333       0.29166667 </v>
   <v>       0.29166667       0.95833333       0.62500000 </v>
   <v>       0.29166667       0.95833333       0.95833333 </v>
   <v>       0.62500000       0.29166667       0.29166667 </v>
   <v>       0.62500000       0.29166667       0.62500000 </v>
   <v>       0.62500000       0.29166667       0.95833333 </v>
   <v>       0.62500000       0.62500000       0.29166667 </v>
   <v>       0.62500000       0.62500000       0.62500000 </v>
   <v>       0.62500000       0.62500000       0.95833333 </v>
   <v>       0.62500000       0.95833333       0.29166667 </v>
   <v>       0.62500000       0.95833333       0.62500000 </v>
   <v>       0.62500000       0.95833333       0.95833333 </v>
   <v>       0.95833333       0.29166667       0.29166667 </v>
   <v>       0.95833333       0.29166667       0.62500000 </v>
   <v>       0.95833333       0.29166667       0.95833333 </v>
   <v>       0.95833333       0.62500000       0.29166667 </v>
   <v>       0.95833333       0.62500000       0.62500000 </v>
   <v>       0.95833333       0.62500000       0.95833333 </v>
   <v>       0.95833333       0.95833333       0.29166667 </v>
   <v>       0.95833333       0.95833333       0.62500000 </v>
   <v>       0.95833333       0.95833333       0.95833333 </v>
   <v>       0.04166667       0.04166667       0.04166667 </v>
   <v>       0.04166667       0.04166667       0.37500000 </v>
   <v>       0.04166667       0.04166667       0.70833333 </v>
   <v>       0.04166667       0.37500000       0.04166667 </v>
   <v>       0.04166667       0.37500000       0.37500000 </v>
   <v>       0.04166667       0.37500000       0.70833333 </v>
   <v>       0.04166667       0.70833333       0.04166667 </v>
   <v>       0.04166667       0.70833333       0.37500000 </v>
   <v>       0.04166667       0.70833333       0.70833333 </v>
   <v>       0.37500000       0.04166667       0.04166667 </v>
   <v>       0.37500000       0.04166667       0.37500000 </v>
   <v>       0.37500000       0.04166667       0.70833333 </v>
   <v>       0.37500000       0.37500000       0.04166667 </v>
   <v>       0.37500000       0.37500000       0.37500000 </v>
   <v>       0.37500000       0.37500000       0.70833333 </v>
   <v>       0.37500000       0.70833333       0.04166667 </v>
   <v>       0.37500000       0.70833333       0.37500000 </v>
   <v>       0.37500000       0.70833333       0.70833333 </v>
   <v>       0.70833333       0.04166667       0.04166667 </v>
   <v>       0.70833333       0.04166667       0.37500000 </v>
   <v>       0.70833333       0.04166667       0.70833333 </v>
   <v>       0.70833333       0.37500000       0.04166667 </v>
   <v>       0.70833333       0.37500000       0.37500000 </v>
   <v>       0.70833333       0.37500000       0.70833333 </v>
   <v>       0.70833333       0.70833333       0.04166667 </v>
   <v>       0.70833333       0.70833333       0.37500000 </v>
   <v>       0.70833333       0.70833333       0.70833333 </v>
  </varray>
 </structure>
 <calculation>
  <scstep>
   <time name="dav">    3.60    3.64</time>
   <time name="total">    4.32    4.37</time>
   <energy>
    <i name="alphaZ">     87.47481167 </i>
    <i name="ewald">  -5974.52528800 </i>
    <i name="hartreedc">   -334.43528197 </i>
    <i name="XCdc">   -494.43365227 </i>
    <i name="pawpsdc">   4670.56137959 </i>
    <i name="pawaedc">  -3738.11744287 </i>
    <i name="eentropy">     -0.01638174 </i>
    <i name="bandstr">    857.84955998 </i>
    <i name="atom">   5462.52286525 </i>
    <i name="e_fr_energy">    536.88056964 </i>
    <i name="e_wo_entrp">    536.89695138 </i>
    <i name="e_0_energy">    536.88876051 </i>
   </energy>
  </scstep>
  <scstep>
   <time name="dav">    4.97    5.03</time>
   <time name="total">    5.46    5.53</time>
   <energy>
    <i name="e_fr_energy">   -246.64514858 </i>
    <i name="e_wo_entrp">   -246.63733209 </i>
    <i name="e_0_energy">   -246.64124034 </i>
   </energy>
  </scstep>
  <scstep>
   <time name="dav">    4.11    4.16</time>
   <time name="total">    4.11    4.16</time>
   <energy>
    <i name="e_fr_energy">   -293.44441915 </i>
    <i name="e_wo_entrp">   -293.43679657 </i>
    <i name="e_0_energy">   -293.44060786 </i>
   </energy>
  </scstep>
  <scstep>
   <time name="dav">    5.10    5.15</time>
   <time name="total">    5.58    5.64</time>
   <energy>
    <i name="e_fr_energy">   -294.38068289 </i>
    <i name="e_wo_entrp">   -294.37305565 </i>
    <i name="e_0_energy">   -294.37686927 </i>
   </energy>
  </scstep>
  <scstep>
   <time name="dav">    4.78    4.84</time>
   <time name="total">    5.15    5.20</time>
   <energy>
    <i name="e_fr_energy">   -294.40266566 </i>
    <i name="e_wo_entrp">   -294.39503833 </i>
    <i name="e_0_energy">   -294.39885200 </i>
   </energy>
  </scstep>
  <scstep>
   <time name="dav">    4.51    4.56</time>
   <time name="total">    5.42    5.47</time>
   <energy>
    <i name="e_fr_energy">   -292.49299602 </i>
    <i name="e_wo_entrp">   -292.48537766 </i>
    <i name="e_0_energy">   -292.48918684 </i>
   </energy>
  </scstep>
  <scstep>
   <time name="dav">    3.94    3.98</time>
   <time name="total">    4.40    4.44</time>
   <energy>
    <i name="e_fr_energy">   -289.93696403 </i>
    <i name="e_wo_entrp">   -289.92762542 </i>
    <i name="e_0_energy">   -289.93229472 </i>
   </energy>
  </scstep>
  <scstep>
   <time name="dav">    4.35    4.39</time>
   <time name="total">    5.76    5.82</time>
   <energy>
    <i name="e_fr_energy">   -289.66339674 </i>
    <i name="e_wo_entrp">   -289.65541713 </i>
    <i name="e_0_energy">   -289.65940694 </i>
   </energy>
  </scstep>
  <scstep>
   <time name="dav">    4.91    4.96</time>
   <time name="total">    5.31    5.36</time>
   <energy>
    <i name="e_fr_energy">   -289.67287483 </i>
    <i name="e_wo_entrp">   -289.66097640 </i>
    <i name="e_0_energy">   -289.66692561 </i>
   </energy>
  </scstep>
  <scstep>
   <time name="dav">    3.88    3.91</time>
   <time name="total">    4.14    4.18</time>
   <energy>
    <i name="e_fr_energy">   -289.65296345 </i>
    <i name="e_wo_entrp">   -289.64624238 </i>
    <i name="e_0_energy">   -289.64960291 </i>
   </energy>
  </scstep>
  <scstep>
   <time name="dav">    4.18    4.22</time>
   <time name="total">    5.28    5.34</time>
   <energy>
    <i name="e_fr_energy">   -289.65233973 </i>
    <i name="e_wo_entrp">   -289.64655003 </i>
    <i name="e_0_energy">   -289.64944488 </i>
   </energy>
  </scstep>
  <scstep>
   <time name="dav">    3.99    4.02</time>
   <time name="total">    4.36    4.40</time>
   <energy>
    <i name="e_fr_energy">   -289.65421623 </i>
    <i name="e_wo_entrp">   -289.64840092 </i>
    <i name="e_0_energy">   -289.65130858 </i>
   </energy>
  </scstep>
  <scstep>
   <time name="dav">    3.82    3.85</time>
   <time name="total">    4.61    4.66</time>
   <energy>
    <i name="e_fr_energy">   -289.65756164 </i>
    <i name="e_wo_entrp">   -289.65165675 </i>
    <i name="e_0_energy">   -289.65460919 </i>
   </energy>
  </scstep>
  <scstep>
   <time name="dav">    3.87    3.91</time>
   <time name="total">    4.26    4.30</time>
   <energy>
    <i name="e_fr_energy">   -289.65744989 </i>
    <i name="e_wo_entrp">   -289.65154800 </i>
    <i name="e_0_energy">   -289.65449895 </i>
   </energy>
  </scstep>
  <scstep>
   <time name="dav">    4.06    4.09</time>
   <time name="total">    4.31    4.35</time>
   <energy>
    <i name="e_fr_energy">   -289.65743637 </i>
    <i name="e_wo_entrp">   -289.65154883 </i>
    <i name="e_0_energy">   -289.65449260 </i>
   </energy>
  </scstep>
  <scstep>
   <time name="dav">    3.75    3.78</time>
   <time name="total">    4.01    4.05</time>
   <energy>
    <i name="e_fr_energy">   -289.65732743 </i>
    <i name="e_wo_entrp">   -289.65149325 </i>
    <i name="e_0_energy">   -289.65441034 </i>
   </energy>
  </scstep>
  <scstep>
   <time name="dav">    3.99    4.02</time>
   <time name="total">    4.25    4.29</time>
   <energy>
    <i name="e_fr_energy">   -289.65734300 </i>
    <i name="e_wo_entrp">   -289.65151431 </i>
    <i name="e_0_energy">   -289.65442865 </i>
   </energy>
  </scstep>
  <scstep>
   <time name="dav">    3.69    3.72</time>
   <time name="total">    3.79    3.82</time>
   <energy>
    <i name="alphaZ">     87.47481167 </i>
    <i name="ewald">  -5974.52528800 </i>
    <i name="hartreedc">   -435.08740432 </i>
    <i name="XCdc">   -481.15312150 </i>
    <i name="pawpsdc">  22222.04758044 </i>
    <i name="pawaedc"> -21295.09575912 </i>
    <i name="eentropy">     -0.00582846 </i>
    <i name="bandstr">    124.16480042 </i>
    <i name="atom">   5462.52286525 </i>
    <i name="e_fr_energy">   -289.65734362 </i>
    <i name="e_wo_entrp">   -289.65151516 </i>
    <i name="e_0_energy">   -289.65442939 </i>
   </energy>
  </scstep>
  <structure>
   <crystal>
    <varray name="basis" >
     <v>       9.97646553       0.00000000       5.75991507 </v>
     <v>       3.32548851       9.40590192       5.75991507 </v>
     <v>       0.00000000       0.00000000      11.51983014 </v>
    </varray>
    <i name="volume">   1080.99386112 </i>
    <varray name="rec_basis" >
     <v>       0.10023590      -0.03543874       0.00000000 </v>
     <v>       0.00000000       0.10631623       0.00000000 </v>
     <v>      -0.05011795      -0.03543874       0.08680684 </v>
    </varray>
   </crystal>
   <varray name="positions" >
    <v>       0.29166667       0.29166667       0.62500000 </v>
    <v>       0.29166667       0.29166667       0.95833333 </v>
    <v>       0.29166667       0.62500000       0.29166667 </v>
    <v>       0.29166667       0.62500000       0.62500000 </v>
    <v>       0.29166667       0.62500000       0.95833333 </v>
    <v>       0.29166667       0.95833333       0.29166667 </v>
    <v>       0.29166667       0.95833333       0.62500000 </v>
    <v>       0.29166667       0.95833333       0.95833333 </v>
    <v>       0.62500000       0.29166667       0.29166667 </v>
    <v>       0.62500000       0.29166667       0.62500000 </v>
    <v>       0.62500000       0.29166667       0.95833333 </v>
    <v>       0.62500000       0.62500000       0.29166667 </v>
    <v>       0.62500000       0.62500000       0.62500000 </v>
    <v>       0.62500000       0.62500000       0.95833333 </v>
    <v>       0.62500000       0.95833333       0.29166667 </v>
    <v>       0.62500000       0.95833333       0.62500000 </v>
    <v>       0.62500000       0.95833333       0.95833333 </v>
    <v>       0.95833333       0.29166667       0.29166667 </v>
    <v>       0.95833333       0.29166667       0.62500000 </v>
    <v>       0.95833333       0.29166667       0.95833333 </v>
    <v>       0.95833333       0.62500000       0.29166667 </v>
    <v>       0.95833333       0.62500000       0.62500000 </v>
    <v>       0.95833333       0.62500000       0.95833333 </v>
    <v>       0.95833333       0.95833333       0.29166667 </v>
    <v>       0.95833333       0.95833333       0.62500000 </v>
    <v>       0.95833333       0.95833333       0.95833333 </v>
    <v>       0.04166667       0.04166667       0.04166667 </v>
    <v>       0.04166667       0.04166667       0.37500000 </v>
    <v>       0.04166667       0.04166667       0.70833333 </v>
    <v>       0.04166667       0.37500000       0.04166667 </v>
    <v>       0.04166667       0.37500000       0.37500000 </v>
    <v>       0.04166667       0.37500000       0.70833333 </v>
    <v>       0.04166667       0.70833333       0.04166667 </v>
    <v>       0.04166667       0.70833333       0.37500000 </v>
    <v>       0.04166667       0.70833333       0.70833333 </v>
    <v>       0.37500000       0.04166667       0.04166667 </v>
    <v>       0.37500000       0.04166667       0.37500000 </v>
    <v>       0.37500000       0.04166667       0.70833333 </v>
    <v>       0.37500000       0.37500000       0.04166667 </v>
    <v>       0.37500000       0.37500000       0.37500000 </v>
    <v>       0.37500000       0.37500000       0.70833333 </v>
    <v>       0.37500000       0.70833333       0.04166667 </v>
    <v>       0.37500000       0.70833333       0.37500000 </v>
    <v>       0.37500000       0.70833333       0.70833333 </v>
    <v>       0.70833333       0.04166667       0.04166667 </v>
    <v>       0.70833333       0.04166667       0.37500000 </v>
    <v>       0.70833333       0.04166667       0.70833333 </v>
    <v>       0.70833333       0.37500000       0.04166667 </v>
    <v>       0.70833333       0.37500000       0.37500000 </v>
    <v>       0.70833333       0.37500000       0.70833333 </v>
    <v>       0.70833333       0.70833333       0.04166667 </v>
    <v>       0.70833333       0.70833333       0.37500000 </v>
    <v>       0.70833333       0.70833333       0.70833333 </v>
   </varray>
  </structure>
  <varray name="forces" >
   <v>      -0.20326847      -0.14373252      -0.30548336 </v>
   <v>      -0.20326847      -0.14373252       0.30548336 </v>
   <v>      -0.18981969      -0.10569360      -0.32877734 </v>
   <v>      -0.05831150       0.02061623       0.00000000 </v>
   <v>      -0.18981969      -0.10569360       0.32877734 </v>
   <v>      -0.01344879       0.39315863      -0.02329398 </v>
   <v>      -0.01344879       0.39315863       0.02329398 </v>
   <v>      -0.02816882       0.00995918       0.00000000 </v>
   <v>      -0.16292211      -0.14373252      -0.32877734 </v>
   <v>       0.00000000      -0.06184869       0.00000000 </v>
   <v>      -0.16292211      -0.14373252       0.32877734 </v>
   <v>       0.02915575       0.02061623      -0.05049924 </v>
   <v>       0.02915575       0.02061623       0.05049924 </v>
   <v>      -0.01674844      -0.01184294       0.00000000 </v>
   <v>       0.02689758       0.39315863       0.00000000 </v>
   <v>      -0.00837422       0.01184294      -0.01450458 </v>
   <v>      -0.00837422       0.01184294       0.01450458 </v>
   <v>       0.36619058      -0.14373252      -0.02329398 </v>
   <v>       0.36619058      -0.14373252       0.02329398 </v>
   <v>       0.00000000      -0.02987754       0.00000000 </v>
   <v>       0.37963937      -0.10569360      -0.00000000 </v>
   <v>       0.00837422      -0.01184294      -0.01450458 </v>
   <v>       0.00837422      -0.01184294       0.01450458 </v>
   <v>       0.01408441       0.00995918      -0.02439491 </v>
   <v>       0.01674844       0.01184294       0.00000000 </v>
   <v>       0.01408441       0.00995918       0.02439491 </v>
   <v>       0.00000000      -0.00000000       0.00000000 </v>
   <v>      -0.05537286      -0.03915452       0.01296341 </v>
   <v>      -0.05537286      -0.03915452      -0.01296341 </v>
   <v>      -0.02394421       0.04973910      -0.04147259 </v>
   <v>      -0.01381042       0.00488272       0.00000000 </v>
   <v>      -0.02394421       0.04973910       0.04147259 </v>
   <v>      -0.03142864       0.02856994      -0.05443601 </v>
   <v>      -0.03142864       0.02856994       0.05443601 </v>
   <v>      -0.03709924       0.01311656      -0.00000000 </v>
   <v>       0.03891307      -0.03915452      -0.04147259 </v>
   <v>       0.00000000      -0.01464816       0.00000000 </v>
   <v>       0.03891307      -0.03915452       0.04147259 </v>
   <v>       0.00690521       0.00488272      -0.01196018 </v>
   <v>       0.00690521       0.00488272       0.01196018 </v>
   <v>       0.29341334       0.20747456       0.00000000 </v>
   <v>       0.06285728       0.02856994       0.00000000 </v>
   <v>       0.14670667      -0.20747456       0.25410341 </v>
   <v>       0.14670667      -0.20747456      -0.25410341 </v>
   <v>       0.01645978      -0.03915452      -0.05443601 </v>
   <v>       0.01645978      -0.03915452       0.05443601 </v>
   <v>       0.00000000      -0.03934968      -0.00000000 </v>
   <v>       0.04788843       0.04973910       0.00000000 </v>
   <v>      -0.14670667       0.20747456       0.25410341 </v>
   <v>      -0.14670667       0.20747456      -0.25410341 </v>
   <v>       0.01854962       0.01311656      -0.03212888 </v>
   <v>      -0.29341334      -0.20747456       0.00000000 </v>
   <v>       0.01854962       0.01311656       0.03212888 </v>
  </varray>
  <varray name="stress" >
   <v>      -0.52265036       0.00000000       0.00000000 </v>
   <v>       0.00000000      -0.52265036       0.00000000 </v>
   <v>       0.00000000       0.00000000      -0.52265036 </v>
  </varray>
  <energy>
   <i name="e_fr_energy">   -289.65734362 </i>
   <i name="e_wo_entrp">   -289.65442939 </i>
   <i name="e_0_energy">     -0.00582846 </i>
  </energy>
  <time name="totalsc">   96.78   97.79</time>
  <eigenvalues>
   <array>
    <dimension dim="1">band</dimension>
    <dimension dim="2">kpoint</dimension>
    <dimension dim="3">spin</dimension>
    <field>eigene</field>
    <field>occ</field>
    <set>
     <set comment="spin 1">
      <set comment="kpoint 1">
       <r>   -6.2627    1.0000 </r>
       <r>   -4.9659    1.0000 </r>
       <r>   -4.9659    1.0000 </r>
       <r>   -4.9659    1.0000 </r>
       <r>   -4.9346    1.0000 </r>
       <r>   -4.8942    1.0000 </r>
       <r>   -4.8942    1.0000 </r>
       <r>   -4.8942    1.0000 </r>
       <r>   -4.6823    1.0000 </r>
       <r>   -4.4241    1.0000 </r>
       <r>   -4.4241    1.0000 </r>
       <r>   -4.3791    1.0000 </r>
       <r>   -4.3791    1.0000 </r>
       <r>   -4.3791    1.0000 </r>
       <r>   -3.9877    1.0000 </r>
       <r>   -3.0729    1.0000 </r>
       <r>   -3.0729    1.0000 </r>
       <r>   -3.0534    1.0000 </r>
       <r>   -3.0534    1.0000 </r>
       <r>   -3.0534    1.0000 </r>
       <r>   -3.0296    1.0000 </r>
       <r>   -3.0296    1.0000 </r>
       <r>   -3.0296    1.0000 </r>
       <r>   -2.9987    1.0000 </r>
       <r>   -2.9987    1.0000 </r>
       <r>   -2.9987    1.0000 </r>
       <r>   -2.1179    1.0000 </r>
       <r>   -1.1328    1.0000 </r>
       <r>   -1.1328    1.0000 </r>
       <r>   -1.1328    1.0000 </r>
       <r>   -1.1213    1.0000 </r>
       <r>   -1.1213    1.0000 </r>
       <r>   -1.0984    1.0000 </r>
       <r>   -1.0984    1.0000 </r>
       <r>   -1.0984    1.0000 </r>
       <r>   -1.0266    1.0000 </r>
       <r>   -1.0266    1.0000 </r>
       <r>   -1.0266    1.0000 </r>
       <r>   -0.2756    1.0000 </r>
       <r>    0.3128    1.0000 </r>
       <r>    0.3247    1.0000 </r>
       <r>    0.3247    1.0000 </r>
       <r>    0.3247    1.0000 </r>
       <r>    0.4198    1.0000 </r>
       <r>    0.4198    1.0000 </r>
       <r>    0.4198    1.0000 </r>
       <r>    0.5134    1.0000 </r>
       <r>    0.6377    1.0000 </r>
       <r>    0.6377    1.0000 </r>
       <r>    0.7047    1.0000 </r>
       <r>    0.7047    1.0000 </r>
       <r>    0.7047    1.0000 </r>
       <r>    1.2389    1.0000 </r>
       <r>    1.2389    1.0000 </r>
       <r>    1.2389    1.0000 </r>
       <r>    1.2406    1.0000 </r>
       <r>    1.2725    1.0000 </r>
       <r>    1.2725    1.0000 </r>
       <r>    1.2818    1.0000 </r>
       <r>    1.2818    1.0000 </r>
       <r>    1.2818    1.0000 </r>
       <r>    1.5294    1.0000 </r>
       <r>    1.5294    1.0000 </r>
       <r>    1.5294    1.0000 </r>
       <r>    3.2190    1.0000 </r>
       <r>    3.2190    1.0000 </r>
       <r>    3.2190    1.0000 </r>
       <r>    3.2278    1.0000 </r>
       <r>    3.2278    1.0000 </r>
       <r>    3.2278    1.0000 </r>
       <r>    3.2362    1.0000 </r>
       <r>    3.2362    1.0000 </r>
       <r>    3.2362    1.0000 </r>
       <r>    3.3766    1.0000 </r>
       <r>    3.3858    1.0000 </r>
       <r>    3.3858    1.0000 </r>
       <r>    3.3858    1.0000 </r>
       <r>    3.5262    1.0000 </r>
       <r>    3.5262    1.0000 </r>
       <r>    3.5262    1.0000 </r>
       <r>    3.5323    1.0000 </r>
       <r>    3.5419    1.0000 </r>
       <r>    3.5419    1.0000 </r>
       <r>    3.5445    1.0000 </r>
       <r>    3.5445    1.0000 </r>
       <r>    3.5445    1.0000 </r>
       <r>    3.9875    1.0000 </r>
       <r>    3.9875    1.0000 </r>
       <r>    3.9875    1.0000 </r>
       <r>    4.6175    1.0000 </r>
       <r>    4.6175    1.0000 </r>
       <r>    4.6206    1.0000 </r>
       <r>    4.6206    1.0000 </r>
       <r>    4.6206    1.0000 </r>
       <r>    4.6617    1.0000 </r>
       <r>    4.6617    1.0000 </r>
       <r>    4.6617    1.0000 </r>
       <r>    4.6632    1.0000 </r>
       <r>    4.6632    1.0000 </r>
       <r>    4.6632    1.0000 </r>
       <r>    4.6655    1.0000 </r>
       <r>    4.6655    1.0000 </r>
       <r>    5.4308    0.0797 </r>
       <r>    5.4308    0.0797 </r>
       <r>    5.4308    0.0797 </r>
       <r>    6.2674    0.0000 </r>
       <r>    6.2674    0.0000 </r>
       <r>    6.2674    0.0000 </r>
       <r>    6.4167    0.0000 </r>
       <r>    6.4167    0.0000 </r>
       <r>    6.4992    0.0000 </r>
       <r>    6.6061    0.0000 </r>
       <r>    6.6061    0.0000 </r>
       <r>    6.6061    0.0000 </r>
       <r>    7.2207    0.0000 </r>
       <r>    7.2207    0.0000 </r>
       <r>    7.2207    0.0000 </r>
       <r>    7.2353    0.0000 </r>
       <r>    7.2353    0.0000 </r>
       <r>    7.2353    0.0000 </r>
       <r>    7.3001    0.0000 </r>
       <r>    7.3311    0.0000 </r>
       <r>    7.3311    0.0000 </r>
       <r>    7.3311    0.0000 </r>
       <r>    7.3461    0.0000 </r>
       <r>    7.3461    0.0000 </r>
       <r>    7.4362    0.0000 </r>
       <r>    7.4449    0.0000 </r>
       <r>    7.4449    0.0000 </r>
       <r>    7.4449    0.0000 </r>
       <r>    7.5360    0.0000 </r>
       <r>    7.5360    0.0000 </r>
       <r>    7.5360    0.0000 </r>
       <r>    7.6440    0.0000 </r>
       <r>    7.7679    0.0000 </r>
       <r>    7.7679    0.0000 </r>
       <r>    7.8033    0.0000 </r>
       <r>    7.8033    0.0000 </r>
       <r>    7.8033    0.0000 </r>
       <r>    8.3735    0.0000 </r>
       <r>    8.3735    0.0000 </r>
       <r>    8.3735    0.0000 </r>
       <r>    8.6460    0.0000 </r>
       <r>    9.1507    0.0000 </r>
      </set>
      <set comment="kpoint 2">
       <r>   -6.1738    1.0000 </r>
       <r>   -5.4785    1.0000 </r>
       <r>   -5.0570    1.0000 </r>
       <r>   -5.0570    1.0000 </r>
       <r>   -4.9719    1.0000 </r>
       <r>   -4.7880    1.0000 </r>
       <r>   -4.7880    1.0000 </r>
       <r>   -4.7104    1.0000 </r>
       <r>   -4.6379    1.0000 </r>
       <r>   -4.6379    1.0000 </r>
       <r>   -4.4678    1.0000 </r>
       <r>   -4.2197    1.0000 </r>
       <r>   -3.8686    1.0000 </r>
       <r>   -3.8686    1.0000 </r>
       <r>   -3.7306    1.0000 </r>
       <r>   -3.6417    1.0000 </r>
       <r>   -3.6417    1.0000 </r>
       <r>   -3.4434    1.0000 </r>
       <r>   -3.0485    1.0000 </r>
       <r>   -3.0408    1.0000 </r>
       <r>   -3.0408    1.0000 </r>
       <r>   -3.0204    1.0000 </r>
       <r>   -3.0204    1.0000 </r>
       <r>   -2.8270    1.0000 </r>
       <r>   -2.7645    1.0000 </r>
       <r>   -2.7645    1.0000 </r>
       <r>   -2.1258    1.0000 </r>
       <r>   -1.3992    1.0000 </r>
       <r>   -1.3992    1.0000 </r>
       <r>   -1.2547    1.0000 </r>
       <r>   -1.1696    1.0000 </r>
       <r>   -1.1470    1.0000 </r>
       <r>   -1.1470    1.0000 </r>
       <r>   -1.0991    1.0000 </r>
       <r>   -1.0991    1.0000 </r>
       <r>   -0.8450    1.0000 </r>
       <r>   -0.7190    1.0000 </r>
       <r>   -0.6155    1.0000 </r>
       <r>   -0.6155    1.0000 </r>
       <r>   -0.3471    1.0000 </r>
       <r>   -0.1269    1.0000 </r>
       <r>   -0.1269    1.0000 </r>
       <r>   -0.0692    1.0000 </r>
       <r>    0.0072    1.0000 </r>
       <r>    0.0072    1.0000 </r>
       <r>    0.6031    1.0000 </r>
       <r>    0.8408    1.0000 </r>
       <r>    0.8408    1.0000 </r>
       <r>    1.0442    1.0000 </r>
       <r>    1.2517    1.0000 </r>
       <r>    1.2517    1.0000 </r>
       <r>    1.4131    1.0000 </r>
       <r>    1.4293    1.0000 </r>
       <r>    1.4406    1.0000 </r>
       <r>    1.4406    1.0000 </r>
       <r>    1.4574    1.0000 </r>
       <r>    1.4574    1.0000 </r>
       <r>    1.4968    1.0000 </r>
       <r>    1.6060    1.0000 </r>
       <r>    1.6060    1.0000 </r>
       <r>    1.6951    1.0000 </r>
       <r>    1.7424    1.0000 </r>
       <r>    1.7424    1.0000 </r>
       <r>    1.7960    1.0000 </r>
       <r>    2.7739    1.0000 </r>
       <r>    2.7739    1.0000 </r>
       <r>    2.8065    1.0000 </r>
       <r>    3.0847    1.0000 </r>
       <r>    3.1326    1.0000 </r>
       <r>    3.1326    1.0000 </r>
       <r>    3.1918    1.0000 </r>
       <r>    3.2212    1.0000 </r>
       <r>    3.2255    1.0000 </r>
       <r>    3.2255    1.0000 </r>
       <r>    3.2414    1.0000 </r>
       <r>    3.2414    1.0000 </r>
       <r>    3.2485    1.0000 </r>
       <r>    3.2969    1.0000 </r>
       <r>    3.2969    1.0000 </r>
       <r>    3.4020    1.0000 </r>
       <r>    3.4020    1.0000 </r>
       <r>    3.4243    1.0000 </r>
       <r>    3.5111    1.0000 </r>
       <r>    3.6840    1.0000 </r>
       <r>    3.6840    1.0000 </r>
       <r>    3.8096    1.0000 </r>
       <r>    3.8096    1.0000 </r>
       <r>    3.8564    1.0000 </r>
       <r>    3.9240    1.0000 </r>
       <r>    4.0809    1.0000 </r>
       <r>    4.0809    1.0000 </r>
       <r>    4.1270    1.0000 </r>
       <r>    4.3267    1.0000 </r>
       <r>    4.3617    1.0000 </r>
       <r>    4.3617    1.0000 </r>
       <r>    4.4209    1.0000 </r>
       <r>    4.4209    1.0000 </r>
       <r>    4.5764    1.0000 </r>
       <r>    4.5764    1.0000 </r>
       <r>    4.6490    1.0000 </r>
       <r>    4.7080    1.0000 </r>
       <r>    4.8219    1.0000 </r>
       <r>    4.8219    1.0000 </r>
       <r>    5.3334    0.9110 </r>
       <r>    5.3334    0.9110 </r>
       <r>    5.7853    0.0000 </r>
       <r>    6.2441    0.0000 </r>
       <r>    6.2441    0.0000 </r>
       <r>    6.6498    0.0000 </r>
       <r>    6.6591    0.0000 </r>
       <r>    6.6591    0.0000 </r>
       <r>    6.9048    0.0000 </r>
       <r>    6.9048    0.0000 </r>
       <r>    6.9470    0.0000 </r>
       <r>    7.0272    0.0000 </r>
       <r>    7.0272    0.0000 </r>
       <r>    7.0370    0.0000 </r>
       <r>    7.3574    0.0000 </r>
       <r>    7.5742    0.0000 </r>
       <r>    7.5814    0.0000 </r>
       <r>    7.5814    0.0000 </r>
       <r>    7.7073    0.0000 </r>
       <r>    7.7399    0.0000 </r>
       <r>    7.7399    0.0000 </r>
       <r>    7.7891    0.0000 </r>
       <r>    7.7907    0.0000 </r>
       <r>    7.8048    0.0000 </r>
       <r>    7.8048    0.0000 </r>
       <r>    7.8870    0.0000 </r>
       <r>    7.8870    0.0000 </r>
       <r>    7.9161    0.0000 </r>
       <r>    7.9503    0.0000 </r>
       <r>    7.9503    0.0000 </r>
       <r>    7.9530    0.0000 </r>
       <r>    8.0666    0.0000 </r>
       <r>    8.0666    0.0000 </r>
       <r>    8.3209    0.0000 </r>
       <r>    8.4763    0.0000 </r>
       <r>    8.4763    0.0000 </r>
       <r>    8.5102    0.0000 </r>
       <r>    8.6273    0.0000 </r>
       <r>    8.6273    0.0000 </r>
       <r>    8.9674    0.0000 </r>
       <r>    8.9677    0.0000 </r>
      </set>
      <set comment="kpoint 3">
       <r>   -5.9424    1.0000 </r>
       <r>   -5.8714    1.0000 </r>
       <r>   -5.0199    1.0000 </r>
       <r>   -5.0199    1.0000 </r>
       <r>   -4.9952    1.0000 </r>
       <r>   -4.9952    1.0000 </r>
       <r>   -4.9926    1.0000 </r>
       <r>   -4.7858    1.0000 </r>
       <r>   -4.2129    1.0000 </r>
       <r>   -4.2129    1.0000 </r>
       <r>   -4.1897    1.0000 </r>
       <r>   -4.1897    1.0000 </r>
       <r>   -4.1876    1.0000 </r>
       <r>   -4.0329    1.0000 </r>
       <r>   -3.8024    1.0000 </r>
       <r>   -3.2678    1.0000 </r>
       <r>   -3.2678    1.0000 </r>
       <r>   -3.2203    1.0000 </r>
       <r>   -3.2203    1.0000 </r>
       <r>   -3.2033    1.0000 </r>
       <r>   -3.1006    1.0000 </r>
       <r>   -3.0434    1.0000 </r>
       <r>   -3.0321    1.0000 </r>
       <r>   -3.0321    1.0000 </r>
       <r>   -3.0032    1.0000 </r>
       <r>   -3.0032    1.0000 </r>
       <r>   -2.1705    1.0000 </r>
       <r>   -1.2538    1.0000 </r>
       <r>   -1.2046    1.0000 </r>
       <r>   -1.1860    1.0000 </r>
       <r>   -1.1860    1.0000 </r>
       <r>   -1.1429    1.0000 </r>
       <r>   -1.1429    1.0000 </r>
       <r>   -1.0266    1.0000 </r>
       <r>   -0.9284    1.0000 </r>
       <r>   -0.9284    1.0000 </r>
       <r>   -0.8614    1.0000 </r>
       <r>   -0.8614    1.0000 </r>
       <r>   -0.8229    1.0000 </r>
       <r>   -0.5026    1.0000 </r>
       <r>   -0.3577    1.0000 </r>
       <r>   -0.3577    1.0000 </r>
       <r>   -0.3311    1.0000 </r>
       <r>   -0.2294    1.0000 </r>
       <r>   -0.2294    1.0000 </r>
       <r>    0.6898    1.0000 </r>
       <r>    1.2291    1.0000 </r>
       <r>    1.2291    1.0000 </r>
       <r>    1.2291    1.0000 </r>
       <r>    1.2928    1.0000 </r>
       <r>    1.2928    1.0000 </r>
       <r>    1.6125    1.0000 </r>
       <r>    1.6394    1.0000 </r>
       <r>    1.6768    1.0000 </r>
       <r>    1.6768    1.0000 </r>
       <r>    1.7948    1.0000 </r>
       <r>    1.7948    1.0000 </r>
       <r>    2.0119    1.0000 </r>
       <r>    2.0286    1.0000 </r>
       <r>    2.0286    1.0000 </r>
       <r>    2.0997    1.0000 </r>
       <r>    2.1548    1.0000 </r>
       <r>    2.1548    1.0000 </r>
       <r>    2.4158    1.0000 </r>
       <r>    2.5991    1.0000 </r>
       <r>    2.5991    1.0000 </r>
       <r>    2.6272    1.0000 </r>
       <r>    2.6272    1.0000 </r>
       <r>    2.7389    1.0000 </r>
       <r>    2.8850    1.0000 </r>
       <r>    2.8959    1.0000 </r>
       <r>    2.8959    1.0000 </r>
       <r>    2.9287    1.0000 </r>
       <r>    2.9287    1.0000 </r>
       <r>    3.0289    1.0000 </r>
       <r>    3.0738    1.0000 </r>
       <r>    3.1097    1.0000 </r>
       <r>    3.1097    1.0000 </r>
       <r>    3.1122    1.0000 </r>
       <r>    3.1625    1.0000 </r>
       <r>    3.3211    1.0000 </r>
       <r>    3.3211    1.0000 </r>
       <r>    3.4327    1.0000 </r>
       <r>    3.5484    1.0000 </r>
       <r>    3.6692    1.0000 </r>
       <r>    3.6692    1.0000 </r>
       <r>    3.6863    1.0000 </r>
       <r>    3.6863    1.0000 </r>
       <r>    3.8924    1.0000 </r>
       <r>    3.9040    1.0000 </r>
       <r>    3.9124    1.0000 </r>
       <r>    3.9124    1.0000 </r>
       <r>    4.1090    1.0000 </r>
       <r>    4.1090    1.0000 </r>
       <r>    4.2984    1.0000 </r>
       <r>    4.3426    1.0000 </r>
       <r>    4.3454    1.0000 </r>
       <r>    4.3454    1.0000 </r>
       <r>    4.3509    1.0000 </r>
       <r>    4.4174    1.0000 </r>
       <r>    4.4174    1.0000 </r>
       <r>    4.9246    1.0000 </r>
       <r>    4.9246    1.0000 </r>
       <r>    5.1818    1.0000 </r>
       <r>    5.2164    1.0000 </r>
       <r>    5.2164    1.0000 </r>
       <r>    6.1865    0.0000 </r>
       <r>    6.1865    0.0000 </r>
       <r>    6.7369    0.0000 </r>
       <r>    6.7369    0.0000 </r>
       <r>    6.7403    0.0000 </r>
       <r>    6.8893    0.0000 </r>
       <r>    6.9038    0.0000 </r>
       <r>    6.9038    0.0000 </r>
       <r>    7.2939    0.0000 </r>
       <r>    7.6272    0.0000 </r>
       <r>    7.6272    0.0000 </r>
       <r>    7.6581    0.0000 </r>
       <r>    7.7238    0.0000 </r>
       <r>    7.7238    0.0000 </r>
       <r>    7.7994    0.0000 </r>
       <r>    8.0339    0.0000 </r>
       <r>    8.0653    0.0000 </r>
       <r>    8.1143    0.0000 </r>
       <r>    8.1143    0.0000 </r>
       <r>    8.1232    0.0000 </r>
       <r>    8.2577    0.0000 </r>
       <r>    8.2577    0.0000 </r>
       <r>    8.4081    0.0000 </r>
       <r>    8.4209    0.0000 </r>
       <r>    8.4209    0.0000 </r>
       <r>    8.4599    0.0000 </r>
       <r>    8.4599    0.0000 </r>
       <r>    8.4837    0.0000 </r>
       <r>    8.8930    0.0000 </r>
       <r>    8.8930    0.0000 </r>
       <r>    8.9435    0.0000 </r>
       <r>    8.9436    0.0000 </r>
       <r>    8.9460    0.0000 </r>
       <r>    9.0047    0.0000 </r>
       <r>    9.0417    0.0000 </r>
       <r>    9.0420    0.0000 </r>
       <r>    9.0779    0.0000 </r>
       <r>    9.0799    0.0000 </r>
      </set>
      <set comment="kpoint 4">
       <r>   -6.1441    1.0000 </r>
       <r>   -5.2758    1.0000 </r>
       <r>   -5.2487    1.0000 </r>
       <r>   -5.2487    1.0000 </r>
       <r>   -5.2080    1.0000 </r>
       <r>   -5.0480    1.0000 </r>
       <r>   -4.4513    1.0000 </r>
       <r>   -4.4304    1.0000 </r>
       <r>   -4.4304    1.0000 </r>
       <r>   -4.3495    1.0000 </r>
       <r>   -4.3267    1.0000 </r>
       <r>   -4.2808    1.0000 </r>
       <r>   -4.2808    1.0000 </r>
       <r>   -4.0135    1.0000 </r>
       <r>   -3.5942    1.0000 </r>
       <r>   -3.5553    1.0000 </r>
       <r>   -3.5553    1.0000 </r>
       <r>   -3.4790    1.0000 </r>
       <r>   -3.3180    1.0000 </r>
       <r>   -3.2626    1.0000 </r>
       <r>   -3.2626    1.0000 </r>
       <r>   -3.2498    1.0000 </r>
       <r>   -2.8649    1.0000 </r>
       <r>   -2.5311    1.0000 </r>
       <r>   -2.4909    1.0000 </r>
       <r>   -2.4909    1.0000 </r>
       <r>   -2.0769    1.0000 </r>
       <r>   -1.6133    1.0000 </r>
       <r>   -1.5667    1.0000 </r>
       <r>   -1.5667    1.0000 </r>
       <r>   -1.3795    1.0000 </r>
       <r>   -1.1117    1.0000 </r>
       <r>   -1.1117    1.0000 </r>
       <r>   -1.0897    1.0000 </r>
       <r>   -0.9240    1.0000 </r>
       <r>   -0.7199    1.0000 </r>
       <r>   -0.5739    1.0000 </r>
       <r>   -0.5395    1.0000 </r>
       <r>   -0.5395    1.0000 </r>
       <r>   -0.4547    1.0000 </r>
       <r>   -0.4036    1.0000 </r>
       <r>   -0.3562    1.0000 </r>
       <r>   -0.3562    1.0000 </r>
       <r>    0.1622    1.0000 </r>
       <r>    0.4602    1.0000 </r>
       <r>    0.5272    1.0000 </r>
       <r>    0.5272    1.0000 </r>
       <r>    1.0795    1.0000 </r>
       <r>    1.2533    1.0000 </r>
       <r>    1.2837    1.0000 </r>
       <r>    1.2837    1.0000 </r>
       <r>    1.4116    1.0000 </r>
       <r>    1.4648    1.0000 </r>
       <r>    1.4683    1.0000 </r>
       <r>    1.4683    1.0000 </r>
       <r>    1.5191    1.0000 </r>
       <r>    1.6033    1.0000 </r>
       <r>    1.6099    1.0000 </r>
       <r>    1.6099    1.0000 </r>
       <r>    1.7680    1.0000 </r>
       <r>    1.7901    1.0000 </r>
       <r>    1.8697    1.0000 </r>
       <r>    1.8697    1.0000 </r>
       <r>    2.0478    1.0000 </r>
       <r>    2.8164    1.0000 </r>
       <r>    2.8323    1.0000 </r>
       <r>    2.8446    1.0000 </r>
       <r>    2.8446    1.0000 </r>
       <r>    2.8736    1.0000 </r>
       <r>    2.8894    1.0000 </r>
       <r>    2.8894    1.0000 </r>
       <r>    3.0151    1.0000 </r>
       <r>    3.0339    1.0000 </r>
       <r>    3.0339    1.0000 </r>
       <r>    3.2417    1.0000 </r>
       <r>    3.2437    1.0000 </r>
       <r>    3.3012    1.0000 </r>
       <r>    3.3012    1.0000 </r>
       <r>    3.5832    1.0000 </r>
       <r>    3.5860    1.0000 </r>
       <r>    3.5860    1.0000 </r>
       <r>    3.6042    1.0000 </r>
       <r>    3.6160    1.0000 </r>
       <r>    3.6273    1.0000 </r>
       <r>    3.7264    1.0000 </r>
       <r>    3.7264    1.0000 </r>
       <r>    3.8861    1.0000 </r>
       <r>    3.8861    1.0000 </r>
       <r>    3.9035    1.0000 </r>
       <r>    3.9699    1.0000 </r>
       <r>    4.0161    1.0000 </r>
       <r>    4.0161    1.0000 </r>
       <r>    4.0589    1.0000 </r>
       <r>    4.0838    1.0000 </r>
       <r>    4.1209    1.0000 </r>
       <r>    4.1209    1.0000 </r>
       <r>    4.2352    1.0000 </r>
       <r>    4.2389    1.0000 </r>
       <r>    4.6410    1.0000 </r>
       <r>    4.6410    1.0000 </r>
       <r>    4.7791    1.0000 </r>
       <r>    4.9531    1.0000 </r>
       <r>    4.9654    1.0000 </r>
       <r>    5.1645    1.0000 </r>
       <r>    5.1645    1.0000 </r>
       <r>    5.7908    0.0000 </r>
       <r>    6.1586    0.0000 </r>
       <r>    6.1586    0.0000 </r>
       <r>    6.3678    0.0000 </r>
       <r>    6.8130    0.0000 </r>
       <r>    6.9430    0.0000 </r>
       <r>    7.0735    0.0000 </r>
       <r>    7.1271    0.0000 </r>
       <r>    7.1606    0.0000 </r>
       <r>    7.1606    0.0000 </r>
       <r>    7.3622    0.0000 </r>
       <r>    7.3622    0.0000 </r>
       <r>    7.4743    0.0000 </r>
       <r>    7.4779    0.0000 </r>
       <r>    7.4914    0.0000 </r>
       <r>    7.5162    0.0000 </r>
       <r>    7.5162    0.0000 </r>
       <r>    7.5248    0.0000 </r>
       <r>    7.8358    0.0000 </r>
       <r>    7.8358    0.0000 </r>
       <r>    7.8542    0.0000 </r>
       <r>    7.9166    0.0000 </r>
       <r>    8.0550    0.0000 </r>
       <r>    8.1048    0.0000 </r>
       <r>    8.1048    0.0000 </r>
       <r>    8.1596    0.0000 </r>
       <r>    8.1596    0.0000 </r>
       <r>    8.1753    0.0000 </r>
       <r>    8.1833    0.0000 </r>
       <r>    8.2164    0.0000 </r>
       <r>    8.2770    0.0000 </r>
       <r>    8.2803    0.0000 </r>
       <r>    8.3337    0.0000 </r>
       <r>    8.3337    0.0000 </r>
       <r>    8.8112    0.0000 </r>
       <r>    8.8692    0.0000 </r>
       <r>    8.8693    0.0000 </r>
       <r>    8.9846    0.0000 </r>
       <r>    8.9927    0.0000 </r>
      </set>
      <set comment="kpoint 5">
       <r>   -5.9417    1.0000 </r>
       <r>   -5.7036    1.0000 </r>
       <r>   -5.4578    1.0000 </r>
       <r>   -5.2685    1.0000 </r>
       <r>   -5.1817    1.0000 </r>
       <r>   -4.7837    1.0000 </r>
       <r>   -4.5844    1.0000 </r>
       <r>   -4.5132    1.0000 </r>
       <r>   -4.3643    1.0000 </r>
       <r>   -4.1845    1.0000 </r>
       <r>   -4.1369    1.0000 </r>
       <r>   -4.0730    1.0000 </r>
       <r>   -4.0015    1.0000 </r>
       <r>   -3.8618    1.0000 </r>
       <r>   -3.7014    1.0000 </r>
       <r>   -3.6902    1.0000 </r>
       <r>   -3.6226    1.0000 </r>
       <r>   -3.5380    1.0000 </r>
       <r>   -3.4592    1.0000 </r>
       <r>   -3.4139    1.0000 </r>
       <r>   -3.3895    1.0000 </r>
       <r>   -2.9947    1.0000 </r>
       <r>   -2.7311    1.0000 </r>
       <r>   -2.6672    1.0000 </r>
       <r>   -2.6020    1.0000 </r>
       <r>   -2.5485    1.0000 </r>
       <r>   -2.1049    1.0000 </r>
       <r>   -1.5148    1.0000 </r>
       <r>   -1.5073    1.0000 </r>
       <r>   -1.4601    1.0000 </r>
       <r>   -1.4520    1.0000 </r>
       <r>   -1.2523    1.0000 </r>
       <r>   -1.1199    1.0000 </r>
       <r>   -1.0387    1.0000 </r>
       <r>   -1.0375    1.0000 </r>
       <r>   -0.9269    1.0000 </r>
       <r>   -0.7630    1.0000 </r>
       <r>   -0.6961    1.0000 </r>
       <r>   -0.6604    1.0000 </r>
       <r>   -0.6395    1.0000 </r>
       <r>   -0.4512    1.0000 </r>
       <r>   -0.3535    1.0000 </r>
       <r>   -0.1066    1.0000 </r>
       <r>    0.0351    1.0000 </r>
       <r>    0.0455    1.0000 </r>
       <r>    0.5020    1.0000 </r>
       <r>    0.7289    1.0000 </r>
       <r>    0.8260    1.0000 </r>
       <r>    1.4127    1.0000 </r>
       <r>    1.6024    1.0000 </r>
       <r>    1.6490    1.0000 </r>
       <r>    1.7152    1.0000 </r>
       <r>    1.7783    1.0000 </r>
       <r>    1.8150    1.0000 </r>
       <r>    1.9440    1.0000 </r>
       <r>    1.9473    1.0000 </r>
       <r>    2.0432    1.0000 </r>
       <r>    2.1489    1.0000 </r>
       <r>    2.1504    1.0000 </r>
       <r>    2.2092    1.0000 </r>
       <r>    2.2190    1.0000 </r>
       <r>    2.2772    1.0000 </r>
       <r>    2.3066    1.0000 </r>
       <r>    2.3922    1.0000 </r>
       <r>    2.3958    1.0000 </r>
       <r>    2.4374    1.0000 </r>
       <r>    2.5200    1.0000 </r>
       <r>    2.6603    1.0000 </r>
       <r>    2.7004    1.0000 </r>
       <r>    2.7126    1.0000 </r>
       <r>    2.7633    1.0000 </r>
       <r>    2.7974    1.0000 </r>
       <r>    2.7978    1.0000 </r>
       <r>    2.8962    1.0000 </r>
       <r>    2.9351    1.0000 </r>
       <r>    3.0272    1.0000 </r>
       <r>    3.0306    1.0000 </r>
       <r>    3.0601    1.0000 </r>
       <r>    3.1465    1.0000 </r>
       <r>    3.1628    1.0000 </r>
       <r>    3.1814    1.0000 </r>
       <r>    3.3768    1.0000 </r>
       <r>    3.4692    1.0000 </r>
       <r>    3.5037    1.0000 </r>
       <r>    3.5426    1.0000 </r>
       <r>    3.5803    1.0000 </r>
       <r>    3.6280    1.0000 </r>
       <r>    3.6975    1.0000 </r>
       <r>    3.7615    1.0000 </r>
       <r>    3.8952    1.0000 </r>
       <r>    3.8979    1.0000 </r>
       <r>    3.9957    1.0000 </r>
       <r>    4.0102    1.0000 </r>
       <r>    4.0321    1.0000 </r>
       <r>    4.0782    1.0000 </r>
       <r>    4.1088    1.0000 </r>
       <r>    4.2123    1.0000 </r>
       <r>    4.2272    1.0000 </r>
       <r>    4.2928    1.0000 </r>
       <r>    4.5413    1.0000 </r>
       <r>    4.5649    1.0000 </r>
       <r>    4.6657    1.0000 </r>
       <r>    4.8096    1.0000 </r>
       <r>    4.8927    1.0000 </r>
       <r>    5.1578    1.0000 </r>
       <r>    5.3154    0.9683 </r>
       <r>    5.9861    0.0000 </r>
       <r>    6.1372    0.0000 </r>
       <r>    6.5343    0.0000 </r>
       <r>    7.0795    0.0000 </r>
       <r>    7.2344    0.0000 </r>
       <r>    7.2412    0.0000 </r>
       <r>    7.2515    0.0000 </r>
       <r>    7.4415    0.0000 </r>
       <r>    7.4688    0.0000 </r>
       <r>    7.5053    0.0000 </r>
       <r>    7.7166    0.0000 </r>
       <r>    7.7770    0.0000 </r>
       <r>    7.8531    0.0000 </r>
       <r>    7.8764    0.0000 </r>
       <r>    7.9381    0.0000 </r>
       <r>    8.0366    0.0000 </r>
       <r>    8.0997    0.0000 </r>
       <r>    8.1626    0.0000 </r>
       <r>    8.2767    0.0000 </r>
       <r>    8.3048    0.0000 </r>
       <r>    8.3132    0.0000 </r>
       <r>    8.3754    0.0000 </r>
       <r>    8.3957    0.0000 </r>
       <r>    8.4295    0.0000 </r>
       <r>    8.5133    0.0000 </r>
       <r>    8.6232    0.0000 </r>
       <r>    8.6738    0.0000 </r>
       <r>    8.6846    0.0000 </r>
       <r>    8.6942    0.0000 </r>
       <r>    8.7299    0.0000 </r>
       <r>    8.7791    0.0000 </r>
       <r>    8.8481    0.0000 </r>
       <r>    8.8699    0.0000 </r>
       <r>    8.9252    0.0000 </r>
       <r>    8.9258    0.0000 </r>
       <r>    8.9555    0.0000 </r>
       <r>    9.0025    0.0000 </r>
       <r>    9.0104    0.0000 </r>
      </set>
      <set comment="kpoint 6">
       <r>   -6.0275    1.0000 </r>
       <r>   -5.5992    1.0000 </r>
       <r>   -5.5079    1.0000 </r>
       <r>   -5.1140    1.0000 </r>
       <r>   -5.0426    1.0000 </r>
       <r>   -4.7289    1.0000 </r>
       <r>   -4.6779    1.0000 </r>
       <r>   -4.6581    1.0000 </r>
       <r>   -4.5602    1.0000 </r>
       <r>   -4.2302    1.0000 </r>
       <r>   -4.1921    1.0000 </r>
       <r>   -4.1663    1.0000 </r>
       <r>   -4.0634    1.0000 </r>
       <r>   -3.9207    1.0000 </r>
       <r>   -3.6119    1.0000 </r>
       <r>   -3.5841    1.0000 </r>
       <r>   -3.5708    1.0000 </r>
       <r>   -3.4305    1.0000 </r>
       <r>   -3.2996    1.0000 </r>
       <r>   -3.2096    1.0000 </r>
       <r>   -3.1368    1.0000 </r>
       <r>   -3.0866    1.0000 </r>
       <r>   -3.0736    1.0000 </r>
       <r>   -2.8773    1.0000 </r>
       <r>   -2.7778    1.0000 </r>
       <r>   -2.4442    1.0000 </r>
       <r>   -2.1003    1.0000 </r>
       <r>   -1.7786    1.0000 </r>
       <r>   -1.2650    1.0000 </r>
       <r>   -1.1890    1.0000 </r>
       <r>   -1.1047    1.0000 </r>
       <r>   -1.0687    1.0000 </r>
       <r>   -1.0599    1.0000 </r>
       <r>   -1.0271    1.0000 </r>
       <r>   -0.9572    1.0000 </r>
       <r>   -0.9068    1.0000 </r>
       <r>   -0.8895    1.0000 </r>
       <r>   -0.8694    1.0000 </r>
       <r>   -0.8627    1.0000 </r>
       <r>   -0.7767    1.0000 </r>
       <r>   -0.7558    1.0000 </r>
       <r>   -0.1427    1.0000 </r>
       <r>    0.1856    1.0000 </r>
       <r>    0.2692    1.0000 </r>
       <r>    0.3209    1.0000 </r>
       <r>    0.3847    1.0000 </r>
       <r>    0.4533    1.0000 </r>
       <r>    0.4975    1.0000 </r>
       <r>    1.3596    1.0000 </r>
       <r>    1.4975    1.0000 </r>
       <r>    1.5141    1.0000 </r>
       <r>    1.7175    1.0000 </r>
       <r>    1.7225    1.0000 </r>
       <r>    1.7395    1.0000 </r>
       <r>    1.7643    1.0000 </r>
       <r>    1.8574    1.0000 </r>
       <r>    1.8793    1.0000 </r>
       <r>    1.9297    1.0000 </r>
       <r>    2.0384    1.0000 </r>
       <r>    2.0803    1.0000 </r>
       <r>    2.1350    1.0000 </r>
       <r>    2.1366    1.0000 </r>
       <r>    2.1706    1.0000 </r>
       <r>    2.2723    1.0000 </r>
       <r>    2.5353    1.0000 </r>
       <r>    2.5748    1.0000 </r>
       <r>    2.5995    1.0000 </r>
       <r>    2.6487    1.0000 </r>
       <r>    2.6588    1.0000 </r>
       <r>    2.7271    1.0000 </r>
       <r>    2.7729    1.0000 </r>
       <r>    2.8197    1.0000 </r>
       <r>    3.0095    1.0000 </r>
       <r>    3.0381    1.0000 </r>
       <r>    3.0515    1.0000 </r>
       <r>    3.1183    1.0000 </r>
       <r>    3.1377    1.0000 </r>
       <r>    3.2050    1.0000 </r>
       <r>    3.2380    1.0000 </r>
       <r>    3.2465    1.0000 </r>
       <r>    3.3501    1.0000 </r>
       <r>    3.3737    1.0000 </r>
       <r>    3.4005    1.0000 </r>
       <r>    3.5740    1.0000 </r>
       <r>    3.5778    1.0000 </r>
       <r>    3.6167    1.0000 </r>
       <r>    3.6791    1.0000 </r>
       <r>    3.7238    1.0000 </r>
       <r>    3.8060    1.0000 </r>
       <r>    3.8104    1.0000 </r>
       <r>    3.9436    1.0000 </r>
       <r>    4.0084    1.0000 </r>
       <r>    4.0273    1.0000 </r>
       <r>    4.2860    1.0000 </r>
       <r>    4.3231    1.0000 </r>
       <r>    4.3418    1.0000 </r>
       <r>    4.3684    1.0000 </r>
       <r>    4.3927    1.0000 </r>
       <r>    4.4075    1.0000 </r>
       <r>    4.5065    1.0000 </r>
       <r>    4.5530    1.0000 </r>
       <r>    4.5741    1.0000 </r>
       <r>    4.6322    1.0000 </r>
       <r>    4.7860    1.0000 </r>
       <r>    5.2996    0.9894 </r>
       <r>    5.4696    0.0061 </r>
       <r>    5.9500    0.0000 </r>
       <r>    6.2335    0.0000 </r>
       <r>    6.6764    0.0000 </r>
       <r>    6.9762    0.0000 </r>
       <r>    6.9956    0.0000 </r>
       <r>    7.1145    0.0000 </r>
       <r>    7.2461    0.0000 </r>
       <r>    7.4164    0.0000 </r>
       <r>    7.4189    0.0000 </r>
       <r>    7.4917    0.0000 </r>
       <r>    7.5223    0.0000 </r>
       <r>    7.6120    0.0000 </r>
       <r>    7.6348    0.0000 </r>
       <r>    7.6369    0.0000 </r>
       <r>    7.6703    0.0000 </r>
       <r>    7.8090    0.0000 </r>
       <r>    7.8606    0.0000 </r>
       <r>    8.1148    0.0000 </r>
       <r>    8.1290    0.0000 </r>
       <r>    8.2706    0.0000 </r>
       <r>    8.2851    0.0000 </r>
       <r>    8.2964    0.0000 </r>
       <r>    8.3141    0.0000 </r>
       <r>    8.3302    0.0000 </r>
       <r>    8.3364    0.0000 </r>
       <r>    8.3773    0.0000 </r>
       <r>    8.3811    0.0000 </r>
       <r>    8.4143    0.0000 </r>
       <r>    8.5758    0.0000 </r>
       <r>    8.6585    0.0000 </r>
       <r>    8.7121    0.0000 </r>
       <r>    8.8783    0.0000 </r>
       <r>    8.9050    0.0000 </r>
       <r>    8.9286    0.0000 </r>
       <r>    8.9643    0.0000 </r>
       <r>    8.9870    0.0000 </r>
       <r>    8.9949    0.0000 </r>
       <r>    9.0602    0.0000 </r>
      </set>
      <set comment="kpoint 7">
       <r>   -5.8329    1.0000 </r>
       <r>   -5.7417    1.0000 </r>
       <r>   -5.3737    1.0000 </r>
       <r>   -5.3563    1.0000 </r>
       <r>   -5.3563    1.0000 </r>
       <r>   -5.1541    1.0000 </r>
       <r>   -4.0842    1.0000 </r>
       <r>   -4.0252    1.0000 </r>
       <r>   -4.0252    1.0000 </r>
       <r>   -3.9918    1.0000 </r>
       <r>   -3.9844    1.0000 </r>
       <r>   -3.9713    1.0000 </r>
       <r>   -3.9713    1.0000 </r>
       <r>   -3.9586    1.0000 </r>
       <r>   -3.8408    1.0000 </r>
       <r>   -3.8294    1.0000 </r>
       <r>   -3.8294    1.0000 </r>
       <r>   -3.8100    1.0000 </r>
       <r>   -3.8021    1.0000 </r>
       <r>   -3.8021    1.0000 </r>
       <r>   -3.7581    1.0000 </r>
       <r>   -3.0044    1.0000 </r>
       <r>   -2.1500    1.0000 </r>
       <r>   -2.1497    1.0000 </r>
       <r>   -2.0605    1.0000 </r>
       <r>   -2.0581    1.0000 </r>
       <r>   -2.0581    1.0000 </r>
       <r>   -2.0565    1.0000 </r>
       <r>   -1.9948    1.0000 </r>
       <r>   -1.9710    1.0000 </r>
       <r>   -1.9710    1.0000 </r>
       <r>   -1.3816    1.0000 </r>
       <r>   -0.9570    1.0000 </r>
       <r>   -0.9480    1.0000 </r>
       <r>   -0.9480    1.0000 </r>
       <r>   -0.9234    1.0000 </r>
       <r>   -0.8501    1.0000 </r>
       <r>   -0.8501    1.0000 </r>
       <r>   -0.8479    1.0000 </r>
       <r>   -0.4747    1.0000 </r>
       <r>   -0.0199    1.0000 </r>
       <r>   -0.0048    1.0000 </r>
       <r>   -0.0048    1.0000 </r>
       <r>    0.0195    1.0000 </r>
       <r>    0.0466    1.0000 </r>
       <r>    0.1430    1.0000 </r>
       <r>    0.1430    1.0000 </r>
       <r>    1.3681    1.0000 </r>
       <r>    1.9269    1.0000 </r>
       <r>    1.9487    1.0000 </r>
       <r>    1.9487    1.0000 </r>
       <r>    2.0014    1.0000 </r>
       <r>    2.0016    1.0000 </r>
       <r>    2.0143    1.0000 </r>
       <r>    2.0143    1.0000 </r>
       <r>    2.0241    1.0000 </r>
       <r>    2.0645    1.0000 </r>
       <r>    2.0706    1.0000 </r>
       <r>    2.0706    1.0000 </r>
       <r>    2.0902    1.0000 </r>
       <r>    2.1002    1.0000 </r>
       <r>    2.1002    1.0000 </r>
       <r>    2.1035    1.0000 </r>
       <r>    2.1059    1.0000 </r>
       <r>    2.3214    1.0000 </r>
       <r>    2.3214    1.0000 </r>
       <r>    2.3302    1.0000 </r>
       <r>    2.5755    1.0000 </r>
       <r>    2.8227    1.0000 </r>
       <r>    2.8227    1.0000 </r>
       <r>    2.8786    1.0000 </r>
       <r>    2.8786    1.0000 </r>
       <r>    2.8804    1.0000 </r>
       <r>    2.8805    1.0000 </r>
       <r>    2.9996    1.0000 </r>
       <r>    2.9996    1.0000 </r>
       <r>    3.0280    1.0000 </r>
       <r>    3.1515    1.0000 </r>
       <r>    3.2937    1.0000 </r>
       <r>    3.2937    1.0000 </r>
       <r>    3.3016    1.0000 </r>
       <r>    3.3566    1.0000 </r>
       <r>    3.3566    1.0000 </r>
       <r>    3.3626    1.0000 </r>
       <r>    3.3644    1.0000 </r>
       <r>    3.3785    1.0000 </r>
       <r>    3.4649    1.0000 </r>
       <r>    3.4985    1.0000 </r>
       <r>    3.4985    1.0000 </r>
       <r>    3.5589    1.0000 </r>
       <r>    3.8373    1.0000 </r>
       <r>    3.8392    1.0000 </r>
       <r>    3.8889    1.0000 </r>
       <r>    3.8889    1.0000 </r>
       <r>    3.8917    1.0000 </r>
       <r>    3.9078    1.0000 </r>
       <r>    4.2312    1.0000 </r>
       <r>    4.2312    1.0000 </r>
       <r>    4.4687    1.0000 </r>
       <r>    4.4687    1.0000 </r>
       <r>    4.5944    1.0000 </r>
       <r>    4.8285    1.0000 </r>
       <r>    4.8285    1.0000 </r>
       <r>    4.9882    1.0000 </r>
       <r>    5.0693    1.0000 </r>
       <r>    5.0864    1.0000 </r>
       <r>    6.0738    0.0000 </r>
       <r>    6.0738    0.0000 </r>
       <r>    6.4480    0.0000 </r>
       <r>    6.4778    0.0000 </r>
       <r>    7.3781    0.0000 </r>
       <r>    7.4527    0.0000 </r>
       <r>    7.6931    0.0000 </r>
       <r>    7.6931    0.0000 </r>
       <r>    7.7188    0.0000 </r>
       <r>    7.7255    0.0000 </r>
       <r>    7.7255    0.0000 </r>
       <r>    7.7268    0.0000 </r>
       <r>    8.0438    0.0000 </r>
       <r>    8.0747    0.0000 </r>
       <r>    8.4140    0.0000 </r>
       <r>    8.4308    0.0000 </r>
       <r>    8.4545    0.0000 </r>
       <r>    8.4566    0.0000 </r>
       <r>    8.4566    0.0000 </r>
       <r>    8.4660    0.0000 </r>
       <r>    8.4660    0.0000 </r>
       <r>    8.4662    0.0000 </r>
       <r>    8.5124    0.0000 </r>
       <r>    8.5874    0.0000 </r>
       <r>    8.6006    0.0000 </r>
       <r>    8.6006    0.0000 </r>
       <r>    8.6104    0.0000 </r>
       <r>    8.6290    0.0000 </r>
       <r>    8.6708    0.0000 </r>
       <r>    8.6708    0.0000 </r>
       <r>    8.6992    0.0000 </r>
       <r>    8.6992    0.0000 </r>
       <r>    9.0235    0.0000 </r>
       <r>    9.0779    0.0000 </r>
       <r>    9.2128    0.0000 </r>
       <r>    9.2191    0.0000 </r>
       <r>    9.3087    0.0000 </r>
       <r>    9.3113    0.0000 </r>
      </set>
      <set comment="kpoint 8">
       <r>   -5.7396    1.0000 </r>
       <r>   -5.6886    1.0000 </r>
       <r>   -5.6840    1.0000 </r>
       <r>   -5.5488    1.0000 </r>
       <r>   -4.7986    1.0000 </r>
       <r>   -4.7975    1.0000 </r>
       <r>   -4.7663    1.0000 </r>
       <r>   -4.6222    1.0000 </r>
       <r>   -3.9830    1.0000 </r>
       <r>   -3.9774    1.0000 </r>
       <r>   -3.9711    1.0000 </r>
       <r>   -3.9623    1.0000 </r>
       <r>   -3.9389    1.0000 </r>
       <r>   -3.9207    1.0000 </r>
       <r>   -3.9093    1.0000 </r>
       <r>   -3.8284    1.0000 </r>
       <r>   -3.7558    1.0000 </r>
       <r>   -3.7280    1.0000 </r>
       <r>   -3.7017    1.0000 </r>
       <r>   -3.3513    1.0000 </r>
       <r>   -3.0970    1.0000 </r>
       <r>   -3.0836    1.0000 </r>
       <r>   -3.0159    1.0000 </r>
       <r>   -2.6720    1.0000 </r>
       <r>   -2.1354    1.0000 </r>
       <r>   -2.1273    1.0000 </r>
       <r>   -2.0575    1.0000 </r>
       <r>   -2.0568    1.0000 </r>
       <r>   -1.9513    1.0000 </r>
       <r>   -1.6211    1.0000 </r>
       <r>   -1.1573    1.0000 </r>
       <r>   -1.1556    1.0000 </r>
       <r>   -1.1330    1.0000 </r>
       <r>   -1.1285    1.0000 </r>
       <r>   -0.9890    1.0000 </r>
       <r>   -0.9788    1.0000 </r>
[...]
        <r>  0.0004  0.0013  0.0000 </r>
        <r>  0.0024  0.0032  0.0000 </r>
        <r>  0.0003  0.0031  0.0000 </r>
        <r>  0.0004  0.0013  0.0000 </r>
        <r>  0.0012  0.0114  0.0000 </r>
        <r>  0.0000  0.0027  0.0000 </r>
        <r>  0.0003  0.0031  0.0000 </r>
        <r>  0.0012  0.0114  0.0000 </r>
        <r>  0.0003  0.0031  0.0000 </r>
       </set>
       <set comment="band 138">
        <r>  0.0002  0.0030  0.0000 </r>
        <r>  0.0002  0.0030  0.0000 </r>
        <r>  0.0001  0.0057  0.0000 </r>
        <r>  0.0004  0.0076  0.0000 </r>
        <r>  0.0002  0.0030  0.0000 </r>
        <r>  0.0001  0.0057  0.0000 </r>
        <r>  0.0002  0.0030  0.0000 </r>
        <r>  0.0005  0.0073  0.0000 </r>
        <r>  0.0002  0.0030  0.0000 </r>
        <r>  0.0004  0.0076  0.0000 </r>
        <r>  0.0001  0.0057  0.0000 </r>
        <r>  0.0004  0.0076  0.0000 </r>
        <r>  0.0004  0.0076  0.0000 </r>
        <r>  0.0002  0.0032  0.0000 </r>
        <r>  0.0002  0.0030  0.0000 </r>
        <r>  0.0000  0.0002  0.0000 </r>
        <r>  0.0002  0.0032  0.0000 </r>
        <r>  0.0002  0.0030  0.0000 </r>
        <r>  0.0001  0.0057  0.0000 </r>
        <r>  0.0005  0.0073  0.0000 </r>
        <r>  0.0002  0.0030  0.0000 </r>
        <r>  0.0002  0.0032  0.0000 </r>
        <r>  0.0000  0.0002  0.0000 </r>
        <r>  0.0005  0.0073  0.0000 </r>
        <r>  0.0002  0.0032  0.0000 </r>
        <r>  0.0005  0.0073  0.0000 </r>
        <r>  0.0000  0.0002  0.0000 </r>
        <r>  0.0010  0.0032  0.0000 </r>
        <r>  0.0010  0.0032  0.0000 </r>
        <r>  0.0005  0.0038  0.0000 </r>
        <r>  0.0007  0.0020  0.0000 </r>
        <r>  0.0010  0.0032  0.0000 </r>
        <r>  0.0005  0.0038  0.0000 </r>
        <r>  0.0010  0.0032  0.0000 </r>
        <r>  0.0007  0.0011  0.0000 </r>
        <r>  0.0010  0.0032  0.0000 </r>
        <r>  0.0007  0.0020  0.0000 </r>
        <r>  0.0005  0.0038  0.0000 </r>
        <r>  0.0007  0.0020  0.0000 </r>
        <r>  0.0007  0.0020  0.0000 </r>
        <r>  0.0033  0.0022  0.0000 </r>
        <r>  0.0010  0.0032  0.0000 </r>
        <r>  0.0000  0.0001  0.0000 </r>
        <r>  0.0033  0.0022  0.0000 </r>
        <r>  0.0010  0.0032  0.0000 </r>
        <r>  0.0005  0.0038  0.0000 </r>
        <r>  0.0007  0.0011  0.0000 </r>
        <r>  0.0010  0.0032  0.0000 </r>
        <r>  0.0033  0.0022  0.0000 </r>
        <r>  0.0000  0.0001  0.0000 </r>
        <r>  0.0007  0.0011  0.0000 </r>
        <r>  0.0033  0.0022  0.0000 </r>
        <r>  0.0007  0.0011  0.0000 </r>
       </set>
       <set comment="band 139">
        <r>  0.0002  0.0046  0.0000 </r>
        <r>  0.0002  0.0046  0.0000 </r>
        <r>  0.0020  0.0019  0.0000 </r>
        <r>  0.0021  0.0023  0.0000 </r>
        <r>  0.0002  0.0046  0.0000 </r>
        <r>  0.0020  0.0019  0.0000 </r>
        <r>  0.0002  0.0046  0.0000 </r>
        <r>  0.0026  0.0011  0.0000 </r>
        <r>  0.0002  0.0046  0.0000 </r>
        <r>  0.0021  0.0023  0.0000 </r>
        <r>  0.0020  0.0019  0.0000 </r>
        <r>  0.0021  0.0023  0.0000 </r>
        <r>  0.0021  0.0023  0.0000 </r>
        <r>  0.0000  0.0039  0.0000 </r>
        <r>  0.0002  0.0046  0.0000 </r>
        <r>  0.0000  0.0011  0.0000 </r>
        <r>  0.0000  0.0039  0.0000 </r>
        <r>  0.0002  0.0046  0.0000 </r>
        <r>  0.0020  0.0019  0.0000 </r>
        <r>  0.0025  0.0011  0.0000 </r>
        <r>  0.0002  0.0046  0.0000 </r>
        <r>  0.0000  0.0039  0.0000 </r>
        <r>  0.0000  0.0011  0.0000 </r>
        <r>  0.0025  0.0011  0.0000 </r>
        <r>  0.0000  0.0039  0.0000 </r>
        <r>  0.0025  0.0011  0.0000 </r>
        <r>  0.0004  0.0000  0.0000 </r>
        <r>  0.0000  0.0079  0.0000 </r>
        <r>  0.0000  0.0078  0.0000 </r>
        <r>  0.0000  0.0024  0.0000 </r>
        <r>  0.0000  0.0013  0.0000 </r>
        <r>  0.0000  0.0079  0.0000 </r>
        <r>  0.0000  0.0024  0.0000 </r>
        <r>  0.0000  0.0079  0.0000 </r>
        <r>  0.0001  0.0026  0.0000 </r>
        <r>  0.0000  0.0079  0.0000 </r>
        <r>  0.0000  0.0013  0.0000 </r>
        <r>  0.0000  0.0024  0.0000 </r>
        <r>  0.0000  0.0013  0.0000 </r>
        <r>  0.0000  0.0013  0.0000 </r>
        <r>  0.0000  0.0097  0.0000 </r>
        <r>  0.0000  0.0079  0.0000 </r>
        <r>  0.0016  0.0001  0.0000 </r>
        <r>  0.0000  0.0098  0.0000 </r>
        <r>  0.0000  0.0079  0.0000 </r>
        <r>  0.0000  0.0024  0.0000 </r>
        <r>  0.0001  0.0026  0.0000 </r>
        <r>  0.0000  0.0079  0.0000 </r>
        <r>  0.0000  0.0097  0.0000 </r>
        <r>  0.0016  0.0001  0.0000 </r>
        <r>  0.0001  0.0026  0.0000 </r>
        <r>  0.0000  0.0097  0.0000 </r>
        <r>  0.0001  0.0026  0.0000 </r>
       </set>
       <set comment="band 140">
        <r>  0.0003  0.0057  0.0000 </r>
        <r>  0.0003  0.0057  0.0000 </r>
        <r>  0.0000  0.0045  0.0000 </r>
        <r>  0.0002  0.0064  0.0000 </r>
        <r>  0.0003  0.0057  0.0000 </r>
        <r>  0.0000  0.0045  0.0000 </r>
        <r>  0.0003  0.0057  0.0000 </r>
        <r>  0.0002  0.0036  0.0000 </r>
        <r>  0.0003  0.0057  0.0000 </r>
        <r>  0.0002  0.0064  0.0000 </r>
        <r>  0.0000  0.0045  0.0000 </r>
        <r>  0.0002  0.0064  0.0000 </r>
        <r>  0.0002  0.0064  0.0000 </r>
        <r>  0.0006  0.0099  0.0000 </r>
        <r>  0.0003  0.0057  0.0000 </r>
        <r>  0.0000  0.0003  0.0000 </r>
        <r>  0.0006  0.0098  0.0000 </r>
        <r>  0.0003  0.0057  0.0000 </r>
        <r>  0.0000  0.0045  0.0000 </r>
        <r>  0.0002  0.0036  0.0000 </r>
        <r>  0.0003  0.0057  0.0000 </r>
        <r>  0.0006  0.0099  0.0000 </r>
        <r>  0.0000  0.0003  0.0000 </r>
        <r>  0.0002  0.0036  0.0000 </r>
        <r>  0.0006  0.0099  0.0000 </r>
        <r>  0.0002  0.0036  0.0000 </r>
        <r>  0.0044  0.0000  0.0000 </r>
        <r>  0.0006  0.0024  0.0000 </r>
        <r>  0.0006  0.0025  0.0000 </r>
        <r>  0.0020  0.0023  0.0000 </r>
        <r>  0.0015  0.0025  0.0000 </r>
        <r>  0.0006  0.0024  0.0000 </r>
        <r>  0.0020  0.0023  0.0000 </r>
        <r>  0.0006  0.0024  0.0000 </r>
        <r>  0.0016  0.0036  0.0000 </r>
        <r>  0.0006  0.0024  0.0000 </r>
        <r>  0.0014  0.0025  0.0000 </r>
        <r>  0.0020  0.0023  0.0000 </r>
        <r>  0.0015  0.0025  0.0000 </r>
        <r>  0.0015  0.0025  0.0000 </r>
        <r>  0.0004  0.0022  0.0000 </r>
        <r>  0.0006  0.0024  0.0000 </r>
        <r>  0.0041  0.0000  0.0000 </r>
        <r>  0.0004  0.0022  0.0000 </r>
        <r>  0.0006  0.0025  0.0000 </r>
        <r>  0.0020  0.0023  0.0000 </r>
        <r>  0.0016  0.0036  0.0000 </r>
        <r>  0.0006  0.0025  0.0000 </r>
        <r>  0.0004  0.0022  0.0000 </r>
        <r>  0.0041  0.0000  0.0000 </r>
        <r>  0.0016  0.0036  0.0000 </r>
        <r>  0.0004  0.0022  0.0000 </r>
        <r>  0.0016  0.0036  0.0000 </r>
       </set>
       <set comment="band 141">
        <r>  0.0009  0.0016  0.0000 </r>
        <r>  0.0010  0.0016  0.0000 </r>
        <r>  0.0001  0.0067  0.0000 </r>
        <r>  0.0001  0.0082  0.0000 </r>
        <r>  0.0010  0.0016  0.0000 </r>
        <r>  0.0000  0.0067  0.0000 </r>
        <r>  0.0009  0.0016  0.0000 </r>
        <r>  0.0003  0.0075  0.0000 </r>
        <r>  0.0009  0.0016  0.0000 </r>
        <r>  0.0001  0.0082  0.0000 </r>
        <r>  0.0000  0.0068  0.0000 </r>
        <r>  0.0001  0.0082  0.0000 </r>
        <r>  0.0001  0.0082  0.0000 </r>
        <r>  0.0013  0.0019  0.0000 </r>
        <r>  0.0009  0.0016  0.0000 </r>
        <r>  0.0001  0.0003  0.0000 </r>
        <r>  0.0013  0.0019  0.0000 </r>
        <r>  0.0009  0.0016  0.0000 </r>
        <r>  0.0001  0.0067  0.0000 </r>
        <r>  0.0003  0.0075  0.0000 </r>
        <r>  0.0009  0.0016  0.0000 </r>
        <r>  0.0014  0.0019  0.0000 </r>
        <r>  0.0000  0.0003  0.0000 </r>
        <r>  0.0003  0.0075  0.0000 </r>
        <r>  0.0014  0.0019  0.0000 </r>
        <r>  0.0003  0.0075  0.0000 </r>
        <r>  0.0000  0.0135  0.0000 </r>
        <r>  0.0001  0.0016  0.0000 </r>
        <r>  0.0001  0.0016  0.0000 </r>
        <r>  0.0028  0.0022  0.0000 </r>
        <r>  0.0031  0.0016  0.0000 </r>
        <r>  0.0001  0.0016  0.0000 </r>
        <r>  0.0028  0.0022  0.0000 </r>
        <r>  0.0001  0.0016  0.0000 </r>
        <r>  0.0030  0.0019  0.0000 </r>
        <r>  0.0001  0.0015  0.0000 </r>
        <r>  0.0031  0.0016  0.0000 </r>
        <r>  0.0028  0.0022  0.0000 </r>
        <r>  0.0031  0.0016  0.0000 </r>
        <r>  0.0031  0.0016  0.0000 </r>
        <r>  0.0000  0.0014  0.0000 </r>
        <r>  0.0001  0.0016  0.0000 </r>
        <r>  0.0000  0.0066  0.0000 </r>
        <r>  0.0000  0.0014  0.0000 </r>
        <r>  0.0001  0.0015  0.0000 </r>
        <r>  0.0028  0.0022  0.0000 </r>
        <r>  0.0030  0.0019  0.0000 </r>
        <r>  0.0001  0.0016  0.0000 </r>
        <r>  0.0000  0.0014  0.0000 </r>
        <r>  0.0000  0.0066  0.0000 </r>
        <r>  0.0030  0.0019  0.0000 </r>
        <r>  0.0000  0.0015  0.0000 </r>
        <r>  0.0030  0.0019  0.0000 </r>
       </set>
       <set comment="band 142">
        <r>  0.0011  0.0051  0.0000 </r>
        <r>  0.0012  0.0052  0.0000 </r>
        <r>  0.0002  0.0068  0.0000 </r>
        <r>  0.0003  0.0012  0.0000 </r>
        <r>  0.0012  0.0052  0.0000 </r>
        <r>  0.0002  0.0068  0.0000 </r>
        <r>  0.0012  0.0052  0.0000 </r>
        <r>  0.0002  0.0095  0.0000 </r>
        <r>  0.0011  0.0053  0.0000 </r>
        <r>  0.0003  0.0012  0.0000 </r>
        <r>  0.0002  0.0068  0.0000 </r>
        <r>  0.0003  0.0011  0.0000 </r>
        <r>  0.0002  0.0012  0.0000 </r>
        <r>  0.0002  0.0118  0.0000 </r>
        <r>  0.0012  0.0052  0.0000 </r>
        <r>  0.0006  0.0001  0.0000 </r>
        <r>  0.0002  0.0117  0.0000 </r>
        <r>  0.0012  0.0052  0.0000 </r>
        <r>  0.0002  0.0068  0.0000 </r>
        <r>  0.0002  0.0096  0.0000 </r>
        <r>  0.0012  0.0052  0.0000 </r>
        <r>  0.0001  0.0117  0.0000 </r>
        <r>  0.0006  0.0001  0.0000 </r>
        <r>  0.0002  0.0096  0.0000 </r>
        <r>  0.0002  0.0117  0.0000 </r>
        <r>  0.0002  0.0096  0.0000 </r>
        <r>  0.0000  0.0003  0.0000 </r>
        <r>  0.0020  0.0026  0.0000 </r>
        <r>  0.0020  0.0026  0.0000 </r>
        <r>  0.0012  0.0002  0.0000 </r>
        <r>  0.0042  0.0028  0.0000 </r>
        <r>  0.0020  0.0026  0.0000 </r>
        <r>  0.0012  0.0002  0.0000 </r>
        <r>  0.0020  0.0026  0.0000 </r>
        <r>  0.0055  0.0007  0.0000 </r>
        <r>  0.0020  0.0026  0.0000 </r>
        <r>  0.0041  0.0028  0.0000 </r>
        <r>  0.0012  0.0002  0.0000 </r>
        <r>  0.0041  0.0028  0.0000 </r>
        <r>  0.0041  0.0028  0.0000 </r>
        <r>  0.0007  0.0006  0.0000 </r>
        <r>  0.0020  0.0026  0.0000 </r>
        <r>  0.0000  0.0011  0.0000 </r>
        <r>  0.0006  0.0006  0.0000 </r>
        <r>  0.0019  0.0027  0.0000 </r>
        <r>  0.0012  0.0002  0.0000 </r>
        <r>  0.0055  0.0007  0.0000 </r>
        <r>  0.0020  0.0026  0.0000 </r>
        <r>  0.0006  0.0006  0.0000 </r>
        <r>  0.0000  0.0011  0.0000 </r>
        <r>  0.0055  0.0008  0.0000 </r>
        <r>  0.0006  0.0006  0.0000 </r>
        <r>  0.0055  0.0008  0.0000 </r>
       </set>
       <set comment="band 143">
        <r>  0.0018  0.0013  0.0000 </r>
        <r>  0.0018  0.0013  0.0000 </r>
        <r>  0.0035  0.0010  0.0000 </r>
        <r>  0.0067  0.0003  0.0000 </r>
        <r>  0.0018  0.0013  0.0000 </r>
        <r>  0.0035  0.0010  0.0000 </r>
        <r>  0.0019  0.0012  0.0000 </r>
        <r>  0.0018  0.0010  0.0000 </r>
        <r>  0.0020  0.0013  0.0000 </r>
        <r>  0.0067  0.0003  0.0000 </r>
        <r>  0.0036  0.0010  0.0000 </r>
        <r>  0.0070  0.0003  0.0000 </r>
        <r>  0.0069  0.0003  0.0000 </r>
        <r>  0.0026  0.0016  0.0000 </r>
        <r>  0.0020  0.0013  0.0000 </r>
        <r>  0.0000  0.0000  0.0000 </r>
        <r>  0.0024  0.0017  0.0000 </r>
        <r>  0.0020  0.0013  0.0000 </r>
        <r>  0.0035  0.0010  0.0000 </r>
        <r>  0.0018  0.0010  0.0000 </r>
        <r>  0.0020  0.0013  0.0000 </r>
        <r>  0.0024  0.0016  0.0000 </r>
        <r>  0.0000  0.0000  0.0000 </r>
        <r>  0.0017  0.0010  0.0000 </r>
        <r>  0.0025  0.0017  0.0000 </r>
        <r>  0.0017  0.0010  0.0000 </r>
        <r>  0.0000  0.0071  0.0000 </r>
        <r>  0.0001  0.0058  0.0000 </r>
        <r>  0.0001  0.0056  0.0000 </r>
        <r>  0.0000  0.0053  0.0000 </r>
        <r>  0.0000  0.0116  0.0000 </r>
        <r>  0.0001  0.0056  0.0000 </r>
        <r>  0.0000  0.0053  0.0000 </r>
        <r>  0.0000  0.0059  0.0000 </r>
        <r>  0.0000  0.0110  0.0000 </r>
        <r>  0.0001  0.0056  0.0000 </r>
        <r>  0.0000  0.0116  0.0000 </r>
        <r>  0.0000  0.0053  0.0000 </r>
        <r>  0.0000  0.0116  0.0000 </r>
        <r>  0.0000  0.0117  0.0000 </r>
        <r>  0.0020  0.0023  0.0000 </r>
        <r>  0.0001  0.0057  0.0000 </r>
        <r>  0.0000  0.0067  0.0000 </r>
        <r>  0.0021  0.0021  0.0000 </r>
        <r>  0.0000  0.0060  0.0000 </r>
        <r>  0.0000  0.0052  0.0000 </r>
        <r>  0.0000  0.0110  0.0000 </r>
        <r>  0.0001  0.0059  0.0000 </r>
        <r>  0.0021  0.0021  0.0000 </r>
        <r>  0.0000  0.0067  0.0000 </r>
        <r>  0.0000  0.0106  0.0000 </r>
        <r>  0.0022  0.0022  0.0000 </r>
        <r>  0.0000  0.0108  0.0000 </r>
       </set>
       <set comment="band 144">
        <r>  0.0049  0.0025  0.0000 </r>
        <r>  0.0024  0.0019  0.0000 </r>
        <r>  0.0005  0.0022  0.0000 </r>
        <r>  0.0000  0.0039  0.0000 </r>
        <r>  0.0040  0.0010  0.0000 </r>
        <r>  0.0002  0.0030  0.0000 </r>
        <r>  0.0049  0.0008  0.0000 </r>
        <r>  0.0003  0.0010  0.0000 </r>
        <r>  0.0066  0.0016  0.0000 </r>
        <r>  0.0002  0.0031  0.0000 </r>
        <r>  0.0002  0.0035  0.0000 </r>
        <r>  0.0002  0.0031  0.0000 </r>
        <r>  0.0007  0.0019  0.0000 </r>
        <r>  0.0045  0.0015  0.0000 </r>
        <r>  0.0047  0.0017  0.0000 </r>
        <r>  0.0011  0.0021  0.0000 </r>
        <r>  0.0066  0.0011  0.0000 </r>
        <r>  0.0032  0.0010  0.0000 </r>
        <r>  0.0009  0.0042  0.0000 </r>
        <r>  0.0002  0.0007  0.0000 </r>
        <r>  0.0035  0.0011  0.0000 </r>
        <r>  0.0054  0.0009  0.0000 </r>
        <r>  0.0004  0.0013  0.0000 </r>
        <r>  0.0000  0.0008  0.0000 </r>
        <r>  0.0078  0.0026  0.0000 </r>
        <r>  0.0001  0.0005  0.0000 </r>
        <r>  0.0000  0.0076  0.0000 </r>
        <r>  0.0005  0.0029  0.0000 </r>
        <r>  0.0011  0.0025  0.0000 </r>
        <r>  0.0004  0.0084  0.0000 </r>
        <r>  0.0001  0.0038  0.0000 </r>
        <r>  0.0007  0.0040  0.0000 </r>
        <r>  0.0005  0.0050  0.0000 </r>
        <r>  0.0007  0.0057  0.0000 </r>
        <r>  0.0001  0.0103  0.0000 </r>
        <r>  0.0008  0.0056  0.0000 </r>
        <r>  0.0000  0.0039  0.0000 </r>
        <r>  0.0018  0.0061  0.0000 </r>
        <r>  0.0004  0.0032  0.0000 </r>
        <r>  0.0000  0.0027  0.0000 </r>
        <r>  0.0006  0.0042  0.0000 </r>
        <r>  0.0006  0.0040  0.0000 </r>
        <r>  0.0001  0.0123  0.0000 </r>
        <r>  0.0017  0.0046  0.0000 </r>
        <r>  0.0005  0.0037  0.0000 </r>
        <r>  0.0018  0.0043  0.0000 </r>
        <r>  0.0001  0.0094  0.0000 </r>
        <r>  0.0000  0.0026  0.0000 </r>
        <r>  0.0015  0.0043  0.0000 </r>
        <r>  0.0003  0.0162  0.0000 </r>
        <r>  0.0001  0.0089  0.0000 </r>
        <r>  0.0009  0.0039  0.0000 </r>
        <r>  0.0003  0.0118  0.0000 </r>
       </set>
      </set>
     </set>
    </set>
   </array>
  </projected>
 </calculation>
 <structure name="finalpos" >
  <crystal>
   <varray name="basis" >
    <v>       9.97646553       0.00000000       5.75991507 </v>
    <v>       3.32548851       9.40590192       5.75991507 </v>
    <v>       0.00000000       0.00000000      11.51983014 </v>
   </varray>
   <i name="volume">   1080.99386112 </i>
   <varray name="rec_basis" >
    <v>       0.10023590      -0.03543874       0.00000000 </v>
    <v>       0.00000000       0.10631623       0.00000000 </v>
    <v>      -0.05011795      -0.03543874       0.08680684 </v>
   </varray>
  </crystal>
  <varray name="positions" >
   <v>       0.29166667       0.29166667       0.62500000 </v>
   <v>       0.29166667       0.29166667       0.95833333 </v>
   <v>       0.29166667       0.62500000       0.29166667 </v>
   <v>       0.29166667       0.62500000       0.62500000 </v>
   <v>       0.29166667       0.62500000       0.95833333 </v>
   <v>       0.29166667       0.95833333       0.29166667 </v>
   <v>       0.29166667       0.95833333       0.62500000 </v>
   <v>       0.29166667       0.95833333       0.95833333 </v>
   <v>       0.62500000       0.29166667       0.29166667 </v>
   <v>       0.62500000       0.29166667       0.62500000 </v>
   <v>       0.62500000       0.29166667       0.95833333 </v>
   <v>       0.62500000       0.62500000       0.29166667 </v>
   <v>       0.62500000       0.62500000       0.62500000 </v>
   <v>       0.62500000       0.62500000       0.95833333 </v>
   <v>       0.62500000       0.95833333       0.29166667 </v>
   <v>       0.62500000       0.95833333       0.62500000 </v>
   <v>       0.62500000       0.95833333       0.95833333 </v>
   <v>       0.95833333       0.29166667       0.29166667 </v>
   <v>       0.95833333       0.29166667       0.62500000 </v>
   <v>       0.95833333       0.29166667       0.95833333 </v>
   <v>       0.95833333       0.62500000       0.29166667 </v>
   <v>       0.95833333       0.62500000       0.62500000 </v>
   <v>       0.95833333       0.62500000       0.95833333 </v>
   <v>       0.95833333       0.95833333       0.29166667 </v>
   <v>       0.95833333       0.95833333       0.62500000 </v>
   <v>       0.95833333       0.95833333       0.95833333 </v>
   <v>       0.04166667       0.04166667       0.04166667 </v>
   <v>       0.04166667       0.04166667       0.37500000 </v>
   <v>       0.04166667       0.04166667       0.70833333 </v>
   <v>       0.04166667       0.37500000       0.04166667 </v>
   <v>       0.04166667       0.37500000       0.37500000 </v>
   <v>       0.04166667       0.37500000       0.70833333 </v>
   <v>       0.04166667       0.70833333       0.04166667 </v>
   <v>       0.04166667       0.70833333       0.37500000 </v>
   <v>       0.04166667       0.70833333       0.70833333 </v>
   <v>       0.37500000       0.04166667       0.04166667 </v>
   <v>       0.37500000       0.04166667       0.37500000 </v>
   <v>       0.37500000       0.04166667       0.70833333 </v>
   <v>       0.37500000       0.37500000       0.04166667 </v>
   <v>       0.37500000       0.37500000       0.37500000 </v>
   <v>       0.37500000       0.37500000       0.70833333 </v>
   <v>       0.37500000       0.70833333       0.04166667 </v>
   <v>       0.37500000       0.70833333       0.37500000 </v>
   <v>       0.37500000       0.70833333       0.70833333 </v>
   <v>       0.70833333       0.04166667       0.04166667 </v>
   <v>       0.70833333       0.04166667       0.37500000 </v>
   <v>       0.70833333       0.04166667       0.70833333 </v>
   <v>       0.70833333       0.37500000       0.04166667 </v>
   <v>       0.70833333       0.37500000       0.37500000 </v>
   <v>       0.70833333       0.37500000       0.70833333 </v>
   <v>       0.70833333       0.70833333       0.04166667 </v>
   <v>       0.70833333       0.70833333       0.37500000 </v>
   <v>       0.70833333       0.70833333       0.70833333 </v>
  </varray>
 </structure>
</modeling>
