 vasp.5.4.4.18Apr17-6-g9f103f2a35 (build Jun 19 2019 10:34:07) complex          
  
 executed on               LB-5.4 date 2023.05.15  18:42:43
 running on   96 total cores
 distrk:  each k-point on   24 cores,    4 groups
 distr:  one band on NCORES_PER_BAND=   1 cores,   24 groups


--------------------------------------------------------------------------------------------------------


 INCAR:
 POTCAR:    PAW_PBE B 06Sep2000                   
 POTCAR:    PAW_PBE Si 05Jan2001                  

 ----------------------------------------------------------------------------- 
|                                                                             |
|           W    W    AA    RRRRR   N    N  II  N    N   GGGG   !!!           |
|           W    W   A  A   R    R  NN   N  II  NN   N  G    G  !!!           |
|           W    W  A    A  R    R  N N  N  II  N N  N  G       !!!           |
|           W WW W  AAAAAA  RRRRR   N  N N  II  N  N N  G  GGG   !            |
|           WW  WW  A    A  R   R   N   NN  II  N   NN  G    G                |
|           W    W  A    A  R    R  N    N  II  N    N   GGGG   !!!           |
|                                                                             |
|      For optimal performance we recommend to set                            |
|        NCORE= 4 - approx SQRT( number of cores)                             |
|      NCORE specifies how many cores store one orbital (NPAR=cpu/NCORE).     |
|      This setting can  greatly improve the performance of VASP for DFT.     |
|      The default,   NCORE=1            might be grossly inefficient         |
|      on modern multi-core architectures or massively parallel machines.     |
|      Do your own testing !!!!                                               |
|      Unfortunately you need to use the default for GW and RPA calculations. |
|      (for HF NCORE is supported but not extensively tested yet)             |
|                                                                             |
 ----------------------------------------------------------------------------- 


 ----------------------------------------------------------------------------- 
|                                                                             |
|           W    W    AA    RRRRR   N    N  II  N    N   GGGG   !!!           |
|           W    W   A  A   R    R  NN   N  II  NN   N  G    G  !!!           |
|           W    W  A    A  R    R  N N  N  II  N N  N  G       !!!           |
|           W WW W  AAAAAA  RRRRR   N  N N  II  N  N N  G  GGG   !            |
|           WW  WW  A    A  R   R   N   NN  II  N   NN  G    G                |
|           W    W  A    A  R    R  N    N  II  N    N   GGGG   !!!           |
|                                                                             |
|      You have enabled k-point parallelism (KPAR>1).                         |
|      This developmental code was originally  written by Paul Kent at ORNL,  |
|      and carefully double checked in Vienna.                                |
|      GW as well as linear response parallelism added by Martijn Marsman     |
|      and Georg Kresse.                                                      |
|      Carefully verify results versus KPAR=1.                                |
|      Report problems to Paul Kent and Vienna.                               |
|                                                                             |
 ----------------------------------------------------------------------------- 

 POTCAR:    PAW_PBE B 06Sep2000                   
   VRHFIN =B: s2p1                                                              
   LEXCH  = PE                                                                  
   EATOM  =    71.1703 eV,    5.2309 Ry                                         
                                                                                
   TITEL  = PAW_PBE B 06Sep2000                                                 
   LULTRA =        F    use ultrasoft PP ?                                      
   IUNSCR =        1    unscreen: 0-lin 1-nonlin 2-no                           
   RPACOR =    1.200    partial core radius                                     
   POMASS =   10.811; ZVAL   =    3.000    mass and valenz                      
   RCORE  =    1.700    outmost cutoff radius                                   
   RWIGS  =    1.710; RWIGS  =    0.905    wigner-seitz radius (au A)           
   ENMAX  =  318.614; ENMIN  =  238.960 eV                                      
   ICORE  =        2    local potential                                         
   LCOR   =        T    correct aug charges                                     
   LPAW   =        T    paw PP                                                  
   EAUG   =  535.514                                                            
   DEXC   =    0.000                                                            
   RMAX   =    1.732    core radius for proj-oper                               
   RAUG   =    1.300    factor for augmentation sphere                          
   RDEP   =    1.757    radius for radial grids                                 
   RDEPT  =    1.436    core radius for aug-charge                              
                                                                                
   Atomic configuration                                                         
    4 entries                                                                   
     n  l   j            E        occ.                                          
     1  0  0.50      -180.5896   2.0000                                         
     2  0  0.50        -9.4431   2.0000                                         
     2  1  0.50        -3.6068   1.0000                                         
     3  2  1.50        -4.0817   0.0000                                         
   Description                                                                  
     l       E           TYP  RCUT    TYP  RCUT                                 
     0     -9.4430752     23  1.500                                             
     0      0.8675899     23  1.500                                             
     1     -3.6067955     23  1.700                                             
     1      6.1086146     23  1.700                                             
     2     -4.0817478      7  1.700                                             
  local pseudopotential read in
  partial core-charges read in
  partial kinetic energy density read in
  atomic valenz-charges read in
  non local Contribution for L=           0  read in
    real space projection operators read in
  non local Contribution for L=           0  read in
    real space projection operators read in
  non local Contribution for L=           1  read in
    real space projection operators read in
  non local Contribution for L=           1  read in
    real space projection operators read in
    PAW grid and wavefunctions read in
 
   number of l-projection  operators is LMAX  =           4
   number of lm-projection operators is LMMAX =           8
 
 POTCAR:    PAW_PBE Si 05Jan2001                  
   VRHFIN =Si: s2p2                                                             
   LEXCH  = PE                                                                  
   EATOM  =   103.0669 eV,    7.5752 Ry                                         
                                                                                
   TITEL  = PAW_PBE Si 05Jan2001                                                
   LULTRA =        F    use ultrasoft PP ?                                      
   IUNSCR =        1    unscreen: 0-lin 1-nonlin 2-no                           
   RPACOR =    1.500    partial core radius                                     
   POMASS =   28.085; ZVAL   =    4.000    mass and valenz                      
   RCORE  =    1.900    outmost cutoff radius                                   
   RWIGS  =    2.480; RWIGS  =    1.312    wigner-seitz radius (au A)           
   ENMAX  =  245.345; ENMIN  =  184.009 eV                                      
   ICORE  =        2    local potential                                         
   LCOR   =        T    correct aug charges                                     
   LPAW   =        T    paw PP                                                  
   EAUG   =  322.069                                                            
   DEXC   =    0.000                                                            
   RMAX   =    1.950    core radius for proj-oper                               
   RAUG   =    1.300    factor for augmentation sphere                          
   RDEP   =    1.993    radius for radial grids                                 
   RDEPT  =    1.837    core radius for aug-charge                              
                                                                                
   Atomic configuration                                                         
    6 entries                                                                   
     n  l   j            E        occ.                                          
     1  0  0.50     -1785.8828   2.0000                                         
     2  0  0.50      -139.4969   2.0000                                         
     2  1  1.50       -95.5546   6.0000                                         
     3  0  0.50       -10.8127   2.0000                                         
     3  1  0.50        -4.0811   2.0000                                         
     3  2  1.50        -4.0817   0.0000                                         
   Description                                                                  
     l       E           TYP  RCUT    TYP  RCUT                                 
     0    -10.8127223     23  1.900                                             
     0     -7.6451159     23  1.900                                             
     1     -4.0811372     23  1.900                                             
     1      2.4879257     23  1.900                                             
     2     -4.0817478      7  1.900                                             
  local pseudopotential read in
  partial core-charges read in
  partial kinetic energy density read in
  atomic valenz-charges read in
  non local Contribution for L=           0  read in
    real space projection operators read in
  non local Contribution for L=           0  read in
    real space projection operators read in
  non local Contribution for L=           1  read in
    real space projection operators read in
  non local Contribution for L=           1  read in
    real space projection operators read in
    PAW grid and wavefunctions read in
 
   number of l-projection  operators is LMAX  =           4
   number of lm-projection operators is LMMAX =           8
 

 ----------------------------------------------------------------------------- 
|                                                                             |
|  ADVICE TO THIS USER RUNNING 'VASP/VAMP'   (HEAR YOUR MASTER'S VOICE ...):  |
|                                                                             |
|      You have a (more or less) 'large supercell' and for larger cells       |
|      it might be more efficient to use real space projection opertators     |
|      So try LREAL= Auto  in the INCAR   file.                               |
|      Mind:          For very  accurate calculation you might also keep the  |
|      reciprocal projection scheme          (i.e. LREAL=.FALSE.)             |
|                                                                             |
 ----------------------------------------------------------------------------- 

  PAW_PBE B 06Sep2000                   :
 energy of atom  1       EATOM=  -71.1703
 kinetic energy error for atom=    0.0009 (will be added to EATOM!!)
  PAW_PBE Si 05Jan2001                  :
 energy of atom  2       EATOM= -103.0669
 kinetic energy error for atom=    0.0004 (will be added to EATOM!!)
 
 
 POSCAR: Si53 B1                                 
  positions in direct lattice
  velocities in cartesian coordinates
 exchange correlation table for  LEXCH =        8
   RHO(1)=    0.500       N(1)  =     2000
   RHO(2)=  100.500       N(2)  =     4000
 


--------------------------------------------------------------------------------------------------------


 ion  position               nearest neighbor table
   1  0.292  0.292  0.292-  32 2.35  40 2.35  41 2.35  38 2.35
   2  0.292  0.292  0.625-  33 2.35  41 2.35  42 2.35  39 2.35
   3  0.292  0.292  0.958-  31 2.35  40 2.35  42 2.35  37 2.35
   4  0.292  0.625  0.292-  35 2.35  43 2.35  44 2.35  41 2.35
   5  0.292  0.625  0.625-  36 2.35  44 2.35  45 2.35  42 2.35
   6  0.292  0.625  0.958-  34 2.35  43 2.35  45 2.35  40 2.35
   7  0.292  0.958  0.292-  29 2.35  37 2.35  38 2.35  44 2.35
   8  0.292  0.958  0.625-  30 2.35  38 2.35  39 2.35  45 2.35
   9  0.292  0.958  0.958-  28 2.35  37 2.35  39 2.35  43 2.35
  10  0.625  0.292  0.292-  41 2.35  49 2.35  50 2.35  47 2.35
  11  0.625  0.292  0.625-  42 2.35  50 2.35  51 2.35  48 2.35
  12  0.625  0.292  0.958-  40 2.35  49 2.35  51 2.35  46 2.35
  13  0.625  0.625  0.292-  44 2.35  52 2.35  53 2.35  50 2.35
  14  0.625  0.625  0.625-  45 2.35  53 2.35  54 2.35  51 2.35
  15  0.625  0.625  0.958-  43 2.35  52 2.35  54 2.35  49 2.35
  16  0.625  0.958  0.292-  38 2.35  46 2.35  47 2.35  53 2.35
  17  0.625  0.958  0.625-  39 2.35  47 2.35  48 2.35  54 2.35
  18  0.625  0.958  0.958-  37 2.35  46 2.35  48 2.35  52 2.35
  19  0.958  0.292  0.292-  50 2.35  32 2.35  31 2.35  29 2.35
  20  0.958  0.292  0.625-  51 2.35  33 2.35  32 2.35  30 2.35
  21  0.958  0.292  0.958-  49 2.35  31 2.35  33 2.35  28 2.35
  22  0.958  0.625  0.292-  53 2.35  35 2.35  34 2.35  32 2.35
  23  0.958  0.625  0.625-  54 2.35  36 2.35  35 2.35  33 2.35
  24  0.958  0.625  0.958-  52 2.35  34 2.35  36 2.35  31 2.35
  25  0.958  0.958  0.292-  47 2.35  29 2.35  28 2.35  35 2.35
  26  0.958  0.958  0.625-  48 2.35  30 2.35  29 2.35  36 2.35
  27  0.958  0.958  0.958-  46 2.35  28 2.35  30 2.35  34 2.35
  28  0.042  0.042  0.042-   9 2.35  27 2.35  25 2.35  21 2.35
  29  0.042  0.042  0.375-   7 2.35  25 2.35  26 2.35  19 2.35
  30  0.042  0.042  0.708-   8 2.35  26 2.35  27 2.35  20 2.35
  31  0.042  0.375  0.042-   3 2.35  21 2.35  19 2.35  24 2.35
  32  0.042  0.375  0.375-   1 2.35  19 2.35  20 2.35  22 2.35
  33  0.042  0.375  0.708-   2 2.35  20 2.35  21 2.35  23 2.35
  34  0.042  0.708  0.042-   6 2.35  24 2.35  22 2.35  27 2.35
  35  0.042  0.708  0.375-   4 2.35  22 2.35  23 2.35  25 2.35
  36  0.042  0.708  0.708-   5 2.35  23 2.35  24 2.35  26 2.35
  37  0.375  0.042  0.042-  18 2.35   9 2.35   7 2.35   3 2.35
  38  0.375  0.042  0.375-  16 2.35   8 2.35   7 2.35   1 2.35
  39  0.375  0.042  0.708-  17 2.35   9 2.35   8 2.35   2 2.35
  40  0.375  0.375  0.042-  12 2.35   3 2.35   1 2.35   6 2.35
  41  0.375  0.375  0.375-  10 2.35   2 2.35   1 2.35   4 2.35
  42  0.375  0.375  0.708-  11 2.35   3 2.35   2 2.35   5 2.35
  43  0.375  0.708  0.042-  15 2.35   6 2.35   4 2.35   9 2.35
  44  0.375  0.708  0.375-  13 2.35   5 2.35   4 2.35   7 2.35
  45  0.375  0.708  0.708-  14 2.35   6 2.35   5 2.35   8 2.35
  46  0.708  0.042  0.042-  27 2.35  18 2.35  16 2.35  12 2.35
  47  0.708  0.042  0.375-  25 2.35  17 2.35  16 2.35  10 2.35
  48  0.708  0.042  0.708-  26 2.35  18 2.35  17 2.35  11 2.35
  49  0.708  0.375  0.042-  21 2.35  12 2.35  10 2.35  15 2.35
  50  0.708  0.375  0.375-  19 2.35  11 2.35  10 2.35  13 2.35
  51  0.708  0.375  0.708-  20 2.35  12 2.35  11 2.35  14 2.35
  52  0.708  0.708  0.042-  24 2.35  15 2.35  13 2.35  18 2.35
  53  0.708  0.708  0.375-  22 2.35  14 2.35  13 2.35  16 2.35
  54  0.708  0.708  0.708-  23 2.35  15 2.35  14 2.35  17 2.35
 
  LATTYP: Found a face centered cubic cell.
 ALAT       =    16.2915000202
  
  Lattice vectors:
  
 A1 = (   9.9764655300,   0.0000000000,   5.7599150700)
 A2 = (   3.3254885100,   9.4059019200,   5.7599150700)
 A3 = (   0.0000000000,   0.0000000000,  11.5198301400)


Analysis of symmetry for initial positions (statically):
=====================================================================
 Subroutine PRICEL returns:
 Original cell was already a primitive cell.
 

 Routine SETGRP: Setting up the symmetry group for a 
 face centered cubic supercell.


 Subroutine GETGRP returns: Found 24 space group operations
 (whereof  6 operations were pure point group operations)
 out of a pool of 48 trial point group operations.


The static configuration has the point symmetry C_3v.
 The point group associated with its full space group is T_d .


Analysis of symmetry for dynamics (positions and initial velocities):
=====================================================================
 Subroutine PRICEL returns:
 Original cell was already a primitive cell.
 

 Routine SETGRP: Setting up the symmetry group for a 
 face centered cubic supercell.


 Subroutine GETGRP returns: Found 24 space group operations
 (whereof  6 operations were pure point group operations)
 out of a pool of 48 trial point group operations.


The dynamic configuration has the point symmetry C_3v.
 The point group associated with its full space group is T_d .


 Subroutine INISYM returns: Found 24 space group operations
 (whereof  6 operations are pure point group operations),
 and found     1 'primitive' translations

 
 
 KPOINTS: Automatic kpoint scheme                 

Automatic generation of k-mesh.
Space group operators:
 irot       det(A)        alpha          n_x          n_y          n_z        tau_x        tau_y        tau_z
    1     1.000000     0.000000     1.000000     0.000000     0.000000     0.000000     0.000000     0.000000
    2     1.000000   120.000000    -0.471405    -0.333333    -0.816497     0.000000     0.000000     0.000000
    3     1.000000   120.000000     0.471405     0.333333     0.816497     0.000000     0.000000     0.000000
    4    -1.000000   180.000000     0.288675     0.816497    -0.500000     0.000000     0.000000     0.000000
    5    -1.000000   180.000000     0.577350    -0.816497     0.000000     0.000000     0.000000     0.000000
    6    -1.000000   180.000000     0.866025     0.000000    -0.500000     0.000000     0.000000     0.000000
    7    -1.000000    90.000000    -0.816497    -0.577350    -0.000000     0.166667     0.000000     0.000000
    8    -1.000000   180.000000     0.866025     0.000000     0.500000     0.166667     0.000000     0.000000
    9    -1.000000    90.000000     0.408248    -0.577350     0.707107     0.166667     0.000000     0.000000
   10     1.000000   180.000000     0.816497     0.577350     0.000000     0.000000     0.000000     0.166667
   11     1.000000   120.000000     0.942809    -0.333333     0.000000     0.000000     0.000000     0.166667
   12     1.000000   120.000000    -0.000000    -1.000000    -0.000000     0.000000     0.000000     0.166667
   13    -1.000000    90.000000     0.816497     0.577350    -0.000000     0.000000     0.166667    -0.000000
   14    -1.000000    90.000000     0.408248    -0.577350    -0.707107     0.000000     0.166667    -0.000000
   15    -1.000000   180.000000     0.288675     0.816497     0.500000     0.000000     0.166667    -0.000000
   16     1.000000   120.000000    -0.000000     1.000000    -0.000000     0.166667     0.000000     0.000000
   17     1.000000   120.000000     0.471405     0.333333    -0.816497     0.166667     0.000000     0.000000
   18     1.000000   180.000000    -0.408248     0.577350     0.707107     0.166667     0.000000     0.000000
   19    -1.000000    90.000000    -0.408248     0.577350    -0.707107     0.000000     0.000000     0.166667
   20    -1.000000   180.000000     0.000000    -0.000000     1.000000     0.000000     0.000000     0.166667
   21    -1.000000    90.000000    -0.408248     0.577350     0.707107     0.000000     0.000000     0.166667
   22     1.000000   120.000000    -0.942809     0.333333     0.000000     0.000000     0.166667    -0.000000
   23     1.000000   180.000000    -0.408248     0.577350    -0.707107     0.000000     0.166667    -0.000000
   24     1.000000   120.000000    -0.471405    -0.333333     0.816497     0.000000     0.166667    -0.000000
 
 Subroutine IBZKPT returns following result:
 ===========================================
 
 Found      8 irreducible k-points:
 
 Following reciprocal coordinates:
            Coordinates               Weight
  0.000000  0.000000  0.000000      1.000000
  0.250000  0.000000  0.000000      8.000000
  0.500000  0.000000  0.000000      4.000000
  0.250000  0.250000  0.000000      6.000000
  0.500000  0.250000  0.000000     24.000000
 -0.250000  0.250000  0.000000     12.000000
  0.500000  0.500000  0.000000      3.000000
 -0.250000  0.500000  0.250000      6.000000
 
 Following cartesian coordinates:
            Coordinates               Weight
  0.000000  0.000000  0.000000      1.000000
  0.025059 -0.008860  0.000000      8.000000
  0.050118 -0.017719  0.000000      4.000000
  0.025059  0.017719  0.000000      6.000000
  0.050118  0.008860  0.000000     24.000000
 -0.025059  0.035439  0.000000     12.000000
  0.050118  0.035439  0.000000      3.000000
 -0.037588  0.053158  0.021702      6.000000
 


--------------------------------------------------------------------------------------------------------




 Dimension of arrays:
   k-points           NKPTS =      8   k-points in BZ     NKDIM =      8   number of bands    NBANDS=    144
   number of dos      NEDOS =    301   number of ions     NIONS =     54
   non local maximal  LDIM  =      4   non local SUM 2l+1 LMDIM =      8
   total plane-waves  NPLWV = 343000
   max r-space proj   IRMAX =      1   max aug-charges    IRDMAX=  10807
   dimension x,y,z NGX =    70 NGY =   70 NGZ =   70
   dimension x,y,z NGXF=   140 NGYF=  140 NGZF=  140
   support grid    NGXF=   140 NGYF=  140 NGZF=  140
   ions per type =               1  53
   NGX,Y,Z   is equivalent  to a cutoff of  10.10, 10.10, 10.10 a.u.
   NGXF,Y,Z  is equivalent  to a cutoff of  20.20, 20.20, 20.20 a.u.

 SYSTEM =  Si                                      
 POSCAR =  Si53 B1                                 

 Startparameter for this run:
   NWRITE =      2    write-flag & timer
   PREC   = normal    normal or accurate (medium, high low for compatibility)
   ISTART =      1    job   : 0-new  1-cont  2-samecut
   ICHARG =      0    charge: 1-file 2-atom 10-const
   ISPIN  =      1    spin polarized calculation?
   LNONCOLLINEAR =      F non collinear calculations
   LSORBIT =      F    spin-orbit coupling
   INIWAV =      1    electr: 0-lowe 1-rand  2-diag
   LASPH  =      F    aspherical Exc in radial PAW
   METAGGA=      F    non-selfconsistent MetaGGA calc.

 Electronic Relaxation 1
   ENCUT  =  550.0 eV  40.42 Ry    6.36 a.u.  22.03 22.03 22.03*2*pi/ulx,y,z
   ENINI  =  550.0     initial cutoff
   ENAUG  =  535.5 eV  augmentation charge cutoff
   NELM   =    200;   NELMIN=  2; NELMDL=  0     # of ELM steps 
   EDIFF  = 0.1E-04   stopping-criterion for ELM
   LREAL  =      F    real-space projection
   NLSPLINE    = F    spline interpolate recip. space projectors
   LCOMPAT=      F    compatible to vasp.4.4
   GGA_COMPAT  = T    GGA compatible to vasp.4.4-vasp.4.6
   LMAXPAW     = -100 max onsite density
   LMAXMIX     =    2 max onsite mixed and CHGCAR
   VOSKOWN=      0    Vosko Wilk Nusair interpolation
   ROPT   =    0.00000   0.00000
 Ionic relaxation
   EDIFFG = -.5E-01   stopping-criterion for IOM
   NSW    =    100    number of steps for IOM
   NBLOCK =      1;   KBLOCK =    100    inner block; outer block 
   IBRION =      2    ionic relax: 0-MD 1-quasi-New 2-CG
   NFREE  =      1    steps in history (QN), initial steepest desc. (CG)
   ISIF   =      2    stress and relaxation
   IWAVPR =     11    prediction:  0-non 1-charg 2-wave 3-comb
   ISYM   =      2    0-nonsym 1-usesym 2-fastsym
   LCORR  =      T    Harris-Foulkes like correction to forces

   POTIM  = 0.5000    time-step for ionic-motion
   TEIN   =    0.0    initial temperature
   TEBEG  =    0.0;   TEEND  =   0.0 temperature during run
   SMASS  =  -3.00    Nose mass-parameter (am)
   estimated Nose-frequenzy (Omega)   =  0.10E-29 period in steps =****** mass=  -0.303E-26a.u.
   SCALEE = 1.0000    scale energy and forces
   NPACO  =    256;   APACO  = 16.0  distance and # of slots for P.C.
   PSTRESS=    0.0 pullay stress

  Mass of Ions in am
   POMASS =  10.81 28.09
  Ionic Valenz
   ZVAL   =   3.00  4.00
  Atomic Wigner-Seitz radii
   RWIGS  =  -1.00 -1.00
  virtual crystal weights 
   VCA    =   1.00  1.00
   NELECT =     217.0000    total number of electrons
   NUPDOWN=      -1.0000    fix difference up-down

 DOS related values:
   EMIN   =  10.00;   EMAX   =-10.00  energy-range for DOS
   EFERMI =   0.00
   ISMEAR =     0;   SIGMA  =   0.05  broadening in eV -4-tet -1-fermi 0-gaus

 Electronic relaxation 2 (details)
   IALGO  =     38    algorithm
   LDIAG  =      T    sub-space diagonalisation (order eigenvalues)
   LSUBROT=      F    optimize rotation matrix (better conditioning)
   TURBO    =      0    0=normal 1=particle mesh
   IRESTART =      0    0=no restart 2=restart with 2 vectors
   NREBOOT  =      0    no. of reboots
   NMIN     =      0    reboot dimension
   EREF     =   0.00    reference energy to select bands
   IMIX   =      4    mixing-type and parameters
     AMIX     =   0.20;   BMIX     =  1.00
     AMIX_MAG =   0.80;   BMIX_MAG =  1.00
     AMIN     =   0.10
     WC   =   100.;   INIMIX=   1;  MIXPRE=   1;  MAXMIX= -45

 Intra band minimization:
   WEIMIN = 0.0010     energy-eigenvalue tresh-hold
   EBREAK =  0.17E-07  absolut break condition
   DEPER  =   0.30     relativ break condition  

   TIME   =   0.40     timestep for ELM

  volume/ion in A,a.u.               =      20.02       135.09
  Fermi-wavevector in a.u.,A,eV,Ry     =   0.958562  1.811420 12.501599  0.918842
  Thomas-Fermi vector in A             =   2.087681
 
 Write flags
   LWAVE        =      T    write WAVECAR
   LDOWNSAMPLE  =      F    k-point downsampling of WAVECAR
   LCHARG       =      T    write CHGCAR
   LVTOT        =      F    write LOCPOT, total local potential
   LVHAR        =      F    write LOCPOT, Hartree potential only
   LELF         =      F    write electronic localiz. function (ELF)
   LORBIT       =     10    0 simple, 1 ext, 2 COOP (PROOUT), +10 PAW based schemes


 Dipole corrections
   LMONO  =      F    monopole corrections only (constant potential shift)
   LDIPOL =      F    correct potential (dipole corrections)
   IDIPOL =      0    1-x, 2-y, 3-z, 4-all directions 
   EPSILON=  1.0000000 bulk dielectric constant

 Exchange correlation treatment:
   GGA     =    --    GGA type
   LEXCH   =     8    internal setting for exchange type
   VOSKOWN=      0    Vosko Wilk Nusair interpolation
   LHFCALC =     F    Hartree Fock is set to
   LHFONE  =     F    Hartree Fock one center treatment
   AEXX    =    0.0000 exact exchange contribution

 Linear response parameters
   LEPSILON=     F    determine dielectric tensor
   LRPA    =     F    only Hartree local field effects (RPA)
   LNABLA  =     F    use nabla operator in PAW spheres
   LVEL    =     F    velocity operator in full k-point grid
   LINTERFAST=   F  fast interpolation
   KINTER  =     0    interpolate to denser k-point grid
   CSHIFT  =0.1000    complex shift for real part using Kramers Kronig
   OMEGAMAX=  -1.0    maximum frequency
   DEG_THRESHOLD= 0.2000000E-02 threshold for treating states as degnerate
   RTIME   =   -0.100 relaxation time in fs
  (WPLASMAI=    0.000 imaginary part of plasma frequency in eV, 0.658/RTIME)
   DFIELD  = 0.0000000 0.0000000 0.0000000 field for delta impulse in time
 
 Orbital magnetization related:
   ORBITALMAG=     F  switch on orbital magnetization
   LCHIMAG   =     F  perturbation theory with respect to B field
   DQ        =  0.001000  dq finite difference perturbation B field
   LLRAUG    =     F  two centre corrections for induced B field



--------------------------------------------------------------------------------------------------------


 conjugate gradient relaxation of ions
 charge density and potential will be updated during run
 non-spin polarized calculation
 Variant of blocked Davidson
 Davidson routine will perform the subspace rotation
 perform sub-space diagonalisation
    after iterative eigenvector-optimisation
 modified Broyden-mixing scheme, WC =      100.0
 initial mixing is a Kerker type mixing with AMIX =  0.2000 and BMIX =      1.0000
 Hartree-type preconditioning will be used
 using additional bands           35
 reciprocal scheme for non local part
 use partial core corrections
 calculate Harris-corrections to forces 
   (improved forces if not selfconsistent)
 use gradient corrections 
 use of overlap-Matrix (Vanderbilt PP)
 Gauss-broadening in eV      SIGMA  =   0.05


--------------------------------------------------------------------------------------------------------


  energy-cutoff  :      550.00
  volume of cell :     1080.99
      direct lattice vectors                 reciprocal lattice vectors
     9.976465530  0.000000000  5.759915070     0.100235900 -0.035438742  0.000000000
     3.325488510  9.405901920  5.759915070     0.000000000  0.106316227  0.000000000
     0.000000000  0.000000000 11.519830140    -0.050117950 -0.035438742  0.086806836

  length of vectors
    11.519830124 11.519830136 11.519830140     0.106316227  0.106316227  0.106316227


 
 old parameters found on file WAVECAR:
  energy-cutoff  :      550.00
  volume of cell :     1080.99
      direct lattice vectors                 reciprocal lattice vectors
     9.976465530  0.000000000  5.759915070     0.100235900 -0.035438742  0.000000000
     3.325488510  9.405901920  5.759915070     0.000000000  0.106316227  0.000000000
     0.000000000  0.000000000 11.519830140    -0.050117950 -0.035438742  0.086806836

  length of vectors

 
 k-points in units of 2pi/SCALE and weight: Automatic kpoint scheme                 
   0.00000000  0.00000000  0.00000000       0.016
   0.02505897 -0.00885969  0.00000000       0.125
   0.05011795 -0.01771937  0.00000000       0.062
   0.02505897  0.01771937  0.00000000       0.094
   0.05011795  0.00885969  0.00000000       0.375
  -0.02505897  0.03543874  0.00000000       0.188
   0.05011795  0.03543874  0.00000000       0.047
  -0.03758846  0.05315811  0.02170171       0.094
 
 k-points in reciprocal lattice and weights: Automatic kpoint scheme                 
   0.00000000  0.00000000  0.00000000       0.016
   0.25000000  0.00000000  0.00000000       0.125
   0.50000000  0.00000000  0.00000000       0.062
   0.25000000  0.25000000  0.00000000       0.094
   0.50000000  0.25000000  0.00000000       0.375
  -0.25000000  0.25000000  0.00000000       0.188
   0.50000000  0.50000000  0.00000000       0.047
  -0.25000000  0.50000000  0.25000000       0.094
 
 position of ions in fractional coordinates (direct lattice) 
   0.29166667  0.29166667  0.29166667
   0.29166667  0.29166667  0.62500000
   0.29166667  0.29166667  0.95833333
   0.29166667  0.62500000  0.29166667
   0.29166667  0.62500000  0.62500000
   0.29166667  0.62500000  0.95833333
   0.29166667  0.95833333  0.29166667
   0.29166667  0.95833333  0.62500000
   0.29166667  0.95833333  0.95833333
   0.62500000  0.29166667  0.29166667
   0.62500000  0.29166667  0.62500000
   0.62500000  0.29166667  0.95833333
   0.62500000  0.62500000  0.29166667
   0.62500000  0.62500000  0.62500000
   0.62500000  0.62500000  0.95833333
   0.62500000  0.95833333  0.29166667
   0.62500000  0.95833333  0.62500000
   0.62500000  0.95833333  0.95833333
   0.95833333  0.29166667  0.29166667
   0.95833333  0.29166667  0.62500000
   0.95833333  0.29166667  0.95833333
   0.95833333  0.62500000  0.29166667
   0.95833333  0.62500000  0.62500000
   0.95833333  0.62500000  0.95833333
   0.95833333  0.95833333  0.29166667
   0.95833333  0.95833333  0.62500000
   0.95833333  0.95833333  0.95833333
   0.04166667  0.04166667  0.04166667
   0.04166667  0.04166667  0.37500000
   0.04166667  0.04166667  0.70833333
   0.04166667  0.37500000  0.04166667
   0.04166667  0.37500000  0.37500000
   0.04166667  0.37500000  0.70833333
   0.04166667  0.70833333  0.04166667
   0.04166667  0.70833333  0.37500000
   0.04166667  0.70833333  0.70833333
   0.37500000  0.04166667  0.04166667
   0.37500000  0.04166667  0.37500000
   0.37500000  0.04166667  0.70833333
   0.37500000  0.37500000  0.04166667
   0.37500000  0.37500000  0.37500000
   0.37500000  0.37500000  0.70833333
   0.37500000  0.70833333  0.04166667
   0.37500000  0.70833333  0.37500000
   0.37500000  0.70833333  0.70833333
   0.70833333  0.04166667  0.04166667
   0.70833333  0.04166667  0.37500000
   0.70833333  0.04166667  0.70833333
   0.70833333  0.37500000  0.04166667
   0.70833333  0.37500000  0.37500000
   0.70833333  0.37500000  0.70833333
   0.70833333  0.70833333  0.04166667
   0.70833333  0.70833333  0.37500000
   0.70833333  0.70833333  0.70833333
 
 position of ions in cartesian coordinates  (Angst):
   3.87973659  2.74338806  6.71990091
   3.87973659  2.74338806 10.55984429
   3.87973659  2.74338806 14.39978767
   4.98823276  5.87868870  8.63987260
   4.98823276  5.87868870 12.47981598
   4.98823276  5.87868870 16.31975937
   6.09672893  9.01398934 10.55984429
   6.09672893  9.01398934 14.39978767
   6.09672893  9.01398934 18.23973106
   7.20522510  2.74338806  8.63987260
   7.20522510  2.74338806 12.47981598
   7.20522510  2.74338806 16.31975937
   8.31372128  5.87868870 10.55984429
   8.31372128  5.87868870 14.39978767
   8.31372128  5.87868870 18.23973106
   9.42221745  9.01398934 12.47981598
   9.42221745  9.01398934 16.31975937
   9.42221745  9.01398934 20.15970275
  10.53071362  2.74338806 10.55984429
  10.53071362  2.74338806 14.39978767
  10.53071362  2.74338806 18.23973106
  11.63920979  5.87868870 12.47981598
  11.63920979  5.87868870 16.31975937
  11.63920979  5.87868870 20.15970275
  12.74770596  9.01398934 14.39978767
  12.74770596  9.01398934 18.23973106
  12.74770596  9.01398934 22.07967444
   0.55424808  0.39191258  0.95998584
   0.55424808  0.39191258  4.79992922
   0.55424808  0.39191258  8.63987260
   1.66274425  3.52721322  2.87995753
   1.66274425  3.52721322  6.71990091
   1.66274425  3.52721322 10.55984430
   2.77124042  6.66251386  4.79992922
   2.77124042  6.66251386  8.63987261
   2.77124042  6.66251386 12.47981599
   3.87973659  0.39191258  2.87995753
   3.87973659  0.39191258  6.71990091
   3.87973659  0.39191258 10.55984430
   4.98823277  3.52721322  4.79992922
   4.98823277  3.52721322  8.63987261
   4.98823277  3.52721322 12.47981599
   6.09672894  6.66251386  6.71990091
   6.09672894  6.66251386 10.55984430
   6.09672894  6.66251386 14.39978768
   7.20522511  0.39191258  4.79992922
   7.20522511  0.39191258  8.63987261
   7.20522511  0.39191258 12.47981599
   8.31372128  3.52721322  6.71990091
   8.31372128  3.52721322 10.55984430
   8.31372128  3.52721322 14.39978768
   9.42221745  6.66251386  8.63987260
   9.42221745  6.66251386 12.47981599
   9.42221745  6.66251386 16.31975937
 


--------------------------------------------------------------------------------------------------------


 k-point  1 :   0.0000 0.0000 0.0000  plane waves:   31415
 k-point  2 :   0.2500 0.0000 0.0000  plane waves:   31608
 k-point  3 :   0.5000 0.0000 0.0000  plane waves:   31638
 k-point  4 :   0.2500 0.2500 0.0000  plane waves:   31695
 k-point  5 :   0.5000 0.2500 0.0000  plane waves:   31649
 k-point  6 :  -0.2500 0.2500 0.0000  plane waves:   31674
 k-point  7 :   0.5000 0.5000 0.0000  plane waves:   31716
 k-point  8 :  -0.2500 0.5000 0.2500  plane waves:   31684

 maximum and minimum number of plane-waves per node :     31716    31415

 maximum number of plane-waves:     31716
 maximum index in each direction: 
   IXMAX=   22   IYMAX=   22   IZMAX=   22
   IXMIN=  -22   IYMIN=  -22   IZMIN=  -22


 serial   3D FFT for wavefunctions
 parallel 3D FFT for charge:
    minimum data exchange during FFTs selected (reduces bandwidth)


 total amount of memory used by VASP MPI-rank0   140598. kBytes
=======================================================================

   base      :      30000. kBytes
   nonl-proj :      59902. kBytes
   fftplans  :       5382. kBytes
   grid      :      20451. kBytes
   one-center:        165. kBytes
   wavefun   :      24698. kBytes
 
     INWAV:  cpu time    9.1755: real time   11.0810
 Broyden mixing: mesh for mixing (old mesh)
   NGX = 45   NGY = 45   NGZ = 45
  (NGX  =140   NGY  =140   NGZ  =140)
  gives a total of  91125 points

 charge density for first step will be calculated from the start-wavefunctions


--------------------------------------------------------------------------------------------------------


 Maximum index for augmentation-charges          503 (set IRDMAX)


--------------------------------------------------------------------------------------------------------


 initial charge from wavefunction
 First call to EWALD:  gamma=   0.173
 Maximum number of real-space cells 3x 3x 3
 Maximum number of reciprocal cells 3x 3x 3

    FEWALD:  cpu time    0.0811: real time    0.0818


--------------------------------------- Iteration      1(   1)  ---------------------------------------


    POTLOK:  cpu time    0.1168: real time    0.1269
    SETDIJ:  cpu time    0.0578: real time    0.0585
     EDDAV:  cpu time    2.9033: real time    2.9343
       DOS:  cpu time    0.0184: real time    0.0195
    CHARGE:  cpu time    0.7322: real time    0.7408
    MIXING:  cpu time    0.0088: real time    0.0093
    --------------------------------------------
      LOOP:  cpu time    3.8373: real time    3.8892

 eigenvalue-minimisations  :  1728
 total energy-change (2. order) :-0.2799281E+03  (-0.3454779E-07)
 number of electron     216.9999999 magnetization 
 augmentation part      -12.2376470 magnetization 

 Broyden mixing:
  rms(total) = 0.63907E-04    rms(broyden)= 0.63907E-04
  rms(prec ) = 0.10978E-03
  weight for this iteration     100.00

 Free energy of the ion-electron system (eV)
  ---------------------------------------------------
  alpha Z        PSCENC =        93.27357238
  Ewald energy   TEWEN  =     -6115.53854741
  -Hartree energ DENC   =      -405.56294817
  -exchange      EXHF   =         0.00000000
  -V(xc)+E(xc)   XCENC  =      -464.91329510
  PAW double counting   =     23103.53881776   -22176.34486399
  entropy T*S    EENTRO =        -0.01153770
  eigenvalues    EBANDS =       151.93842714
  atomic energy  EATOM  =      5533.69225236
  Solvation  Ediel_sol  =         0.00000000
  ---------------------------------------------------
  free energy    TOTEN  =      -279.92812273 eV

  energy without entropy =     -279.91658503  energy(sigma->0) =     -279.92235388


--------------------------------------------------------------------------------------------------------




--------------------------------------- Iteration      1(   2)  ---------------------------------------


    POTLOK:  cpu time    0.1286: real time    0.1302
    SETDIJ:  cpu time    0.0919: real time    0.0927
     EDDAV:  cpu time    3.1036: real time    3.9180
       DOS:  cpu time    0.4274: real time    0.8641
    --------------------------------------------
      LOOP:  cpu time    3.7515: real time    5.0050

 eigenvalue-minimisations  :  1728
 total energy-change (2. order) : 0.2027991E-07  (-0.7326933E-08)
 number of electron     216.9999999 magnetization 
 augmentation part      -12.2376470 magnetization 

 Free energy of the ion-electron system (eV)
  ---------------------------------------------------
  alpha Z        PSCENC =        93.27357238
  Ewald energy   TEWEN  =     -6115.53854741
  -Hartree energ DENC   =      -405.56275043
  -exchange      EXHF   =         0.00000000
  -V(xc)+E(xc)   XCENC  =      -464.91330825
  PAW double counting   =     23103.55849246   -22176.36452842
  entropy T*S    EENTRO =        -0.01153771
  eigenvalues    EBANDS =       151.93823230
  atomic energy  EATOM  =      5533.69225236
  Solvation  Ediel_sol  =         0.00000000
  ---------------------------------------------------
  free energy    TOTEN  =      -279.92812271 eV

  energy without entropy =     -279.91658500  energy(sigma->0) =     -279.92235386


--------------------------------------------------------------------------------------------------------




 average (electrostatic) potential at core
  the test charge radii are     0.7672  0.9892
  (the norm of the test charge is              1.0000)
       1 -26.6149       2 -83.3245       3 -83.3245       4 -83.3245       5 -83.4444
       6 -83.3245       7 -83.3245       8 -83.3245       9 -83.4314      10 -83.3245
      11 -83.4444      12 -83.3245      13 -83.4444      14 -83.4444      15 -83.4697
      16 -83.3245      17 -83.4697      18 -83.4697      19 -83.3245      20 -83.3245
      21 -83.4314      22 -83.3245      23 -83.4697      24 -83.4697      25 -83.4314
      26 -83.4697      27 -83.4314      28 -83.4740      29 -83.4235      30 -83.4235
      31 -83.4235      32 -83.1395      33 -83.4235      34 -83.4235      35 -83.4235
      36 -83.4750      37 -83.4235      38 -83.1395      39 -83.4235      40 -83.1395
      41 -83.1395      42 -83.3668      43 -83.4235      44 -83.3668      45 -83.3668
      46 -83.4235      47 -83.4235      48 -83.4750      49 -83.4235      50 -83.3668
      51 -83.3668      52 -83.4750      53 -83.3668      54 -83.4750
 
 
 
 E-fermi :   6.4749     XC(G=0):  -9.4280     alpha+bet :-11.8660


 k-point     1 :       0.0000    0.0000    0.0000
  band No.  band energies     occupation 
      1      -6.2610      2.00000
      2      -4.9546      2.00000
      3      -4.9247      2.00000
      4      -4.9247      2.00000
      5      -4.9247      2.00000
      6      -4.8874      2.00000
      7      -4.8874      2.00000
      8      -4.8874      2.00000
      9      -4.7385      2.00000
     10      -4.3867      2.00000
     11      -4.3867      2.00000
     12      -4.3447      2.00000
     13      -4.3447      2.00000
     14      -4.3447      2.00000
     15      -4.0325      2.00000
     16      -3.0601      2.00000
     17      -3.0601      2.00000
     18      -3.0601      2.00000
     19      -3.0391      2.00000
     20      -3.0391      2.00000
     21      -3.0076      2.00000
     22      -3.0076      2.00000
     23      -3.0076      2.00000
     24      -2.9068      2.00000
     25      -2.9068      2.00000
     26      -2.9068      2.00000
     27      -2.3555      2.00000
     28      -1.1308      2.00000
     29      -1.1308      2.00000
     30      -1.1308      2.00000
     31      -1.1068      2.00000
     32      -1.1068      2.00000
     33      -1.0752      2.00000
     34      -1.0752      2.00000
     35      -1.0752      2.00000
     36      -0.9558      2.00000
     37      -0.9558      2.00000
     38      -0.9558      2.00000
     39      -0.5977      2.00000
     40       0.3289      2.00000
     41       0.3473      2.00000
     42       0.3473      2.00000
     43       0.3473      2.00000
     44       0.3963      2.00000
     45       0.3963      2.00000
     46       0.3963      2.00000
     47       0.4059      2.00000
     48       0.6730      2.00000
     49       0.6730      2.00000
     50       0.7498      2.00000
     51       0.7498      2.00000
     52       0.7498      2.00000
     53       1.0762      2.00000
     54       1.2218      2.00000
     55       1.2218      2.00000
     56       1.2218      2.00000
     57       1.2231      2.00000
     58       1.2231      2.00000
     59       1.2231      2.00000
     60       1.2546      2.00000
     61       1.3220      2.00000
     62       1.3220      2.00000
     63       1.5364      2.00000
     64       1.5364      2.00000
     65       1.5364      2.00000
     66       3.2392      2.00000
     67       3.2392      2.00000
     68       3.2392      2.00000
     69       3.2695      2.00000
     70       3.2695      2.00000
     71       3.2695      2.00000
     72       3.2704      2.00000
     73       3.2704      2.00000
     74       3.2704      2.00000
     75       3.3182      2.00000
     76       3.3182      2.00000
     77       3.3182      2.00000
     78       3.5545      2.00000
     79       3.5545      2.00000
     80       3.5545      2.00000
     81       3.5607      2.00000
     82       3.5880      2.00000
     83       3.5880      2.00000
     84       3.6073      2.00000
     85       3.6073      2.00000
     86       3.6073      2.00000
     87       3.8374      2.00000
     88       3.8374      2.00000
     89       3.8374      2.00000
     90       4.6496      2.00000
     91       4.6496      2.00000
     92       4.6496      2.00000
     93       4.6515      2.00000
     94       4.6515      2.00000
     95       4.6605      2.00000
     96       4.6605      2.00000
     97       4.6605      2.00000
     98       4.7177      2.00000
     99       4.7177      2.00000
    100       4.7283      2.00000
    101       4.7283      2.00000
    102       4.7283      2.00000
    103       5.0646      2.00000
    104       5.0646      2.00000
    105       5.0646      2.00000
    106       5.8110      2.00000
    107       5.8110      2.00000
    108       5.8110      2.00000
    109       6.4047      1.95290
    110       6.4098      1.93451
    111       6.4098      1.93451
    112       6.4281      1.81463
    113       6.4281      1.81462
    114       6.4281      1.81462
    115       7.2126      0.00000
    116       7.2168      0.00000
    117       7.2168      0.00000
    118       7.2168      0.00000
    119       7.2291      0.00000
    120       7.2291      0.00000
    121       7.2291      0.00000
    122       7.2836      0.00000
    123       7.2836      0.00000
    124       7.2836      0.00000
    125       7.3012      0.00000
    126       7.3012      0.00000
    127       7.4084      0.00000
    128       7.4084      0.00000
    129       7.4084      0.00000
    130       7.4237      0.00000
    131       7.4924      0.00000
    132       7.5539      0.00000
    133       7.5539      0.00000
    134       7.5539      0.00000
    135       7.6760      0.00000
    136       7.7599      0.00000
    137       7.7599      0.00000
    138       7.7599      0.00000
    139       7.7835      0.00000
    140       7.7835      0.00000
    141       8.2830      0.00000
    142       8.2830      0.00000
    143       8.2830      0.00000
    144       9.0596      0.00000

 k-point     2 :       0.2500    0.0000    0.0000
  band No.  band energies     occupation 
      1      -6.1722      2.00000
      2      -5.4655      2.00000
      3      -5.0326      2.00000
      4      -5.0326      2.00000
      5      -5.0087      2.00000
      6      -4.7630      2.00000
      7      -4.7630      2.00000
      8      -4.7081      2.00000
      9      -4.6012      2.00000
     10      -4.6012      2.00000
     11      -4.4426      2.00000
     12      -4.2418      2.00000
     13      -3.8375      2.00000
     14      -3.8375      2.00000
     15      -3.7236      2.00000
     16      -3.6053      2.00000
     17      -3.6053      2.00000
     18      -3.4635      2.00000
     19      -3.0434      2.00000
     20      -3.0434      2.00000
     21      -3.0024      2.00000
     22      -2.9524      2.00000
     23      -2.9524      2.00000
     24      -2.7900      2.00000
     25      -2.7232      2.00000
     26      -2.7232      2.00000
     27      -2.3305      2.00000
     28      -1.3650      2.00000
     29      -1.3650      2.00000
     30      -1.2679      2.00000
     31      -1.1536      2.00000
     32      -1.1536      2.00000
     33      -1.1144      2.00000
     34      -1.0586      2.00000
     35      -1.0586      2.00000
     36      -0.9094      2.00000
     37      -0.7309      2.00000
     38      -0.5855      2.00000
     39      -0.5855      2.00000
     40      -0.4337      2.00000
     41      -0.1098      2.00000
     42      -0.1098      2.00000
     43      -0.0984      2.00000
     44       0.0352      2.00000
     45       0.0352      2.00000
     46       0.2927      2.00000
     47       0.8475      2.00000
     48       0.8475      2.00000
     49       0.8760      2.00000
     50       1.2754      2.00000
     51       1.2754      2.00000
     52       1.3313      2.00000
     53       1.3987      2.00000
     54       1.4111      2.00000
     55       1.4111      2.00000
     56       1.4480      2.00000
     57       1.4602      2.00000
     58       1.4602      2.00000
     59       1.5098      2.00000
     60       1.6195      2.00000
     61       1.6195      2.00000
     62       1.6939      2.00000
     63       1.7649      2.00000
     64       1.7649      2.00000
     65       1.9649      2.00000
     66       2.7878      2.00000
     67       2.7878      2.00000
     68       2.8204      2.00000
     69       3.1109      2.00000
     70       3.1366      2.00000
     71       3.1366      2.00000
     72       3.2367      2.00000
     73       3.2367      2.00000
     74       3.2475      2.00000
     75       3.2634      2.00000
     76       3.2635      2.00000
     77       3.2635      2.00000
     78       3.2857      2.00000
     79       3.3204      2.00000
     80       3.3204      2.00000
     81       3.4275      2.00000
     82       3.4275      2.00000
     83       3.5506      2.00000
     84       3.5565      2.00000
     85       3.6374      2.00000
     86       3.6374      2.00000
     87       3.8453      2.00000
     88       3.8453      2.00000
     89       3.9645      2.00000
     90       4.0062      2.00000
     91       4.0458      2.00000
     92       4.0458      2.00000
     93       4.3698      2.00000
     94       4.3980      2.00000
     95       4.3980      2.00000
     96       4.4435      2.00000
     97       4.4435      2.00000
     98       4.5758      2.00000
     99       4.5758      2.00000
    100       4.5802      2.00000
    101       4.7011      2.00000
    102       4.8105      2.00000
    103       4.8105      2.00000
    104       5.0208      2.00000
    105       5.0750      2.00000
    106       5.0750      2.00000
    107       5.6772      2.00000
    108       5.6772      2.00000
    109       6.5716      0.00626
    110       6.5799      0.00299
    111       6.5799      0.00299
    112       6.8653      0.00000
    113       6.8653      0.00000
    114       6.8726      0.00000
    115       6.9654      0.00000
    116       6.9932      0.00000
    117       6.9932      0.00000
    118       7.3004      0.00000
    119       7.5286      0.00000
    120       7.5412      0.00000
    121       7.5412      0.00000
    122       7.6706      0.00000
    123       7.7241      0.00000
    124       7.7241      0.00000
    125       7.7599      0.00000
    126       7.7891      0.00000
    127       7.8104      0.00000
    128       7.8104      0.00000
    129       7.8628      0.00000
    130       7.8672      0.00000
    131       7.8672      0.00000
    132       7.9110      0.00000
    133       7.9237      0.00000
    134       7.9237      0.00000
    135       8.0191      0.00000
    136       8.0900      0.00000
    137       8.0900      0.00000
    138       8.3178      0.00000
    139       8.4766      0.00000
    140       8.4815      0.00000
    141       8.4815      0.00000
    142       8.5294      0.00000
    143       8.5294      0.00000
    144       8.9830      0.00000

 k-point     3 :       0.5000    0.0000    0.0000
  band No.  band energies     occupation 
      1      -5.9529      2.00000
      2      -5.8491      2.00000
      3      -5.0365      2.00000
      4      -5.0198      2.00000
      5      -5.0198      2.00000
      6      -4.9393      2.00000
      7      -4.9393      2.00000
      8      -4.7733      2.00000
      9      -4.1882      2.00000
     10      -4.1882      2.00000
     11      -4.1554      2.00000
     12      -4.1527      2.00000
     13      -4.1527      2.00000
     14      -4.0241      2.00000
     15      -3.8545      2.00000
     16      -3.2221      2.00000
     17      -3.2221      2.00000
     18      -3.2169      2.00000
     19      -3.1912      2.00000
     20      -3.1912      2.00000
     21      -3.0381      2.00000
     22      -3.0381      2.00000
     23      -3.0366      2.00000
     24      -2.9972      2.00000
     25      -2.9297      2.00000
     26      -2.9297      2.00000
     27      -2.3934      2.00000
     28      -1.2766      2.00000
     29      -1.1873      2.00000
     30      -1.1873      2.00000
     31      -1.1515      2.00000
     32      -1.1087      2.00000
     33      -1.1087      2.00000
     34      -1.0429      2.00000
     35      -0.8824      2.00000
     36      -0.8824      2.00000
     37      -0.8478      2.00000
     38      -0.8478      2.00000
     39      -0.7963      2.00000
     40      -0.6209      2.00000
     41      -0.3280      2.00000
     42      -0.3280      2.00000
     43      -0.2858      2.00000
     44      -0.2160      2.00000
     45      -0.2160      2.00000
     46       0.0685      2.00000
     47       1.2065      2.00000
     48       1.2344      2.00000
     49       1.2344      2.00000
     50       1.3176      2.00000
     51       1.3176      2.00000
     52       1.4261      2.00000
     53       1.6244      2.00000
     54       1.6525      2.00000
     55       1.6525      2.00000
     56       1.6830      2.00000
     57       1.8273      2.00000
     58       1.8273      2.00000
     59       2.0286      2.00000
     60       2.0481      2.00000
     61       2.0481      2.00000
     62       2.1376      2.00000
     63       2.1401      2.00000
     64       2.1401      2.00000
     65       2.6272      2.00000
     66       2.6272      2.00000
     67       2.6455      2.00000
     68       2.6455      2.00000
     69       2.6773      2.00000
     70       2.6890      2.00000
     71       2.9059      2.00000
     72       2.9059      2.00000
     73       2.9139      2.00000
     74       2.9770      2.00000
     75       2.9770      2.00000
     76       3.0899      2.00000
     77       3.0977      2.00000
     78       3.0977      2.00000
     79       3.1331      2.00000
     80       3.1608      2.00000
     81       3.2826      2.00000
     82       3.2826      2.00000
     83       3.3351      2.00000
     84       3.3744      2.00000
     85       3.6609      2.00000
     86       3.6609      2.00000
     87       3.6743      2.00000
     88       3.7566      2.00000
     89       3.7566      2.00000
     90       3.9229      2.00000
     91       3.9453      2.00000
     92       3.9601      2.00000
     93       3.9601      2.00000
     94       4.0241      2.00000
     95       4.0241      2.00000
     96       4.2732      2.00000
     97       4.3665      2.00000
     98       4.3882      2.00000
     99       4.3882      2.00000
    100       4.4256      2.00000
    101       4.4625      2.00000
    102       4.4625      2.00000
    103       4.7030      2.00000
    104       4.7030      2.00000
    105       5.2168      2.00000
    106       5.2168      2.00000
    107       5.4823      2.00000
    108       5.4823      2.00000
    109       6.6868      0.00000
    110       6.6868      0.00000
    111       6.7023      0.00000
    112       6.7891      0.00000
    113       6.8435      0.00000
    114       6.8435      0.00000
    115       7.2462      0.00000
    116       7.6327      0.00000
    117       7.6327      0.00000
    118       7.6559      0.00000
    119       7.6626      0.00000
    120       7.6848      0.00000
    121       7.6848      0.00000
    122       8.0064      0.00000
    123       8.0623      0.00000
    124       8.1161      0.00000
    125       8.1161      0.00000
    126       8.1334      0.00000
    127       8.2318      0.00000
    128       8.2584      0.00000
    129       8.2584      0.00000
    130       8.3748      0.00000
    131       8.3894      0.00000
    132       8.3894      0.00000
    133       8.4235      0.00000
    134       8.4428      0.00000
    135       8.4428      0.00000
    136       8.8645      0.00000
    137       8.8645      0.00000
    138       8.9226      0.00000
    139       8.9226      0.00000
    140       8.9968      0.00000
    141       9.0298      0.00000
    142       9.0301      0.00000
    143       9.0335      0.00000
    144       9.1044      0.00000

 k-point     4 :       0.2500    0.2500    0.0000
  band No.  band energies     occupation 
      1      -6.1422      2.00000
      2      -5.2616      2.00000
      3      -5.2408      2.00000
      4      -5.2227      2.00000
      5      -5.2227      2.00000
      6      -5.0155      2.00000
      7      -4.4207      2.00000
      8      -4.4180      2.00000
      9      -4.4180      2.00000
     10      -4.3872      2.00000
     11      -4.2883      2.00000
     12      -4.2372      2.00000
     13      -4.2372      2.00000
     14      -4.0192      2.00000
     15      -3.5572      2.00000
     16      -3.5285      2.00000
     17      -3.5285      2.00000
     18      -3.4641      2.00000
     19      -3.3362      2.00000
     20      -3.2194      2.00000
     21      -3.2194      2.00000
     22      -3.1933      2.00000
     23      -2.8957      2.00000
     24      -2.4906      2.00000
     25      -2.4519      2.00000
     26      -2.4519      2.00000
     27      -2.1991      2.00000
     28      -1.5760      2.00000
     29      -1.5376      2.00000
     30      -1.5376      2.00000
     31      -1.4151      2.00000
     32      -1.0957      2.00000
     33      -1.0957      2.00000
     34      -1.0868      2.00000
     35      -1.0033      2.00000
     36      -0.7293      2.00000
     37      -0.5378      2.00000
     38      -0.5007      2.00000
     39      -0.5007      2.00000
     40      -0.4324      2.00000
     41      -0.3757      2.00000
     42      -0.3524      2.00000
     43      -0.3524      2.00000
     44      -0.1354      2.00000
     45       0.4974      2.00000
     46       0.5569      2.00000
     47       0.5569      2.00000
     48       0.7144      2.00000
     49       1.2732      2.00000
     50       1.3006      2.00000
     51       1.3006      2.00000
     52       1.3815      2.00000
     53       1.4137      2.00000
     54       1.4183      2.00000
     55       1.4183      2.00000
     56       1.4429      2.00000
     57       1.5521      2.00000
     58       1.5855      2.00000
     59       1.5958      2.00000
     60       1.5958      2.00000
     61       1.7953      2.00000
     62       1.8936      2.00000
     63       1.8936      2.00000
     64       1.9047      2.00000
     65       2.2851      2.00000
     66       2.8254      2.00000
     67       2.8254      2.00000
     68       2.8258      2.00000
     69       2.8487      2.00000
     70       2.9159      2.00000
     71       2.9272      2.00000
     72       2.9272      2.00000
     73       3.0058      2.00000
     74       3.0220      2.00000
     75       3.0220      2.00000
     76       3.2724      2.00000
     77       3.3061      2.00000
     78       3.3061      2.00000
     79       3.3533      2.00000
     80       3.6150      2.00000
     81       3.6251      2.00000
     82       3.6251      2.00000
     83       3.6539      2.00000
     84       3.6782      2.00000
     85       3.6871      2.00000
     86       3.6871      2.00000
     87       3.6873      2.00000
     88       3.9083      2.00000
     89       3.9083      2.00000
     90       3.9858      2.00000
     91       4.0085      2.00000
     92       4.0085      2.00000
     93       4.0235      2.00000
     94       4.1235      2.00000
     95       4.1670      2.00000
     96       4.1670      2.00000
     97       4.2754      2.00000
     98       4.2829      2.00000
     99       4.4590      2.00000
    100       4.4590      2.00000
    101       4.4772      2.00000
    102       4.9980      2.00000
    103       5.0176      2.00000
    104       5.0941      2.00000
    105       5.0941      2.00000
    106       5.1326      2.00000
    107       5.4556      2.00000
    108       5.4556      2.00000
    109       6.2674      2.00000
    110       6.7998      0.00000
    111       6.8744      0.00000
    112       7.0694      0.00000
    113       7.0736      0.00000
    114       7.0856      0.00000
    115       7.0856      0.00000
    116       7.3613      0.00000
    117       7.3613      0.00000
    118       7.4034      0.00000
    119       7.4341      0.00000
    120       7.4638      0.00000
    121       7.4644      0.00000
    122       7.4644      0.00000
    123       7.4842      0.00000
    124       7.8229      0.00000
    125       7.8229      0.00000
    126       7.8246      0.00000
    127       7.8379      0.00000
    128       7.9890      0.00000
    129       8.1087      0.00000
    130       8.1087      0.00000
    131       8.1239      0.00000
    132       8.1273      0.00000
    133       8.1374      0.00000
    134       8.1435      0.00000
    135       8.1435      0.00000
    136       8.2532      0.00000
    137       8.3028      0.00000
    138       8.3211      0.00000
    139       8.3211      0.00000
    140       8.3279      0.00000
    141       8.8198      0.00000
    142       8.8198      0.00000
    143       8.8363      0.00000
    144       8.9751      0.00000

 k-point     5 :       0.5000    0.2500    0.0000
  band No.  band energies     occupation 
      1      -5.9412      2.00000
      2      -5.6932      2.00000
      3      -5.4592      2.00000
      4      -5.2434      2.00000
      5      -5.1665      2.00000
      6      -4.7657      2.00000
      7      -4.5530      2.00000
      8      -4.5371      2.00000
      9      -4.3243      2.00000
     10      -4.1582      2.00000
     11      -4.1151      2.00000
     12      -4.0412      2.00000
     13      -3.9792      2.00000
     14      -3.8793      2.00000
     15      -3.6606      2.00000
     16      -3.6553      2.00000
     17      -3.6070      2.00000
     18      -3.4955      2.00000
     19      -3.4376      2.00000
     20      -3.4017      2.00000
     21      -3.3365      2.00000
     22      -3.0333      2.00000
     23      -2.7046      2.00000
     24      -2.6320      2.00000
     25      -2.5623      2.00000
     26      -2.5088      2.00000
     27      -2.2327      2.00000
     28      -1.4803      2.00000
     29      -1.4750      2.00000
     30      -1.4333      2.00000
     31      -1.4243      2.00000
     32      -1.3066      2.00000
     33      -1.1270      2.00000
     34      -1.0317      2.00000
     35      -1.0301      2.00000
     36      -0.9710      2.00000
     37      -0.7242      2.00000
     38      -0.6654      2.00000
     39      -0.6310      2.00000
     40      -0.6264      2.00000
     41      -0.5303      2.00000
     42      -0.3149      2.00000
     43      -0.1623      2.00000
     44       0.0603      2.00000
     45       0.0620      2.00000
     46       0.2029      2.00000
     47       0.7505      2.00000
     48       0.8160      2.00000
     49       0.9175      2.00000
     50       1.5986      2.00000
     51       1.6106      2.00000
     52       1.7128      2.00000
     53       1.7290      2.00000
     54       1.8223      2.00000
     55       1.8250      2.00000
     56       1.9531      2.00000
     57       1.9667      2.00000
     58       2.1227      2.00000
     59       2.1580      2.00000
     60       2.2148      2.00000
     61       2.2357      2.00000
     62       2.2450      2.00000
     63       2.3002      2.00000
     64       2.3156      2.00000
     65       2.4141      2.00000
     66       2.4538      2.00000
     67       2.5254      2.00000
     68       2.6319      2.00000
     69       2.6834      2.00000
     70       2.7157      2.00000
     71       2.7304      2.00000
     72       2.7973      2.00000
     73       2.8142      2.00000
     74       2.8247      2.00000
     75       2.9255      2.00000
     76       2.9350      2.00000
     77       3.0526      2.00000
     78       3.0825      2.00000
     79       3.0834      2.00000
     80       3.1453      2.00000
     81       3.1626      2.00000
     82       3.1931      2.00000
     83       3.3818      2.00000
     84       3.5059      2.00000
     85       3.5338      2.00000
     86       3.5599      2.00000
     87       3.5764      2.00000
     88       3.6351      2.00000
     89       3.7783      2.00000
     90       3.7962      2.00000
     91       3.8890      2.00000
     92       3.9119      2.00000
     93       3.9818      2.00000
     94       4.0472      2.00000
     95       4.0843      2.00000
     96       4.0927      2.00000
     97       4.1526      2.00000
     98       4.2094      2.00000
     99       4.2432      2.00000
    100       4.2619      2.00000
    101       4.4361      2.00000
    102       4.5291      2.00000
    103       4.7122      2.00000
    104       4.7910      2.00000
    105       4.8783      2.00000
    106       5.0280      2.00000
    107       5.2537      2.00000
    108       5.4779      2.00000
    109       6.4657      1.20490
    110       7.0317      0.00000
    111       7.1894      0.00000
    112       7.1948      0.00000
    113       7.2076      0.00000
    114       7.4179      0.00000
    115       7.4410      0.00000
    116       7.4417      0.00000
    117       7.6910      0.00000
    118       7.7476      0.00000
    119       7.8234      0.00000
    120       7.8301      0.00000
    121       7.9110      0.00000
    122       8.0213      0.00000
    123       8.0378      0.00000
    124       8.0960      0.00000
    125       8.2642      0.00000
    126       8.2922      0.00000
    127       8.3140      0.00000
    128       8.3142      0.00000
    129       8.3593      0.00000
    130       8.3835      0.00000
    131       8.4246      0.00000
    132       8.5456      0.00000
    133       8.6452      0.00000
    134       8.6466      0.00000
    135       8.6881      0.00000
    136       8.6900      0.00000
    137       8.7581      0.00000
    138       8.7707      0.00000
    139       8.8595      0.00000
    140       8.8940      0.00000
    141       8.9149      0.00000
    142       8.9261      0.00000
    143       8.9497      0.00000
    144       8.9615      0.00000

 k-point     6 :      -0.2500    0.2500    0.0000
  band No.  band energies     occupation 
      1      -6.0265      2.00000
      2      -5.5765      2.00000
      3      -5.5162      2.00000
      4      -5.0918      2.00000
      5      -5.0329      2.00000
      6      -4.6982      2.00000
      7      -4.6838      2.00000
      8      -4.6394      2.00000
      9      -4.5274      2.00000
     10      -4.2461      2.00000
     11      -4.1641      2.00000
     12      -4.1352      2.00000
     13      -4.0260      2.00000
     14      -3.8982      2.00000
     15      -3.5962      2.00000
     16      -3.5718      2.00000
     17      -3.5383      2.00000
     18      -3.4268      2.00000
     19      -3.2563      2.00000
     20      -3.2062      2.00000
     21      -3.0895      2.00000
     22      -3.0480      2.00000
     23      -3.0432      2.00000
     24      -2.8386      2.00000
     25      -2.7425      2.00000
     26      -2.5013      2.00000
     27      -2.1649      2.00000
     28      -1.8017      2.00000
     29      -1.2268      2.00000
     30      -1.1738      2.00000
     31      -1.0881      2.00000
     32      -1.0660      2.00000
     33      -1.0388      2.00000
     34      -1.0341      2.00000
     35      -0.9682      2.00000
     36      -0.9028      2.00000
     37      -0.8955      2.00000
     38      -0.8577      2.00000
     39      -0.8411      2.00000
     40      -0.7114      2.00000
     41      -0.6977      2.00000
     42      -0.4131      2.00000
     43       0.2019      2.00000
     44       0.2649      2.00000
     45       0.3077      2.00000
     46       0.4175      2.00000
     47       0.4726      2.00000
     48       0.4919      2.00000
     49       0.6728      2.00000
     50       1.4816      2.00000
     51       1.4855      2.00000
     52       1.7024      2.00000
     53       1.7090      2.00000
     54       1.7398      2.00000
     55       1.7421      2.00000
     56       1.8355      2.00000
     57       1.8639      2.00000
     58       1.8933      2.00000
     59       1.9649      2.00000
     60       2.1044      2.00000
     61       2.1112      2.00000
     62       2.1411      2.00000
     63       2.1569      2.00000
     64       2.3170      2.00000
     65       2.3977      2.00000
     66       2.5626      2.00000
     67       2.5778      2.00000
     68       2.6024      2.00000
     69       2.6169      2.00000
     70       2.7051      2.00000
     71       2.7699      2.00000
     72       2.7720      2.00000
     73       2.8541      2.00000
     74       3.0301      2.00000
     75       3.0544      2.00000
     76       3.0967      2.00000
     77       3.1108      2.00000
     78       3.1279      2.00000
     79       3.2264      2.00000
     80       3.2397      2.00000
     81       3.2755      2.00000
     82       3.3810      2.00000
     83       3.3872      2.00000
     84       3.4321      2.00000
     85       3.5256      2.00000
     86       3.5491      2.00000
     87       3.7191      2.00000
     88       3.7413      2.00000
     89       3.7628      2.00000
     90       3.7652      2.00000
     91       3.8747      2.00000
     92       3.9195      2.00000
     93       4.0628      2.00000
     94       4.1301      2.00000
     95       4.2526      2.00000
     96       4.3528      2.00000
     97       4.3678      2.00000
     98       4.4284      2.00000
     99       4.4428      2.00000
    100       4.4509      2.00000
    101       4.4970      2.00000
    102       4.5258      2.00000
    103       4.6032      2.00000
    104       4.7565      2.00000
    105       4.8884      2.00000
    106       4.9159      2.00000
    107       5.1160      2.00000
    108       5.6884      2.00000
    109       6.6177      0.00005
    110       6.9086      0.00000
    111       6.9217      0.00000
    112       7.0943      0.00000
    113       7.1756      0.00000
    114       7.3984      0.00000
    115       7.4023      0.00000
    116       7.4482      0.00000
    117       7.4566      0.00000
    118       7.5773      0.00000
    119       7.5787      0.00000
    120       7.6219      0.00000
    121       7.6603      0.00000
    122       7.7817      0.00000
    123       7.7923      0.00000
    124       8.0850      0.00000
    125       8.1213      0.00000
    126       8.2219      0.00000
    127       8.2613      0.00000
    128       8.2755      0.00000
    129       8.2770      0.00000
    130       8.2880      0.00000
    131       8.3033      0.00000
    132       8.3719      0.00000
    133       8.3796      0.00000
    134       8.4107      0.00000
    135       8.4213      0.00000
    136       8.6087      0.00000
    137       8.6479      0.00000
    138       8.6571      0.00000
    139       8.8894      0.00000
    140       8.8939      0.00000
    141       8.9109      0.00000
    142       8.9285      0.00000
    143       8.9913      0.00000
    144       9.0460      0.00000

 k-point     7 :       0.5000    0.5000    0.0000
  band No.  band energies     occupation 
      1      -5.8088      2.00000
      2      -5.7721      2.00000
      3      -5.3551      2.00000
      4      -5.3307      2.00000
      5      -5.3307      2.00000
      6      -5.1577      2.00000
      7      -4.0382      2.00000
      8      -4.0263      2.00000
      9      -4.0257      2.00000
     10      -4.0257      2.00000
     11      -3.9749      2.00000
     12      -3.9444      2.00000
     13      -3.9444      2.00000
     14      -3.9246      2.00000
     15      -3.8318      2.00000
     16      -3.8138      2.00000
     17      -3.8138      2.00000
     18      -3.8039      2.00000
     19      -3.7146      2.00000
     20      -3.7146      2.00000
     21      -3.6847      2.00000
     22      -3.1368      2.00000
     23      -2.1222      2.00000
     24      -2.1197      2.00000
     25      -2.0371      2.00000
     26      -2.0238      2.00000
     27      -2.0238      2.00000
     28      -2.0014      2.00000
     29      -1.9516      2.00000
     30      -1.9388      2.00000
     31      -1.9388      2.00000
     32      -1.5903      2.00000
     33      -0.9597      2.00000
     34      -0.9597      2.00000
     35      -0.9531      2.00000
     36      -0.9290      2.00000
     37      -0.8199      2.00000
     38      -0.8199      2.00000
     39      -0.8100      2.00000
     40      -0.6682      2.00000
     41       0.0096      2.00000
     42       0.0233      2.00000
     43       0.0233      2.00000
     44       0.0471      2.00000
     45       0.0645      2.00000
     46       0.1765      2.00000
     47       0.1765      2.00000
     48       0.4792      2.00000
     49       1.9481      2.00000
     50       1.9696      2.00000
     51       1.9696      2.00000
     52       2.0111      2.00000
     53       2.0111      2.00000
     54       2.0117      2.00000
     55       2.0172      2.00000
     56       2.0213      2.00000
     57       2.0213      2.00000
     58       2.0217      2.00000
     59       2.0226      2.00000
     60       2.0552      2.00000
     61       2.1137      2.00000
     62       2.1166      2.00000
     63       2.1213      2.00000
     64       2.1213      2.00000
     65       2.1499      2.00000
     66       2.3163      2.00000
     67       2.3163      2.00000
     68       2.3546      2.00000
     69       2.8328      2.00000
     70       2.8328      2.00000
     71       2.8953      2.00000
     72       2.9073      2.00000
     73       2.9210      2.00000
     74       2.9210      2.00000
     75       2.9700      2.00000
     76       2.9804      2.00000
     77       2.9804      2.00000
     78       3.0082      2.00000
     79       3.2539      2.00000
     80       3.2680      2.00000
     81       3.2680      2.00000
     82       3.2744      2.00000
     83       3.3414      2.00000
     84       3.3671      2.00000
     85       3.3724      2.00000
     86       3.3724      2.00000
     87       3.4595      2.00000
     88       3.5623      2.00000
     89       3.5623      2.00000
     90       3.5717      2.00000
     91       3.6821      2.00000
     92       3.8727      2.00000
     93       3.8727      2.00000
     94       3.8779      2.00000
     95       3.8854      2.00000
     96       3.9347      2.00000
     97       3.9422      2.00000
     98       4.1292      2.00000
     99       4.1292      2.00000
    100       4.1948      2.00000
    101       4.5132      2.00000
    102       4.5132      2.00000
    103       4.6263      2.00000
    104       4.6263      2.00000
    105       5.1141      2.00000
    106       5.1392      2.00000
    107       5.3511      2.00000
    108       5.3511      2.00000
    109       6.4001      1.96558
    110       6.4083      1.94046
    111       7.3666      0.00000
    112       7.3977      0.00000
    113       7.6809      0.00000
    114       7.6857      0.00000
    115       7.6857      0.00000
    116       7.6869      0.00000
    117       7.7342      0.00000
    118       7.7342      0.00000
    119       7.8761      0.00000
    120       7.9620      0.00000
    121       8.4033      0.00000
    122       8.4033      0.00000
    123       8.4109      0.00000
    124       8.4123      0.00000
    125       8.4123      0.00000
    126       8.4159      0.00000
    127       8.4174      0.00000
    128       8.4224      0.00000
    129       8.5231      0.00000
    130       8.5320      0.00000
    131       8.5394      0.00000
    132       8.5394      0.00000
    133       8.5769      0.00000
    134       8.6152      0.00000
    135       8.6516      0.00000
    136       8.6516      0.00000
    137       8.7238      0.00000
    138       8.7238      0.00000
    139       8.7492      0.00000
    140       8.8938      0.00000
    141       9.2356      0.00000
    142       9.2456      0.00000
    143       9.2613      0.00000
    144       9.2614      0.00000

 k-point     8 :      -0.2500    0.5000    0.2500
  band No.  band energies     occupation 
      1      -5.7324      2.00000
      2      -5.7031      2.00000
      3      -5.6797      2.00000
      4      -5.5143      2.00000
      5      -4.7819      2.00000
      6      -4.7673      2.00000
      7      -4.7312      2.00000
      8      -4.6495      2.00000
      9      -3.9784      2.00000
     10      -3.9596      2.00000
     11      -3.9582      2.00000
     12      -3.9533      2.00000
     13      -3.9099      2.00000
     14      -3.8945      2.00000
     15      -3.8439      2.00000
     16      -3.8206      2.00000
     17      -3.6993      2.00000
     18      -3.6951      2.00000
     19      -3.6502      2.00000
     20      -3.3983      2.00000
     21      -3.0727      2.00000
     22      -3.0369      2.00000
     23      -2.9761      2.00000
     24      -2.7420      2.00000
     25      -2.1019      2.00000
     26      -2.0980      2.00000
     27      -2.0320      2.00000
     28      -2.0258      2.00000
     29      -1.9155      2.00000
     30      -1.7444      2.00000
     31      -1.1647      2.00000
     32      -1.1514      2.00000
     33      -1.1511      2.00000
     34      -1.1483      2.00000
     35      -0.9714      2.00000
     36      -0.9012      2.00000
     37      -0.8757      2.00000
     38      -0.7704      2.00000
     39      -0.3752      2.00000
     40      -0.3645      2.00000
     41      -0.3566      2.00000
     42      -0.3438      2.00000
     43      -0.2730      2.00000
     44      -0.2261      2.00000
     45      -0.1989      2.00000
     46       0.0719      2.00000
     47       0.9981      2.00000
     48       1.0489      2.00000
     49       1.0595      2.00000
     50       1.1526      2.00000
     51       1.8400      2.00000
     52       1.8428      2.00000
     53       1.8617      2.00000
     54       1.9031      2.00000
     55       1.9298      2.00000
     56       2.0834      2.00000
     57       2.4132      2.00000
     58       2.4171      2.00000
     59       2.4218      2.00000
     60       2.4244      2.00000
     61       2.4667      2.00000
     62       2.4694      2.00000
     63       2.4736      2.00000
     64       2.4736      2.00000
     65       2.4856      2.00000
     66       2.5102      2.00000
     67       2.5216      2.00000
     68       2.5264      2.00000
     69       2.5362      2.00000
     70       2.5709      2.00000
     71       2.5884      2.00000
     72       2.5966      2.00000
     73       2.5983      2.00000
     74       2.6180      2.00000
     75       2.7617      2.00000
     76       2.8301      2.00000
     77       2.9870      2.00000
     78       3.0090      2.00000
     79       3.0278      2.00000
     80       3.0416      2.00000
     81       3.1196      2.00000
     82       3.1454      2.00000
     83       3.1623      2.00000
     84       3.2911      2.00000
     85       3.5341      2.00000
     86       3.5394      2.00000
     87       3.5571      2.00000
     88       3.5761      2.00000
     89       3.6036      2.00000
     90       3.6329      2.00000
     91       3.6950      2.00000
[...]
   50        0.753   0.934   0.000   1.687
   51        0.753   0.934   0.000   1.687
   52        0.754   0.944   0.000   1.697
   53        0.754   0.934   0.000   1.688
   54        0.754   0.944   0.000   1.697
--------------------------------------------------
tot         40.617  50.805   0.000  91.422
 
    CHARGE:  cpu time    0.1620: real time    0.1632
    FORLOC:  cpu time    0.0334: real time    0.0336
    FORNL :  cpu time    1.5610: real time    1.5728
    STRESS:  cpu time    5.8969: real time    5.9484
    FORCOR:  cpu time    0.1030: real time    0.1037
    FORHAR:  cpu time    0.0471: real time    0.0474
    MIXING:  cpu time    0.0134: real time    0.0135
    OFIELD:  cpu time    0.0001: real time    0.0001

  FORCE on cell =-STRESS in cart. coord.  units (eV):
  Direction    XX          YY          ZZ          XY          YZ          ZX
  --------------------------------------------------------------------------------------
  Alpha Z    93.27357    93.27357    93.27357
  Ewald   -2038.90769 -2038.90770 -2038.90770    -0.00000    -0.00000    -0.00000
  Hartree   136.24461   136.24461   136.24461    -0.00000     0.00000     0.00000
  E(xc)    -685.52397  -685.52397  -685.52399    -0.00001    -0.00001    -0.00001
  Local    -781.55516  -781.55526  -781.55476     0.00014     0.00024     0.00034
  n-local  2051.45692  2066.80879  2077.19116    -0.33240    -0.95931     0.67835
  augment  -310.04101  -310.04091  -310.04141    -0.00014    -0.00024    -0.00035
  Kinetic  1514.04281  1541.18625  1571.20562    -2.51953    -1.36275     0.96361
  Fock        0.00000     0.00000     0.00000     0.00000     0.00000     0.00000
  -------------------------------------------------------------------------------------
  Total      20.78753    20.78753    20.78753     0.00000     0.00000    -0.00000
  in kB      30.80989    30.80989    30.80989     0.00000     0.00000    -0.00000
  external pressure =       30.81 kB  Pullay stress =        0.00 kB


 VOLUME and BASIS-vectors are now :
 -----------------------------------------------------------------------------
  energy-cutoff  :      550.00
  volume of cell :     1080.99
      direct lattice vectors                 reciprocal lattice vectors
     9.976465530  0.000000000  5.759915070     0.100235900 -0.035438742  0.000000000
     3.325488510  9.405901920  5.759915070     0.000000000  0.106316227  0.000000000
     0.000000000  0.000000000 11.519830140    -0.050117950 -0.035438742  0.086806836

  length of vectors
    11.519830124 11.519830136 11.519830140     0.106316227  0.106316227  0.106316227


 FORCES acting on ions
    electron-ion (+dipol)            ewald-force                    non-local-force                 convergence-correction
 -----------------------------------------------------------------------------------------------
   -.258E-06 -.126E-06 -.389E-06   0.119E-06 -.631E-07 0.792E-11   0.113E-16 -.173E-17 0.347E-17   -.290E-07 -.205E-07 -.503E-07
   -.400E+01 -.283E+01 -.396E+01   0.358E+01 0.253E+01 0.345E+01   0.423E+00 0.299E+00 0.507E+00   -.944E-03 -.668E-03 -.306E-02
   -.400E+01 -.283E+01 0.396E+01   0.358E+01 0.253E+01 -.345E+01   0.423E+00 0.299E+00 -.507E+00   -.944E-03 -.668E-03 0.306E-02
   -.314E+01 -.409E+00 -.545E+01   0.279E+01 0.289E+00 0.483E+01   0.358E+00 0.115E+00 0.620E+00   -.135E-02 -.183E-02 -.235E-02
   -.720E+00 0.255E+00 0.163E-05   0.838E+00 -.296E+00 -.474E-11   -.919E-01 0.325E-01 -.867E-17   -.935E-02 0.331E-02 0.230E-07
   -.314E+01 -.409E+00 0.545E+01   0.279E+01 0.289E+00 -.483E+01   0.358E+00 0.115E+00 -.620E+00   -.135E-02 -.183E-02 0.235E-02
   -.855E+00 0.606E+01 -.148E+01   0.793E+00 -.535E+01 0.137E+01   0.650E-01 -.713E+00 0.113E+00   0.411E-03 0.316E-02 0.711E-03
   -.855E+00 0.606E+01 0.148E+01   0.793E+00 -.535E+01 -.137E+01   0.650E-01 -.713E+00 -.113E+00   0.411E-03 0.316E-02 -.711E-03
   -.363E+00 0.128E+00 0.880E-07   0.437E+00 -.155E+00 -.821E-11   -.734E-01 0.259E-01 0.208E-16   -.566E-02 0.200E-02 -.198E-07
   -.143E+01 -.283E+01 -.545E+01   0.120E+01 0.253E+01 0.483E+01   0.228E+00 0.299E+00 0.620E+00   -.218E-02 -.668E-03 -.235E-02
   0.862E-06 -.764E+00 0.163E-05   0.117E-06 0.888E+00 -.472E-11   0.226E-16 -.975E-01 -.694E-17   0.133E-07 -.992E-02 0.230E-07
   -.143E+01 -.283E+01 0.545E+01   0.120E+01 0.253E+01 -.483E+01   0.228E+00 0.299E+00 -.620E+00   -.218E-02 -.668E-03 0.235E-02
   0.360E+00 0.255E+00 -.624E+00   -.419E+00 -.296E+00 0.725E+00   0.459E-01 0.325E-01 -.796E-01   0.468E-02 0.331E-02 -.810E-02
   0.360E+00 0.255E+00 0.624E+00   -.419E+00 -.296E+00 -.725E+00   0.459E-01 0.325E-01 0.796E-01   0.468E-02 0.331E-02 0.810E-02
   -.643E+00 -.454E+00 0.415E-06   0.569E+00 0.402E+00 0.878E-11   0.677E-01 0.479E-01 0.173E-16   0.113E-02 0.798E-03 0.953E-08
   0.171E+01 0.606E+01 -.180E-05   -.159E+01 -.535E+01 -.360E-11   -.130E+00 -.713E+00 -.108E-17   -.821E-03 0.316E-02 -.333E-07
   -.321E+00 0.454E+00 -.556E+00   0.284E+00 -.402E+00 0.493E+00   0.339E-01 -.479E-01 0.587E-01   0.564E-03 -.798E-03 0.978E-03
   -.321E+00 0.454E+00 0.556E+00   0.284E+00 -.402E+00 -.493E+00   0.339E-01 -.479E-01 -.587E-01   0.564E-03 -.798E-03 -.978E-03
   0.543E+01 -.283E+01 -.148E+01   -.478E+01 0.253E+01 0.137E+01   -.651E+00 0.299E+00 0.113E+00   0.312E-02 -.668E-03 0.711E-03
   0.543E+01 -.283E+01 0.148E+01   -.478E+01 0.253E+01 -.137E+01   -.651E+00 0.299E+00 -.113E+00   0.312E-02 -.668E-03 -.711E-03
   -.314E-07 -.385E+00 0.880E-07   0.128E-06 0.464E+00 -.821E-11   0.182E-16 -.778E-01 0.347E-17   -.115E-07 -.600E-02 -.198E-07
   0.629E+01 -.409E+00 -.180E-05   -.558E+01 0.289E+00 -.361E-11   -.716E+00 0.115E+00 0.113E-16   0.271E-02 -.183E-02 -.333E-07
   0.321E+00 -.454E+00 -.556E+00   -.284E+00 0.402E+00 0.493E+00   -.339E-01 0.479E-01 0.587E-01   -.564E-03 0.798E-03 0.978E-03
   0.321E+00 -.454E+00 0.556E+00   -.284E+00 0.402E+00 -.493E+00   -.339E-01 0.479E-01 -.587E-01   -.564E-03 0.798E-03 -.978E-03
   0.181E+00 0.128E+00 -.314E+00   -.219E+00 -.155E+00 0.379E+00   0.367E-01 0.259E-01 -.636E-01   0.283E-02 0.200E-02 -.490E-02
   0.643E+00 0.454E+00 0.699E-06   -.569E+00 -.402E+00 -.769E-12   -.677E-01 -.479E-01 -.520E-17   -.113E-02 -.798E-03 0.325E-07
   0.181E+00 0.128E+00 0.314E+00   -.219E+00 -.155E+00 -.379E+00   0.367E-01 0.259E-01 0.636E-01   0.283E-02 0.200E-02 0.490E-02
   0.551E-06 0.309E-06 0.850E-06   -.115E-06 0.613E-07 0.368E-11   -.260E-17 -.139E-16 -.520E-17   -.214E-07 -.151E-07 -.371E-07
   0.193E+01 0.136E+01 0.130E+01   -.173E+01 -.122E+01 -.127E+01   -.174E+00 -.123E+00 -.265E-01   0.224E-02 0.158E-02 0.103E-02
   0.193E+01 0.136E+01 -.130E+01   -.173E+01 -.122E+01 0.127E+01   -.174E+00 -.123E+00 0.265E-01   0.224E-02 0.158E-02 -.103E-02
   0.134E+01 -.302E+00 0.232E+01   -.123E+01 0.186E+00 -.213E+01   -.945E-01 0.101E+00 -.164E+00   0.142E-02 -.746E-03 0.245E-02
   0.100E+02 -.354E+01 -.173E-05   -.920E+01 0.325E+01 -.345E-11   -.796E+00 0.281E+00 -.590E-16   -.109E-02 0.384E-03 0.364E-08
   0.134E+01 -.302E+00 -.232E+01   -.123E+01 0.186E+00 0.213E+01   -.945E-01 0.101E+00 0.164E+00   0.142E-02 -.746E-03 -.245E-02
   0.589E+00 -.243E+01 0.102E+01   -.498E+00 0.226E+01 -.862E+00   -.792E-01 0.144E+00 -.137E+00   0.824E-03 -.242E-02 0.143E-02
   0.589E+00 -.243E+01 -.102E+01   -.498E+00 0.226E+01 0.862E+00   -.792E-01 0.144E+00 0.137E+00   0.824E-03 -.242E-02 -.143E-02
   -.293E+00 0.104E+00 -.493E-06   0.288E+00 -.102E+00 -.570E-11   0.532E-02 -.188E-02 0.243E-16   -.198E-02 0.699E-03 0.329E-07
   0.162E+00 0.136E+01 0.232E+01   -.235E+00 -.122E+01 -.213E+01   0.638E-01 -.123E+00 -.164E+00   -.231E-03 0.158E-02 0.245E-02
   -.949E-06 0.106E+02 -.173E-05   -.975E-07 -.975E+01 -.346E-11   0.104E-16 -.844E+00 -.278E-16   0.209E-08 -.115E-02 0.364E-08
   0.162E+00 0.136E+01 -.232E+01   -.235E+00 -.122E+01 0.213E+01   0.638E-01 -.123E+00 0.164E+00   -.231E-03 0.158E-02 -.245E-02
   -.500E+01 -.354E+01 0.866E+01   0.460E+01 0.325E+01 -.796E+01   0.398E+00 0.281E+00 -.689E+00   0.544E-03 0.384E-03 -.942E-03
   -.500E+01 -.354E+01 -.866E+01   0.460E+01 0.325E+01 0.796E+01   0.398E+00 0.281E+00 0.689E+00   0.544E-03 0.384E-03 0.942E-03
   0.132E+01 0.931E+00 -.126E-05   -.864E+00 -.611E+00 -.112E-10   -.484E+00 -.342E+00 -.173E-16   -.664E-02 -.470E-02 -.430E-09
   -.118E+01 -.243E+01 0.980E-06   0.996E+00 0.226E+01 0.382E-11   0.158E+00 0.144E+00 -.694E-17   -.165E-02 -.242E-02 -.305E-08
   0.658E+00 -.931E+00 0.114E+01   -.432E+00 0.611E+00 -.748E+00   -.242E+00 0.342E+00 -.419E+00   -.332E-02 0.470E-02 -.575E-02
   0.658E+00 -.931E+00 -.114E+01   -.432E+00 0.611E+00 0.748E+00   -.242E+00 0.342E+00 0.419E+00   -.332E-02 0.470E-02 0.575E-02
   -.209E+01 0.136E+01 0.102E+01   0.196E+01 -.122E+01 -.862E+00   0.110E+00 -.123E+00 -.137E+00   -.201E-02 0.158E-02 0.143E-02
   -.209E+01 0.136E+01 -.102E+01   0.196E+01 -.122E+01 0.862E+00   0.110E+00 -.123E+00 0.137E+00   -.201E-02 0.158E-02 -.143E-02
   -.210E-06 -.311E+00 -.493E-06   -.122E-06 0.305E+00 -.567E-11   0.867E-18 0.564E-02 -.208E-16   0.191E-07 -.210E-02 0.329E-07
   -.268E+01 -.302E+00 0.980E-06   0.246E+01 0.186E+00 0.383E-11   0.189E+00 0.101E+00 -.104E-16   -.283E-02 -.746E-03 -.305E-08
   -.658E+00 0.931E+00 0.114E+01   0.432E+00 -.611E+00 -.748E+00   0.242E+00 -.342E+00 -.419E+00   0.332E-02 -.470E-02 -.575E-02
   -.658E+00 0.931E+00 -.114E+01   0.432E+00 -.611E+00 0.748E+00   0.242E+00 -.342E+00 0.419E+00   0.332E-02 -.470E-02 0.575E-02
   0.147E+00 0.104E+00 -.254E+00   -.144E+00 -.102E+00 0.249E+00   -.266E-02 -.188E-02 0.460E-02   0.989E-03 0.699E-03 -.171E-02
   -.132E+01 -.931E+00 -.180E-05   0.864E+00 0.611E+00 -.103E-11   0.484E+00 0.342E+00 0.134E-16   0.664E-02 0.470E-02 -.197E-07
   0.147E+00 0.104E+00 0.254E+00   -.144E+00 -.102E+00 -.249E+00   -.266E-02 -.188E-02 -.460E-02   0.989E-03 0.699E-03 0.171E-02
 -----------------------------------------------------------------------------------------------
   -.410E-05 -.295E-05 -.700E-05   0.530E-13 -.379E-14 0.131E-13   0.119E-14 -.220E-15 -.234E-15   -.527E-07 -.372E-07 -.912E-07
 
 
 POSITION                                       TOTAL-FORCE (eV/Angst)
 -----------------------------------------------------------------------------------
      3.87974      2.74339      6.71990        -0.000000      0.000000     -0.000000
      3.89625      2.75507     10.50596         0.003454      0.002442     -0.005415
      3.89625      2.75507     14.45368         0.003454      0.002442      0.005415
      4.98093      5.82301      8.62723         0.000164     -0.006864      0.000283
      4.99244      5.87720     12.47982         0.015975     -0.005648     -0.000000
      4.98093      5.82301     16.33240         0.000164     -0.006864     -0.000283
      6.12054      9.04631     10.60109         0.003290      0.001979      0.005699
      6.12054      9.04631     14.35854         0.003290      0.001979     -0.005699
      6.09906      9.01317     18.23973        -0.004623      0.001635     -0.000000
      7.15030      2.75507      8.62723        -0.006417      0.002442      0.000283
      7.20523      2.74785     12.47982        -0.000000      0.016944     -0.000000
      7.15030      2.75507     16.33240        -0.006417      0.002442     -0.000283
      8.31162      5.87720     10.56349        -0.007987     -0.005648      0.013834
      8.31162      5.87720     14.39615        -0.007987     -0.005648     -0.013834
      8.30785      5.87454     18.23973        -0.004951     -0.003501     -0.000000
      9.37459      9.04631     12.47982        -0.006580      0.001979     -0.000000
      9.41928      9.01814     16.31468        -0.002476      0.003501     -0.004288
      9.41928      9.01814     20.16478        -0.002476      0.003501      0.004288
     10.56912      2.75507     10.60109         0.002963      0.002442      0.005699
     10.56912      2.75507     14.35854         0.002963      0.002442     -0.005699
     10.53071      2.74586     18.23973        -0.000000     -0.004904     -0.000000
     11.65381      5.82301     12.47982        -0.000327     -0.006864     -0.000000
     11.64214      5.87454     16.31468         0.002476     -0.003501     -0.004288
     11.64214      5.87454     20.16478         0.002476     -0.003501      0.004288
     12.74654      9.01317     14.40180         0.002312      0.001635     -0.004004
     12.75357      9.01814     18.23973         0.004951      0.003501     -0.000000
     12.74654      9.01317     22.07766         0.002312      0.001635      0.004004
      0.55425      0.39191      0.95999        -0.000000      0.000000     -0.000000
      0.56199      0.39738      4.79464         0.029311      0.020726      0.005877
      0.56199      0.39738      8.64516         0.029311      0.020726     -0.005877
      1.66509      3.51742      2.88401         0.016352     -0.015928      0.028323
      1.90504      3.44155      6.71990         0.010377     -0.003669      0.000000
      1.66509      3.51742     10.55579         0.016352     -0.015928     -0.028323
      2.77664      6.66136      4.80928         0.012959     -0.025525      0.022446
      2.77664      6.66136      8.63053         0.012959     -0.025525     -0.022446
      2.77126      6.66251     12.47982        -0.001994      0.000705     -0.000000
      3.87129      0.39738      2.88401        -0.009566      0.020726      0.028323
      3.87974      0.64891      6.71990        -0.000000      0.011006     -0.000000
      3.87129      0.39738     10.55579        -0.009566      0.020726     -0.028323
      4.86708      3.44155      5.00977        -0.005188     -0.003669      0.008986
      4.86708      3.44155      8.43004        -0.005188     -0.003669     -0.008986
      4.98373      3.52403     12.47982        -0.038209     -0.027018     -0.000000
      6.08594      6.66136      6.71990        -0.025918     -0.025525      0.000000
      6.09448      6.66570     10.55595        -0.019105      0.027018     -0.033090
      6.09448      6.66570     14.40368        -0.019105      0.027018      0.033090
      7.20594      0.39738      4.80928        -0.019745      0.020726      0.022446
      7.20594      0.39738      8.63053        -0.019745      0.020726     -0.022446
      7.20523      0.39193     12.47982        -0.000000     -0.002115     -0.000000
      8.30904      3.51742      6.71990        -0.032704     -0.015928      0.000000
      8.31597      3.52403     10.55595         0.019105     -0.027018     -0.033090
      8.31597      3.52403     14.40368         0.019105     -0.027018      0.033090
      9.42221      6.66251      8.63989         0.000997      0.000705     -0.001727
      9.42672      6.66570     12.47982         0.038209      0.027018     -0.000000
      9.42221      6.66251     16.31974         0.000997      0.000705      0.001727
 -----------------------------------------------------------------------------------
    total drift:                               -0.000004     -0.000003     -0.000007


--------------------------------------------------------------------------------------------------------



  FREE ENERGIE OF THE ION-ELECTRON SYSTEM (eV)
  ---------------------------------------------------
  free  energy   TOTEN  =      -281.29251803 eV

  energy  without entropy=     -281.28078545  energy(sigma->0) =     -281.28665174
 
 d Force = 0.1524793E-01[ 0.366E-02, 0.268E-01]  d Energy = 0.1528997E-01-0.420E-04
 d Force = 0.3454287E+00[ 0.277E+00, 0.413E+00]  d Ewald  = 0.3452971E+00 0.132E-03


--------------------------------------------------------------------------------------------------------


    POTLOK:  cpu time    0.0877: real time    0.0884


--------------------------------------------------------------------------------------------------------


 Conjugate gradient step on ions:
 trial-energy change:   -0.015290  1 .order   -0.015248   -0.026835   -0.003661
  (g-gl).g = 0.989E-03      g.g   = 0.217E-01  gl.gl    = 0.282E+00
 g(Force)  = 0.217E-01   g(Stress)= 0.000E+00 ortho     = 0.156E-03
 gamma     =   0.00350
 trial     =   1.23725
 opt step  =   1.43273  (harmonic =   1.43273) maximal distance =0.01108867
 next E    =  -281.292765   (d E  =  -0.01554)


--------------------------------------------------------------------------------------------------------


  
 reached required accuracy - stopping structural energy minimisation
 writing wavefunctions
     LOOP+:  cpu time   37.5574: real time   37.9160
    4ORBIT:  cpu time    0.0000: real time    0.0000
 


 total charge     
 
# of ion       s       p       d       tot
------------------------------------------
    1        0.660   1.140   0.000   1.800
    2        0.755   0.931   0.000   1.685
    3        0.755   0.931   0.000   1.685
    4        0.754   0.931   0.000   1.686
    5        0.754   0.946   0.000   1.699
    6        0.754   0.931   0.000   1.685
    7        0.754   0.932   0.000   1.686
    8        0.754   0.932   0.000   1.686
    9        0.753   0.946   0.000   1.700
   10        0.755   0.931   0.000   1.686
   11        0.754   0.946   0.000   1.700
   12        0.755   0.931   0.000   1.686
   13        0.754   0.946   0.000   1.700
   14        0.754   0.946   0.000   1.700
   15        0.754   0.943   0.000   1.697
   16        0.755   0.931   0.000   1.686
   17        0.754   0.943   0.000   1.697
   18        0.754   0.943   0.000   1.697
   19        0.755   0.933   0.000   1.687
   20        0.755   0.933   0.000   1.687
   21        0.754   0.946   0.000   1.700
   22        0.755   0.932   0.000   1.687
   23        0.754   0.943   0.000   1.697
   24        0.754   0.943   0.000   1.697
   25        0.754   0.947   0.000   1.701
   26        0.754   0.943   0.000   1.697
   27        0.754   0.947   0.000   1.701
   28        0.754   0.945   0.000   1.699
   29        0.754   0.943   0.000   1.697
   30        0.754   0.943   0.000   1.697
   31        0.754   0.943   0.000   1.697
   32        0.754   0.905   0.000   1.658
   33        0.754   0.943   0.000   1.697
   34        0.754   0.943   0.000   1.697
   35        0.754   0.943   0.000   1.697
   36        0.754   0.944   0.000   1.697
   37        0.754   0.943   0.000   1.697
   38        0.753   0.904   0.000   1.657
   39        0.754   0.943   0.000   1.697
   40        0.752   0.904   0.000   1.656
   41        0.752   0.904   0.000   1.656
   42        0.754   0.932   0.000   1.686
   43        0.754   0.943   0.000   1.697
   44        0.753   0.934   0.000   1.686
   45        0.753   0.933   0.000   1.686
   46        0.754   0.944   0.000   1.698
   47        0.754   0.944   0.000   1.698
   48        0.754   0.944   0.000   1.697
   49        0.755   0.943   0.000   1.698
   50        0.753   0.934   0.000   1.687
   51        0.753   0.934   0.000   1.687
   52        0.754   0.944   0.000   1.697
   53        0.754   0.934   0.000   1.688
   54        0.754   0.944   0.000   1.697
--------------------------------------------------
tot         40.617  50.805   0.000  91.422
 

 total amount of memory used by VASP MPI-rank0   140598. kBytes
=======================================================================

   base      :      30000. kBytes
   nonl-proj :      59902. kBytes
   fftplans  :       5382. kBytes
   grid      :      20451. kBytes
   one-center:        165. kBytes
   wavefun   :      24698. kBytes
 
  
  
 General timing and accounting informations for this job:
 ========================================================
  
                  Total CPU time used (sec):      283.490
                            User time (sec):      276.675
                          System time (sec):        6.816
                         Elapsed time (sec):      325.803
  
                   Maximum memory used (kb):      429344.
                   Average memory used (kb):           0.
  
                          Minor page faults:        37560
                          Major page faults:            0
                 Voluntary context switches:         4228
