 vasp.5.4.4.18Apr17-6-g9f103f2a35 (build Jun 19 2019 10:34:07) complex          
  
 executed on               LB-5.4 date 2023.05.15  18:32:31
 running on   96 total cores
 distrk:  each k-point on   24 cores,    4 groups
 distr:  one band on NCORES_PER_BAND=   1 cores,   24 groups


--------------------------------------------------------------------------------------------------------


 INCAR:
 POTCAR:    PAW_PBE Si 05Jan2001                  

 ----------------------------------------------------------------------------- 
|                                                                             |
|           W    W    AA    RRRRR   N    N  II  N    N   GGGG   !!!           |
|           W    W   A  A   R    R  NN   N  II  NN   N  G    G  !!!           |
|           W    W  A    A  R    R  N N  N  II  N N  N  G       !!!           |
|           W WW W  AAAAAA  RRRRR   N  N N  II  N  N N  G  GGG   !            |
|           WW  WW  A    A  R   R   N   NN  II  N   NN  G    G                |
|           W    W  A    A  R    R  N    N  II  N    N   GGGG   !!!           |
|                                                                             |
|      For optimal performance we recommend to set                            |
|        NCORE= 4 - approx SQRT( number of cores)                             |
|      NCORE specifies how many cores store one orbital (NPAR=cpu/NCORE).     |
|      This setting can  greatly improve the performance of VASP for DFT.     |
|      The default,   NCORE=1            might be grossly inefficient         |
|      on modern multi-core architectures or massively parallel machines.     |
|      Do your own testing !!!!                                               |
|      Unfortunately you need to use the default for GW and RPA calculations. |
|      (for HF NCORE is supported but not extensively tested yet)             |
|                                                                             |
 ----------------------------------------------------------------------------- 


 ----------------------------------------------------------------------------- 
|                                                                             |
|           W    W    AA    RRRRR   N    N  II  N    N   GGGG   !!!           |
|           W    W   A  A   R    R  NN   N  II  NN   N  G    G  !!!           |
|           W    W  A    A  R    R  N N  N  II  N N  N  G       !!!           |
|           W WW W  AAAAAA  RRRRR   N  N N  II  N  N N  G  GGG   !            |
|           WW  WW  A    A  R   R   N   NN  II  N   NN  G    G                |
|           W    W  A    A  R    R  N    N  II  N    N   GGGG   !!!           |
|                                                                             |
|      You have enabled k-point parallelism (KPAR>1).                         |
|      This developmental code was originally  written by Paul Kent at ORNL,  |
|      and carefully double checked in Vienna.                                |
|      GW as well as linear response parallelism added by Martijn Marsman     |
|      and Georg Kresse.                                                      |
|      Carefully verify results versus KPAR=1.                                |
|      Report problems to Paul Kent and Vienna.                               |
|                                                                             |
 ----------------------------------------------------------------------------- 

 POTCAR:    PAW_PBE Si 05Jan2001                  
   VRHFIN =Si: s2p2                                                             
   LEXCH  = PE                                                                  
   EATOM  =   103.0669 eV,    7.5752 Ry                                         
                                                                                
   TITEL  = PAW_PBE Si 05Jan2001                                                
   LULTRA =        F    use ultrasoft PP ?                                      
   IUNSCR =        1    unscreen: 0-lin 1-nonlin 2-no                           
   RPACOR =    1.500    partial core radius                                     
   POMASS =   28.085; ZVAL   =    4.000    mass and valenz                      
   RCORE  =    1.900    outmost cutoff radius                                   
   RWIGS  =    2.480; RWIGS  =    1.312    wigner-seitz radius (au A)           
   ENMAX  =  245.345; ENMIN  =  184.009 eV                                      
   ICORE  =        2    local potential                                         
   LCOR   =        T    correct aug charges                                     
   LPAW   =        T    paw PP                                                  
   EAUG   =  322.069                                                            
   DEXC   =    0.000                                                            
   RMAX   =    1.950    core radius for proj-oper                               
   RAUG   =    1.300    factor for augmentation sphere                          
   RDEP   =    1.993    radius for radial grids                                 
   RDEPT  =    1.837    core radius for aug-charge                              
                                                                                
   Atomic configuration                                                         
    6 entries                                                                   
     n  l   j            E        occ.                                          
     1  0  0.50     -1785.8828   2.0000                                         
     2  0  0.50      -139.4969   2.0000                                         
     2  1  1.50       -95.5546   6.0000                                         
     3  0  0.50       -10.8127   2.0000                                         
     3  1  0.50        -4.0811   2.0000                                         
     3  2  1.50        -4.0817   0.0000                                         
   Description                                                                  
     l       E           TYP  RCUT    TYP  RCUT                                 
     0    -10.8127223     23  1.900                                             
     0     -7.6451159     23  1.900                                             
     1     -4.0811372     23  1.900                                             
     1      2.4879257     23  1.900                                             
     2     -4.0817478      7  1.900                                             
  local pseudopotential read in
  partial core-charges read in
  partial kinetic energy density read in
  atomic valenz-charges read in
  non local Contribution for L=           0  read in
    real space projection operators read in
  non local Contribution for L=           0  read in
    real space projection operators read in
  non local Contribution for L=           1  read in
    real space projection operators read in
  non local Contribution for L=           1  read in
    real space projection operators read in
    PAW grid and wavefunctions read in
 
   number of l-projection  operators is LMAX  =           4
   number of lm-projection operators is LMMAX =           8
 

 ----------------------------------------------------------------------------- 
|                                                                             |
|  ADVICE TO THIS USER RUNNING 'VASP/VAMP'   (HEAR YOUR MASTER'S VOICE ...):  |
|                                                                             |
|      You have a (more or less) 'large supercell' and for larger cells       |
|      it might be more efficient to use real space projection opertators     |
|      So try LREAL= Auto  in the INCAR   file.                               |
|      Mind:          For very  accurate calculation you might also keep the  |
|      reciprocal projection scheme          (i.e. LREAL=.FALSE.)             |
|                                                                             |
 ----------------------------------------------------------------------------- 

  PAW_PBE Si 05Jan2001                  :
 energy of atom  1       EATOM= -103.0669
 kinetic energy error for atom=    0.0004 (will be added to EATOM!!)
 
 
 POSCAR: Si55                                    
  positions in direct lattice
  No initial velocities read in
 exchange correlation table for  LEXCH =        8
   RHO(1)=    0.500       N(1)  =     2000
   RHO(2)=  100.500       N(2)  =     4000
 


--------------------------------------------------------------------------------------------------------


 ion  position               nearest neighbor table
   1  0.292  0.292  0.292-  32 2.35  40 2.35  41 2.35  38 2.35
   2  0.292  0.292  0.625-  33 2.35  41 2.35  42 2.35  39 2.35
   3  0.292  0.292  0.958-  31 2.35  40 2.35  42 2.35  37 2.35
   4  0.292  0.625  0.292-  35 2.35  43 2.35  44 2.35  41 2.35
   5  0.292  0.625  0.625-  36 2.35  55 2.35  44 2.35  45 2.35  42 2.35
   6  0.292  0.625  0.958-  34 2.35  43 2.35  45 2.35  40 2.35
   7  0.292  0.958  0.292-  29 2.35  37 2.35  38 2.35  44 2.35
   8  0.292  0.958  0.625-  30 2.35  38 2.35  39 2.35  45 2.35
   9  0.292  0.958  0.958-  28 2.35  37 2.35  39 2.35  43 2.35
  10  0.625  0.292  0.292-  41 2.35  49 2.35  50 2.35  47 2.35
  11  0.625  0.292  0.625-  42 2.35  55 2.35  50 2.35  51 2.35  48 2.35
  12  0.625  0.292  0.958-  40 2.35  49 2.35  51 2.35  46 2.35
  13  0.625  0.625  0.292-  44 2.35  55 2.35  52 2.35  53 2.35  50 2.35
  14  0.625  0.625  0.625-  45 2.35  55 2.35  53 2.35  54 2.35  51 2.35
  15  0.625  0.625  0.958-  43 2.35  52 2.35  54 2.35  49 2.35
  16  0.625  0.958  0.292-  38 2.35  46 2.35  47 2.35  53 2.35
  17  0.625  0.958  0.625-  39 2.35  47 2.35  48 2.35  54 2.35
  18  0.625  0.958  0.958-  37 2.35  46 2.35  48 2.35  52 2.35
  19  0.958  0.292  0.292-  50 2.35  32 2.35  31 2.35  29 2.35
  20  0.958  0.292  0.625-  51 2.35  33 2.35  32 2.35  30 2.35
  21  0.958  0.292  0.958-  49 2.35  31 2.35  33 2.35  28 2.35
  22  0.958  0.625  0.292-  53 2.35  35 2.35  34 2.35  32 2.35
  23  0.958  0.625  0.625-  54 2.35  36 2.35  35 2.35  33 2.35
  24  0.958  0.625  0.958-  52 2.35  34 2.35  36 2.35  31 2.35
  25  0.958  0.958  0.292-  47 2.35  29 2.35  28 2.35  35 2.35
  26  0.958  0.958  0.625-  48 2.35  30 2.35  29 2.35  36 2.35
  27  0.958  0.958  0.958-  46 2.35  28 2.35  30 2.35  34 2.35
  28  0.042  0.042  0.042-   9 2.35  27 2.35  25 2.35  21 2.35
  29  0.042  0.042  0.375-   7 2.35  25 2.35  26 2.35  19 2.35
  30  0.042  0.042  0.708-   8 2.35  26 2.35  27 2.35  20 2.35
  31  0.042  0.375  0.042-   3 2.35  21 2.35  19 2.35  24 2.35
  32  0.042  0.375  0.375-   1 2.35  19 2.35  20 2.35  22 2.35
  33  0.042  0.375  0.708-   2 2.35  20 2.35  21 2.35  23 2.35
  34  0.042  0.708  0.042-   6 2.35  24 2.35  22 2.35  27 2.35
  35  0.042  0.708  0.375-   4 2.35  22 2.35  23 2.35  25 2.35
  36  0.042  0.708  0.708-   5 2.35  23 2.35  24 2.35  26 2.35
  37  0.375  0.042  0.042-  18 2.35   9 2.35   7 2.35   3 2.35
  38  0.375  0.042  0.375-  16 2.35   8 2.35   7 2.35   1 2.35
  39  0.375  0.042  0.708-  17 2.35   9 2.35   8 2.35   2 2.35
  40  0.375  0.375  0.042-  12 2.35   3 2.35   1 2.35   6 2.35
  41  0.375  0.375  0.375-  10 2.35   2 2.35   1 2.35   4 2.35
  42  0.375  0.375  0.708-  11 2.35   3 2.35   2 2.35   5 2.35  55 2.72
  43  0.375  0.708  0.042-  15 2.35   6 2.35   4 2.35   9 2.35
  44  0.375  0.708  0.375-  13 2.35   5 2.35   4 2.35   7 2.35  55 2.72
  45  0.375  0.708  0.708-  14 2.35   6 2.35   5 2.35   8 2.35  55 2.72
  46  0.708  0.042  0.042-  27 2.35  18 2.35  16 2.35  12 2.35
  47  0.708  0.042  0.375-  25 2.35  17 2.35  16 2.35  10 2.35
  48  0.708  0.042  0.708-  26 2.35  18 2.35  17 2.35  11 2.35
  49  0.708  0.375  0.042-  21 2.35  12 2.35  10 2.35  15 2.35
  50  0.708  0.375  0.375-  19 2.35  11 2.35  10 2.35  13 2.35  55 2.72
  51  0.708  0.375  0.708-  20 2.35  12 2.35  11 2.35  14 2.35  55 2.72
  52  0.708  0.708  0.042-  24 2.35  15 2.35  13 2.35  18 2.35
  53  0.708  0.708  0.375-  22 2.35  14 2.35  13 2.35  16 2.35  55 2.72
  54  0.708  0.708  0.708-  23 2.35  15 2.35  14 2.35  17 2.35
  55  0.542  0.542  0.542-  14 2.35   5 2.35  13 2.35  11 2.35  53 2.72  42 2.72  51 2.72  50 2.72
                            45 2.72  44 2.72
 
  LATTYP: Found a face centered cubic cell.
 ALAT       =    16.2915000202
  
  Lattice vectors:
  
 A1 = (   9.9764655300,   0.0000000000,   5.7599150700)
 A2 = (   3.3254885100,   9.4059019200,   5.7599150700)
 A3 = (   0.0000000000,   0.0000000000,  11.5198301400)


Analysis of symmetry for initial positions (statically):
=====================================================================
 Subroutine PRICEL returns:
 Original cell was already a primitive cell.
 

 Routine SETGRP: Setting up the symmetry group for a 
 face centered cubic supercell.


 Subroutine GETGRP returns: Found 24 space group operations
 (whereof  6 operations were pure point group operations)
 out of a pool of 48 trial point group operations.


The static configuration has the point symmetry C_3v.
 The point group associated with its full space group is T_d .


Analysis of symmetry for dynamics (positions and initial velocities):
=====================================================================
 Subroutine PRICEL returns:
 Original cell was already a primitive cell.
 

 Routine SETGRP: Setting up the symmetry group for a 
 face centered cubic supercell.


 Subroutine GETGRP returns: Found 24 space group operations
 (whereof  6 operations were pure point group operations)
 out of a pool of 48 trial point group operations.


The dynamic configuration has the point symmetry C_3v.
 The point group associated with its full space group is T_d .


 Subroutine INISYM returns: Found 24 space group operations
 (whereof  6 operations are pure point group operations),
 and found     1 'primitive' translations

 
 
 KPOINTS: Automatic kpoint scheme                 

Automatic generation of k-mesh.
Space group operators:
 irot       det(A)        alpha          n_x          n_y          n_z        tau_x        tau_y        tau_z
    1     1.000000     0.000000     1.000000     0.000000     0.000000     0.000000     0.000000     0.000000
    2     1.000000   120.000000    -0.471405    -0.333333    -0.816497     0.000000     0.000000     0.000000
    3     1.000000   120.000000     0.471405     0.333333     0.816497     0.000000     0.000000     0.000000
    4    -1.000000   180.000000     0.288675     0.816497    -0.500000     0.000000     0.000000     0.000000
    5    -1.000000   180.000000     0.577350    -0.816497     0.000000     0.000000     0.000000     0.000000
    6    -1.000000   180.000000     0.866025     0.000000    -0.500000     0.000000     0.000000     0.000000
    7    -1.000000    90.000000    -0.816497    -0.577350    -0.000000     0.166667     0.000000     0.000000
    8    -1.000000   180.000000     0.866025     0.000000     0.500000     0.166667     0.000000     0.000000
    9    -1.000000    90.000000     0.408248    -0.577350     0.707107     0.166667     0.000000     0.000000
   10     1.000000   180.000000     0.816497     0.577350     0.000000     0.000000     0.000000     0.166667
   11     1.000000   120.000000     0.942809    -0.333333     0.000000     0.000000     0.000000     0.166667
   12     1.000000   120.000000    -0.000000    -1.000000    -0.000000     0.000000     0.000000     0.166667
   13    -1.000000    90.000000     0.816497     0.577350    -0.000000     0.000000     0.166667     0.000000
   14    -1.000000    90.000000     0.408248    -0.577350    -0.707107     0.000000     0.166667    -0.000000
   15    -1.000000   180.000000     0.288675     0.816497     0.500000    -0.000000     0.166667     0.000000
   16     1.000000   120.000000    -0.000000     1.000000    -0.000000     0.166667     0.000000     0.000000
   17     1.000000   120.000000     0.471405     0.333333    -0.816497     0.166667     0.000000     0.000000
   18     1.000000   180.000000    -0.408248     0.577350     0.707107     0.166667     0.000000     0.000000
   19    -1.000000    90.000000    -0.408248     0.577350    -0.707107     0.000000     0.000000     0.166667
   20    -1.000000   180.000000     0.000000    -0.000000     1.000000     0.000000     0.000000     0.166667
   21    -1.000000    90.000000    -0.408248     0.577350     0.707107     0.000000     0.000000     0.166667
   22     1.000000   120.000000    -0.942809     0.333333     0.000000    -0.000000     0.166667     0.000000
   23     1.000000   180.000000    -0.408248     0.577350    -0.707107     0.000000     0.166667    -0.000000
   24     1.000000   120.000000    -0.471405    -0.333333     0.816497     0.000000     0.166667    -0.000000
 
 Subroutine IBZKPT returns following result:
 ===========================================
 
 Found      8 irreducible k-points:
 
 Following reciprocal coordinates:
            Coordinates               Weight
  0.000000  0.000000  0.000000      1.000000
  0.250000  0.000000  0.000000      8.000000
  0.500000  0.000000  0.000000      4.000000
  0.250000  0.250000  0.000000      6.000000
  0.500000  0.250000  0.000000     24.000000
 -0.250000  0.250000  0.000000     12.000000
  0.500000  0.500000  0.000000      3.000000
 -0.250000  0.500000  0.250000      6.000000
 
 Following cartesian coordinates:
            Coordinates               Weight
  0.000000  0.000000  0.000000      1.000000
  0.025059 -0.008860  0.000000      8.000000
  0.050118 -0.017719  0.000000      4.000000
  0.025059  0.017719  0.000000      6.000000
  0.050118  0.008860  0.000000     24.000000
 -0.025059  0.035439  0.000000     12.000000
  0.050118  0.035439  0.000000      3.000000
 -0.037588  0.053158  0.021702      6.000000
 


--------------------------------------------------------------------------------------------------------




 Dimension of arrays:
   k-points           NKPTS =      8   k-points in BZ     NKDIM =      8   number of bands    NBANDS=    144
   number of dos      NEDOS =    301   number of ions     NIONS =     55
   non local maximal  LDIM  =      4   non local SUM 2l+1 LMDIM =      8
   total plane-waves  NPLWV = 343000
   max r-space proj   IRMAX =      1   max aug-charges    IRDMAX=  10807
   dimension x,y,z NGX =    70 NGY =   70 NGZ =   70
   dimension x,y,z NGXF=   140 NGYF=  140 NGZF=  140
   support grid    NGXF=   140 NGYF=  140 NGZF=  140
   ions per type =              55
   NGX,Y,Z   is equivalent  to a cutoff of  10.10, 10.10, 10.10 a.u.
   NGXF,Y,Z  is equivalent  to a cutoff of  20.20, 20.20, 20.20 a.u.

 SYSTEM =  Si                                      
 POSCAR =  Si55                                    

 Startparameter for this run:
   NWRITE =      2    write-flag & timer
   PREC   = normal    normal or accurate (medium, high low for compatibility)
   ISTART =      0    job   : 0-new  1-cont  2-samecut
   ICHARG =      2    charge: 1-file 2-atom 10-const
   ISPIN  =      1    spin polarized calculation?
   LNONCOLLINEAR =      F non collinear calculations
   LSORBIT =      F    spin-orbit coupling
   INIWAV =      1    electr: 0-lowe 1-rand  2-diag
   LASPH  =      F    aspherical Exc in radial PAW
   METAGGA=      F    non-selfconsistent MetaGGA calc.

 Electronic Relaxation 1
   ENCUT  =  550.0 eV  40.42 Ry    6.36 a.u.  22.03 22.03 22.03*2*pi/ulx,y,z
   ENINI  =  550.0     initial cutoff
   ENAUG  =  322.1 eV  augmentation charge cutoff
   NELM   =    200;   NELMIN=  2; NELMDL= -5     # of ELM steps 
   EDIFF  = 0.1E-05   stopping-criterion for ELM
   LREAL  =      F    real-space projection
   NLSPLINE    = F    spline interpolate recip. space projectors
   LCOMPAT=      F    compatible to vasp.4.4
   GGA_COMPAT  = T    GGA compatible to vasp.4.4-vasp.4.6
   LMAXPAW     = -100 max onsite density
   LMAXMIX     =    2 max onsite mixed and CHGCAR
   VOSKOWN=      0    Vosko Wilk Nusair interpolation
   ROPT   =    0.00000
 Ionic relaxation
   EDIFFG = -.5E-01   stopping-criterion for IOM
   NSW    =      0    number of steps for IOM
   NBLOCK =      1;   KBLOCK =      1    inner block; outer block 
   IBRION =     -1    ionic relax: 0-MD 1-quasi-New 2-CG
   NFREE  =      1    steps in history (QN), initial steepest desc. (CG)
   ISIF   =      2    stress and relaxation
   IWAVPR =     10    prediction:  0-non 1-charg 2-wave 3-comb
   ISYM   =      2    0-nonsym 1-usesym 2-fastsym
   LCORR  =      T    Harris-Foulkes like correction to forces

   POTIM  = 0.5000    time-step for ionic-motion
   TEIN   =    0.0    initial temperature
   TEBEG  =    0.0;   TEEND  =   0.0 temperature during run
   SMASS  =  -3.00    Nose mass-parameter (am)
   estimated Nose-frequenzy (Omega)   =  0.10E-29 period in steps =****** mass=  -0.303E-26a.u.
   SCALEE = 1.0000    scale energy and forces
   NPACO  =    256;   APACO  = 16.0  distance and # of slots for P.C.
   PSTRESS=    0.0 pullay stress

  Mass of Ions in am
   POMASS =  28.09
  Ionic Valenz
   ZVAL   =   4.00
  Atomic Wigner-Seitz radii
   RWIGS  =  -1.00
  virtual crystal weights 
   VCA    =   1.00
   NELECT =     220.0000    total number of electrons
   NUPDOWN=      -1.0000    fix difference up-down

 DOS related values:
   EMIN   =  10.00;   EMAX   =-10.00  energy-range for DOS
   EFERMI =   0.00
   ISMEAR =     0;   SIGMA  =   0.05  broadening in eV -4-tet -1-fermi 0-gaus

 Electronic relaxation 2 (details)
   IALGO  =     38    algorithm
   LDIAG  =      T    sub-space diagonalisation (order eigenvalues)
   LSUBROT=      F    optimize rotation matrix (better conditioning)
   TURBO    =      0    0=normal 1=particle mesh
   IRESTART =      0    0=no restart 2=restart with 2 vectors
   NREBOOT  =      0    no. of reboots
   NMIN     =      0    reboot dimension
   EREF     =   0.00    reference energy to select bands
   IMIX   =      4    mixing-type and parameters
     AMIX     =   0.20;   BMIX     =  1.00
     AMIX_MAG =   0.80;   BMIX_MAG =  1.00
     AMIN     =   0.10
     WC   =   100.;   INIMIX=   1;  MIXPRE=   1;  MAXMIX= -45

 Intra band minimization:
   WEIMIN = 0.0000     energy-eigenvalue tresh-hold
   EBREAK =  0.17E-08  absolut break condition
   DEPER  =   0.30     relativ break condition  

   TIME   =   0.40     timestep for ELM

  volume/ion in A,a.u.               =      19.65       132.63
  Fermi-wavevector in a.u.,A,eV,Ry     =   0.962959  1.819729 12.616558  0.927291
  Thomas-Fermi vector in A             =   2.092463
 
 Write flags
   LWAVE        =      T    write WAVECAR
   LDOWNSAMPLE  =      F    k-point downsampling of WAVECAR
   LCHARG       =      T    write CHGCAR
   LVTOT        =      F    write LOCPOT, total local potential
   LVHAR        =      F    write LOCPOT, Hartree potential only
   LELF         =      F    write electronic localiz. function (ELF)
   LORBIT       =     10    0 simple, 1 ext, 2 COOP (PROOUT), +10 PAW based schemes


 Dipole corrections
   LMONO  =      F    monopole corrections only (constant potential shift)
   LDIPOL =      F    correct potential (dipole corrections)
   IDIPOL =      0    1-x, 2-y, 3-z, 4-all directions 
   EPSILON=  1.0000000 bulk dielectric constant

 Exchange correlation treatment:
   GGA     =    --    GGA type
   LEXCH   =     8    internal setting for exchange type
   VOSKOWN=      0    Vosko Wilk Nusair interpolation
   LHFCALC =     F    Hartree Fock is set to
   LHFONE  =     F    Hartree Fock one center treatment
   AEXX    =    0.0000 exact exchange contribution

 Linear response parameters
   LEPSILON=     F    determine dielectric tensor
   LRPA    =     F    only Hartree local field effects (RPA)
   LNABLA  =     F    use nabla operator in PAW spheres
   LVEL    =     F    velocity operator in full k-point grid
   LINTERFAST=   F  fast interpolation
   KINTER  =     0    interpolate to denser k-point grid
   CSHIFT  =0.1000    complex shift for real part using Kramers Kronig
   OMEGAMAX=  -1.0    maximum frequency
   DEG_THRESHOLD= 0.2000000E-02 threshold for treating states as degnerate
   RTIME   =   -0.100 relaxation time in fs
  (WPLASMAI=    0.000 imaginary part of plasma frequency in eV, 0.658/RTIME)
   DFIELD  = 0.0000000 0.0000000 0.0000000 field for delta impulse in time
 
 Orbital magnetization related:
   ORBITALMAG=     F  switch on orbital magnetization
   LCHIMAG   =     F  perturbation theory with respect to B field
   DQ        =  0.001000  dq finite difference perturbation B field
   LLRAUG    =     F  two centre corrections for induced B field



--------------------------------------------------------------------------------------------------------


 Static calculation
 charge density and potential will be updated during run
 non-spin polarized calculation
 Variant of blocked Davidson
 Davidson routine will perform the subspace rotation
 perform sub-space diagonalisation
    after iterative eigenvector-optimisation
 modified Broyden-mixing scheme, WC =      100.0
 initial mixing is a Kerker type mixing with AMIX =  0.2000 and BMIX =      1.0000
 Hartree-type preconditioning will be used
 using additional bands           34
 reciprocal scheme for non local part
 use partial core corrections
 calculate Harris-corrections to forces 
   (improved forces if not selfconsistent)
 use gradient corrections 
 use of overlap-Matrix (Vanderbilt PP)
 Gauss-broadening in eV      SIGMA  =   0.05


--------------------------------------------------------------------------------------------------------


  energy-cutoff  :      550.00
  volume of cell :     1080.99
      direct lattice vectors                 reciprocal lattice vectors
     9.976465530  0.000000000  5.759915070     0.100235900 -0.035438742  0.000000000
     3.325488510  9.405901920  5.759915070     0.000000000  0.106316227  0.000000000
     0.000000000  0.000000000 11.519830140    -0.050117950 -0.035438742  0.086806836

  length of vectors
    11.519830124 11.519830136 11.519830140     0.106316227  0.106316227  0.106316227


 
 k-points in units of 2pi/SCALE and weight: Automatic kpoint scheme                 
   0.00000000  0.00000000  0.00000000       0.016
   0.02505897 -0.00885969  0.00000000       0.125
   0.05011795 -0.01771937  0.00000000       0.062
   0.02505897  0.01771937  0.00000000       0.094
   0.05011795  0.00885969  0.00000000       0.375
  -0.02505897  0.03543874  0.00000000       0.188
   0.05011795  0.03543874  0.00000000       0.047
  -0.03758846  0.05315811  0.02170171       0.094
 
 k-points in reciprocal lattice and weights: Automatic kpoint scheme                 
   0.00000000  0.00000000  0.00000000       0.016
   0.25000000  0.00000000  0.00000000       0.125
   0.50000000  0.00000000  0.00000000       0.062
   0.25000000  0.25000000  0.00000000       0.094
   0.50000000  0.25000000  0.00000000       0.375
  -0.25000000  0.25000000  0.00000000       0.188
   0.50000000  0.50000000  0.00000000       0.047
  -0.25000000  0.50000000  0.25000000       0.094
 
 position of ions in fractional coordinates (direct lattice) 
   0.29166667  0.29166667  0.29166667
   0.29166667  0.29166667  0.62500000
   0.29166667  0.29166667  0.95833333
   0.29166667  0.62500000  0.29166667
   0.29166667  0.62500000  0.62500000
   0.29166667  0.62500000  0.95833333
   0.29166667  0.95833333  0.29166667
   0.29166667  0.95833333  0.62500000
   0.29166667  0.95833333  0.95833333
   0.62500000  0.29166667  0.29166667
   0.62500000  0.29166667  0.62500000
   0.62500000  0.29166667  0.95833333
   0.62500000  0.62500000  0.29166667
   0.62500000  0.62500000  0.62500000
   0.62500000  0.62500000  0.95833333
   0.62500000  0.95833333  0.29166667
   0.62500000  0.95833333  0.62500000
   0.62500000  0.95833333  0.95833333
   0.95833333  0.29166667  0.29166667
   0.95833333  0.29166667  0.62500000
   0.95833333  0.29166667  0.95833333
   0.95833333  0.62500000  0.29166667
   0.95833333  0.62500000  0.62500000
   0.95833333  0.62500000  0.95833333
   0.95833333  0.95833333  0.29166667
   0.95833333  0.95833333  0.62500000
   0.95833333  0.95833333  0.95833333
   0.04166667  0.04166667  0.04166667
   0.04166667  0.04166667  0.37500000
   0.04166667  0.04166667  0.70833333
   0.04166667  0.37500000  0.04166667
   0.04166667  0.37500000  0.37500000
   0.04166667  0.37500000  0.70833333
   0.04166667  0.70833333  0.04166667
   0.04166667  0.70833333  0.37500000
   0.04166667  0.70833333  0.70833333
   0.37500000  0.04166667  0.04166667
   0.37500000  0.04166667  0.37500000
   0.37500000  0.04166667  0.70833333
   0.37500000  0.37500000  0.04166667
   0.37500000  0.37500000  0.37500000
   0.37500000  0.37500000  0.70833333
   0.37500000  0.70833333  0.04166667
   0.37500000  0.70833333  0.37500000
   0.37500000  0.70833333  0.70833333
   0.70833333  0.04166667  0.04166667
   0.70833333  0.04166667  0.37500000
   0.70833333  0.04166667  0.70833333
   0.70833333  0.37500000  0.04166667
   0.70833333  0.37500000  0.37500000
   0.70833333  0.37500000  0.70833333
   0.70833333  0.70833333  0.04166667
   0.70833333  0.70833333  0.37500000
   0.70833333  0.70833333  0.70833333
   0.54166667  0.54166667  0.54166667
 
 position of ions in cartesian coordinates  (Angst):
   3.87973659  2.74338806  6.71990091
   3.87973659  2.74338806 10.55984429
   3.87973659  2.74338806 14.39978767
   4.98823276  5.87868870  8.63987260
   4.98823276  5.87868870 12.47981598
   4.98823276  5.87868870 16.31975937
   6.09672893  9.01398934 10.55984429
   6.09672893  9.01398934 14.39978767
   6.09672893  9.01398934 18.23973106
   7.20522510  2.74338806  8.63987260
   7.20522510  2.74338806 12.47981598
   7.20522510  2.74338806 16.31975937
   8.31372128  5.87868870 10.55984429
   8.31372128  5.87868870 14.39978767
   8.31372128  5.87868870 18.23973106
   9.42221745  9.01398934 12.47981598
   9.42221745  9.01398934 16.31975937
   9.42221745  9.01398934 20.15970275
  10.53071362  2.74338806 10.55984429
  10.53071362  2.74338806 14.39978767
  10.53071362  2.74338806 18.23973106
  11.63920979  5.87868870 12.47981598
  11.63920979  5.87868870 16.31975937
  11.63920979  5.87868870 20.15970275
  12.74770596  9.01398934 14.39978767
  12.74770596  9.01398934 18.23973106
  12.74770596  9.01398934 22.07967444
   0.55424808  0.39191258  0.95998584
   0.55424808  0.39191258  4.79992922
   0.55424808  0.39191258  8.63987260
   1.66274425  3.52721322  2.87995753
   1.66274425  3.52721322  6.71990091
   1.66274425  3.52721322 10.55984430
   2.77124042  6.66251386  4.79992922
   2.77124042  6.66251386  8.63987261
   2.77124042  6.66251386 12.47981599
   3.87973659  0.39191258  2.87995753
   3.87973659  0.39191258  6.71990091
   3.87973659  0.39191258 10.55984430
   4.98823277  3.52721322  4.79992922
   4.98823277  3.52721322  8.63987261
   4.98823277  3.52721322 12.47981599
   6.09672894  6.66251386  6.71990091
   6.09672894  6.66251386 10.55984430
   6.09672894  6.66251386 14.39978768
   7.20522511  0.39191258  4.79992922
   7.20522511  0.39191258  8.63987261
   7.20522511  0.39191258 12.47981599
   8.31372128  3.52721322  6.71990091
   8.31372128  3.52721322 10.55984430
   8.31372128  3.52721322 14.39978768
   9.42221745  6.66251386  8.63987260
   9.42221745  6.66251386 12.47981599
   9.42221745  6.66251386 16.31975937
   7.20522511  5.09486354 12.47981599
 


--------------------------------------------------------------------------------------------------------


 k-point  1 :   0.0000 0.0000 0.0000  plane waves:   31415
 k-point  2 :   0.2500 0.0000 0.0000  plane waves:   31608
 k-point  3 :   0.5000 0.0000 0.0000  plane waves:   31638
 k-point  4 :   0.2500 0.2500 0.0000  plane waves:   31695
 k-point  5 :   0.5000 0.2500 0.0000  plane waves:   31649
 k-point  6 :  -0.2500 0.2500 0.0000  plane waves:   31674
 k-point  7 :   0.5000 0.5000 0.0000  plane waves:   31716
 k-point  8 :  -0.2500 0.5000 0.2500  plane waves:   31684

 maximum and minimum number of plane-waves per node :     31716    31415

 maximum number of plane-waves:     31716
 maximum index in each direction: 
   IXMAX=   22   IYMAX=   22   IZMAX=   22
   IXMIN=  -22   IYMIN=  -22   IZMIN=  -22


 serial   3D FFT for wavefunctions
 parallel 3D FFT for charge:
    minimum data exchange during FFTs selected (reduces bandwidth)


 total amount of memory used by VASP MPI-rank0   123928. kBytes
=======================================================================

   base      :      30000. kBytes
   nonl-proj :      44165. kBytes
   fftplans  :       5382. kBytes
   grid      :      19496. kBytes
   one-center:        168. kBytes
   wavefun   :      24717. kBytes
 
     INWAV:  cpu time    0.0000: real time    0.0000
 Broyden mixing: mesh for mixing (old mesh)
   NGX = 45   NGY = 45   NGZ = 45
  (NGX  =140   NGY  =140   NGZ  =140)
  gives a total of  91125 points

 initial charge density was supplied:
 charge density of overlapping atoms calculated
 number of electron     220.0000000 magnetization 
 keeping initial charge density in first step


--------------------------------------------------------------------------------------------------------


 Maximum index for augmentation-charges          503 (set IRDMAX)


--------------------------------------------------------------------------------------------------------


 First call to EWALD:  gamma=   0.173
 Maximum number of real-space cells 3x 3x 3
 Maximum number of reciprocal cells 3x 3x 3

    FEWALD:  cpu time    0.0572: real time    0.0581


--------------------------------------- Iteration      1(   1)  ---------------------------------------


    POTLOK:  cpu time    0.1865: real time    0.1961
    SETDIJ:  cpu time    0.0164: real time    0.0168
     EDDAV:  cpu time    4.0116: real time    4.0534
       DOS:  cpu time    0.4167: real time    0.4217
    --------------------------------------------
      LOOP:  cpu time    4.6312: real time    4.6881

 eigenvalue-minimisations  :  2304
 total energy-change (2. order) : 0.5901040E+03  (-0.8773923E+04)
 number of electron     220.0000000 magnetization 
 augmentation part      220.0000000 magnetization 

 Free energy of the ion-electron system (eV)
  ---------------------------------------------------
  alpha Z        PSCENC =        94.20124788
  Ewald energy   TEWEN  =     -6283.32455330
  -Hartree energ DENC   =      -334.73833171
  -exchange      EXHF   =         0.00000000
  -V(xc)+E(xc)   XCENC  =      -509.16019900
  PAW double counting   =      4846.80897882    -3879.17847845
  entropy T*S    EENTRO =        -0.01111084
  eigenvalues    EBANDS =       986.85063290
  atomic energy  EATOM  =      5668.65580356
  Solvation  Ediel_sol  =         0.00000000
  ---------------------------------------------------
  free energy    TOTEN  =       590.10398987 eV

  energy without entropy =      590.11510071  energy(sigma->0) =      590.10954529


--------------------------------------------------------------------------------------------------------




--------------------------------------- Iteration      1(   2)  ---------------------------------------


     EDDAV:  cpu time    4.1969: real time    4.2384
       DOS:  cpu time    0.0053: real time    0.0053
    --------------------------------------------
      LOOP:  cpu time    4.2022: real time    4.2437

 eigenvalue-minimisations  :  2832
 total energy-change (2. order) :-0.8364242E+03  (-0.8063722E+03)
 number of electron     220.0000000 magnetization 
 augmentation part      220.0000000 magnetization 

 Free energy of the ion-electron system (eV)
  ---------------------------------------------------
  alpha Z        PSCENC =        94.20124788
  Ewald energy   TEWEN  =     -6283.32455330
  -Hartree energ DENC   =      -334.73833171
  -exchange      EXHF   =         0.00000000
  -V(xc)+E(xc)   XCENC  =      -509.16019900
  PAW double counting   =      4846.80897882    -3879.17847845
  entropy T*S    EENTRO =        -0.02105106
  eigenvalues    EBANDS =       150.43633865
  atomic energy  EATOM  =      5668.65580356
  Solvation  Ediel_sol  =         0.00000000
  ---------------------------------------------------
  free energy    TOTEN  =      -246.32024460 eV

  energy without entropy =     -246.29919354  energy(sigma->0) =     -246.30971907


--------------------------------------------------------------------------------------------------------




--------------------------------------- Iteration      1(   3)  ---------------------------------------


     EDDAV:  cpu time    4.2186: real time    4.2595
       DOS:  cpu time    0.3949: real time    0.3995
    --------------------------------------------
      LOOP:  cpu time    4.6135: real time    4.6590

 eigenvalue-minimisations  :  2856
 total energy-change (2. order) :-0.5139773E+02  (-0.5064805E+02)
 number of electron     220.0000000 magnetization 
 augmentation part      220.0000000 magnetization 

 Free energy of the ion-electron system (eV)
  ---------------------------------------------------
  alpha Z        PSCENC =        94.20124788
  Ewald energy   TEWEN  =     -6283.32455330
  -Hartree energ DENC   =      -334.73833171
  -exchange      EXHF   =         0.00000000
  -V(xc)+E(xc)   XCENC  =      -509.16019900
  PAW double counting   =      4846.80897882    -3879.17847845
  entropy T*S    EENTRO =        -0.01776335
  eigenvalues    EBANDS =        99.03532252
  atomic energy  EATOM  =      5668.65580356
  Solvation  Ediel_sol  =         0.00000000
  ---------------------------------------------------
  free energy    TOTEN  =      -297.71797302 eV

  energy without entropy =     -297.70020967  energy(sigma->0) =     -297.70909135


--------------------------------------------------------------------------------------------------------




--------------------------------------- Iteration      1(   4)  ---------------------------------------


     EDDAV:  cpu time    5.8897: real time    5.9495
       DOS:  cpu time    0.5638: real time    0.5711
    --------------------------------------------
      LOOP:  cpu time    6.4535: real time    6.5207

 eigenvalue-minimisations  :  2904
 total energy-change (2. order) :-0.1204240E+01  (-0.1196389E+01)
 number of electron     220.0000000 magnetization 
 augmentation part      220.0000000 magnetization 

 Free energy of the ion-electron system (eV)
  ---------------------------------------------------
  alpha Z        PSCENC =        94.20124788
  Ewald energy   TEWEN  =     -6283.32455330
  -Hartree energ DENC   =      -334.73833171
  -exchange      EXHF   =         0.00000000
  -V(xc)+E(xc)   XCENC  =      -509.16019900
  PAW double counting   =      4846.80897882    -3879.17847845
  entropy T*S    EENTRO =        -0.01663909
  eigenvalues    EBANDS =        97.82995807
  atomic energy  EATOM  =      5668.65580356
  Solvation  Ediel_sol  =         0.00000000
  ---------------------------------------------------
  free energy    TOTEN  =      -298.92221322 eV

  energy without entropy =     -298.90557412  energy(sigma->0) =     -298.91389367


--------------------------------------------------------------------------------------------------------




--------------------------------------- Iteration      1(   5)  ---------------------------------------


     EDDAV:  cpu time    4.1909: real time    4.2405
       DOS:  cpu time    0.0063: real time    0.0063
    CHARGE:  cpu time    0.1719: real time    0.1736
    MIXING:  cpu time    0.0063: real time    0.0065
    --------------------------------------------
      LOOP:  cpu time    4.3754: real time    4.4270

 eigenvalue-minimisations  :  2856
 total energy-change (2. order) :-0.2381138E-01  (-0.2378166E-01)
 number of electron     220.0000000 magnetization 
 augmentation part      -13.0015367 magnetization 

 Broyden mixing:
  rms(total) = 0.25798E+01    rms(broyden)= 0.25798E+01
  rms(prec ) = 0.29423E+01
  weight for this iteration     100.00

 Free energy of the ion-electron system (eV)
  ---------------------------------------------------
  alpha Z        PSCENC =        94.20124788
  Ewald energy   TEWEN  =     -6283.32455330
  -Hartree energ DENC   =      -334.73833171
  -exchange      EXHF   =         0.00000000
  -V(xc)+E(xc)   XCENC  =      -509.16019900
  PAW double counting   =      4846.80897882    -3879.17847845
  entropy T*S    EENTRO =        -0.01669587
  eigenvalues    EBANDS =        97.80620347
  atomic energy  EATOM  =      5668.65580356
  Solvation  Ediel_sol  =         0.00000000
  ---------------------------------------------------
  free energy    TOTEN  =      -298.94602459 eV

  energy without entropy =     -298.92932872  energy(sigma->0) =     -298.93767666


--------------------------------------------------------------------------------------------------------




--------------------------------------- Iteration      1(   6)  ---------------------------------------


    POTLOK:  cpu time    0.0826: real time    0.0838
    SETDIJ:  cpu time    0.0083: real time    0.0084
     EDDAV:  cpu time    5.3972: real time    5.4543
       DOS:  cpu time    0.5116: real time    0.5197
    CHARGE:  cpu time    0.2598: real time    0.2630
    MIXING:  cpu time    0.1541: real time    0.1565
    --------------------------------------------
      LOOP:  cpu time    6.4136: real time    6.4856

 eigenvalue-minimisations  :  2808
 total energy-change (2. order) : 0.1963396E+01  (-0.6853303E-01)
 number of electron     220.0000000 magnetization 
 augmentation part      -12.9224212 magnetization 

 Broyden mixing:
  rms(total) = 0.20769E+01    rms(broyden)= 0.20769E+01
  rms(prec ) = 0.23547E+01
  weight for this iteration     100.00

 eigenvalues of (default mixing * dielectric matrix)
  average eigenvalue GAMMA=   5.0768
  5.0768

 Free energy of the ion-electron system (eV)
  ---------------------------------------------------
  alpha Z        PSCENC =        94.20124788
  Ewald energy   TEWEN  =     -6283.32455330
  -Hartree energ DENC   =      -354.65269177
  -exchange      EXHF   =         0.00000000
  -V(xc)+E(xc)   XCENC  =      -506.11615890
  PAW double counting   =      7362.22311946    -6396.06369865
  entropy T*S    EENTRO =        -0.02126399
  eigenvalues    EBANDS =       118.11556707
  atomic energy  EATOM  =      5668.65580356
  Solvation  Ediel_sol  =         0.00000000
  ---------------------------------------------------
  free energy    TOTEN  =      -296.98262864 eV

  energy without entropy =     -296.96136465  energy(sigma->0) =     -296.97199665


--------------------------------------------------------------------------------------------------------




--------------------------------------- Iteration      1(   7)  ---------------------------------------


    POTLOK:  cpu time    0.0696: real time    0.0709
    SETDIJ:  cpu time    0.1787: real time    0.1806
     EDDAV:  cpu time    4.8525: real time    4.9046
       DOS:  cpu time    0.0084: real time    0.0084
    CHARGE:  cpu time    0.1636: real time    0.1646
    MIXING:  cpu time    0.0036: real time    0.0037
    --------------------------------------------
      LOOP:  cpu time    5.2764: real time    5.3328

 eigenvalue-minimisations  :  2640
 total energy-change (2. order) : 0.2952532E+01  (-0.7544358E+00)
 number of electron     220.0000000 magnetization 
 augmentation part      -12.6597442 magnetization 

 Broyden mixing:
  rms(total) = 0.19239E+00    rms(broyden)= 0.19239E+00
  rms(prec ) = 0.25362E+00
  weight for this iteration     100.00

 eigenvalues of (default mixing * dielectric matrix)
  average eigenvalue GAMMA=   3.2059
  1.4323  4.9794

 Free energy of the ion-electron system (eV)
  ---------------------------------------------------
  alpha Z        PSCENC =        94.20124788
  Ewald energy   TEWEN  =     -6283.32455330
  -Hartree energ DENC   =      -438.39201140
  -exchange      EXHF   =         0.00000000
  -V(xc)+E(xc)   XCENC  =      -492.90550493
  PAW double counting   =     23400.22841005   -22439.56485168
  entropy T*S    EENTRO =        -0.02190770
  eigenvalues    EBANDS =       197.09327046
  atomic energy  EATOM  =      5668.65580356
  Solvation  Ediel_sol  =         0.00000000
  ---------------------------------------------------
  free energy    TOTEN  =      -294.03009706 eV

  energy without entropy =     -294.00818936  energy(sigma->0) =     -294.01914321


--------------------------------------------------------------------------------------------------------




--------------------------------------- Iteration      1(   8)  ---------------------------------------


    POTLOK:  cpu time    0.0834: real time    0.0845
    SETDIJ:  cpu time    0.0049: real time    0.0049
     EDDAV:  cpu time    4.0394: real time    4.0730
       DOS:  cpu time    0.0071: real time    0.0071
    CHARGE:  cpu time    0.1629: real time    0.1639
    MIXING:  cpu time    0.0038: real time    0.0039
    --------------------------------------------
      LOOP:  cpu time    4.3014: real time    4.3373

 eigenvalue-minimisations  :  2928
 total energy-change (2. order) :-0.1839252E-01  (-0.4611178E-01)
 number of electron     220.0000000 magnetization 
 augmentation part      -12.6629585 magnetization 

 Broyden mixing:
  rms(total) = 0.10429E+00    rms(broyden)= 0.10429E+00
  rms(prec ) = 0.13893E+00
  weight for this iteration     100.00

 eigenvalues of (default mixing * dielectric matrix)
  average eigenvalue GAMMA=   2.4487
  4.9694  0.9245  1.4521

 Free energy of the ion-electron system (eV)
  ---------------------------------------------------
  alpha Z        PSCENC =        94.20124788
  Ewald energy   TEWEN  =     -6283.32455330
  -Hartree energ DENC   =      -439.40570006
  -exchange      EXHF   =         0.00000000
  -V(xc)+E(xc)   XCENC  =      -492.47219875
  PAW double counting   =     24273.06802587   -23312.23732176
  entropy T*S    EENTRO =        -0.02134088
  eigenvalues    EBANDS =       197.48754785
  atomic energy  EATOM  =      5668.65580356
  Solvation  Ediel_sol  =         0.00000000
  ---------------------------------------------------
  free energy    TOTEN  =      -294.04848958 eV

  energy without entropy =     -294.02714871  energy(sigma->0) =     -294.03781914


--------------------------------------------------------------------------------------------------------




--------------------------------------- Iteration      1(   9)  ---------------------------------------


    POTLOK:  cpu time    0.0771: real time    0.0782
    SETDIJ:  cpu time    0.0073: real time    0.0074
     EDDAV:  cpu time    4.1485: real time    4.1825
       DOS:  cpu time    0.0071: real time    0.0071
    CHARGE:  cpu time    0.1627: real time    0.1639
    MIXING:  cpu time    0.0039: real time    0.0039
    --------------------------------------------
      LOOP:  cpu time    4.4067: real time    4.4431

 eigenvalue-minimisations  :  2928
 total energy-change (2. order) : 0.4588187E-02  (-0.4094585E-02)
 number of electron     220.0000000 magnetization 
 augmentation part      -12.6725878 magnetization 

 Broyden mixing:
  rms(total) = 0.75552E-01    rms(broyden)= 0.75552E-01
  rms(prec ) = 0.95217E-01
  weight for this iteration     100.00

 eigenvalues of (default mixing * dielectric matrix)
  average eigenvalue GAMMA=   2.5137
  4.7991  2.9239  1.1658  1.1658

 Free energy of the ion-electron system (eV)
  ---------------------------------------------------
  alpha Z        PSCENC =        94.20124788
  Ewald energy   TEWEN  =     -6283.32455330
  -Hartree energ DENC   =      -438.18912645
  -exchange      EXHF   =         0.00000000
  -V(xc)+E(xc)   XCENC  =      -492.52239546
  PAW double counting   =     24291.07928562   -23329.99041399
  entropy T*S    EENTRO =        -0.02098841
  eigenvalues    EBANDS =       196.06723915
  atomic energy  EATOM  =      5668.65580356
  Solvation  Ediel_sol  =         0.00000000
  ---------------------------------------------------
  free energy    TOTEN  =      -294.04390140 eV

  energy without entropy =     -294.02291298  energy(sigma->0) =     -294.03340719


--------------------------------------------------------------------------------------------------------




--------------------------------------- Iteration      1(  10)  ---------------------------------------


    POTLOK:  cpu time    0.0766: real time    0.0777
    SETDIJ:  cpu time    0.0076: real time    0.0077
     EDDAV:  cpu time    3.9575: real time    3.9923
       DOS:  cpu time    0.0074: real time    0.0075
    CHARGE:  cpu time    0.1709: real time    0.1721
    MIXING:  cpu time    0.0074: real time    0.0074
    --------------------------------------------
      LOOP:  cpu time    4.2275: real time    4.2647

 eigenvalue-minimisations  :  2832
 total energy-change (2. order) :-0.2810109E-02  (-0.2481623E-02)
 number of electron     220.0000000 magnetization 
 augmentation part      -12.6833853 magnetization 

 Broyden mixing:
  rms(total) = 0.39469E-01    rms(broyden)= 0.39469E-01
  rms(prec ) = 0.47296E-01
  weight for this iteration     100.00

 eigenvalues of (default mixing * dielectric matrix)
  average eigenvalue GAMMA=   2.5872
  4.5168  4.5168  1.7133  0.9825  1.2066

 Free energy of the ion-electron system (eV)
  ---------------------------------------------------
  alpha Z        PSCENC =        94.20124788
  Ewald energy   TEWEN  =     -6283.32455330
  -Hartree energ DENC   =      -437.07368717
  -exchange      EXHF   =         0.00000000
  -V(xc)+E(xc)   XCENC  =      -492.55537770
  PAW double counting   =     24268.00317902   -23306.60684482
  entropy T*S    EENTRO =        -0.02082482
  eigenvalues    EBANDS =       194.67434585
  atomic energy  EATOM  =      5668.65580356
  Solvation  Ediel_sol  =         0.00000000
  ---------------------------------------------------
  free energy    TOTEN  =      -294.04671150 eV

  energy without entropy =     -294.02588668  energy(sigma->0) =     -294.03629909


--------------------------------------------------------------------------------------------------------




--------------------------------------- Iteration      1(  11)  ---------------------------------------


    POTLOK:  cpu time    0.0774: real time    0.0814
    SETDIJ:  cpu time    0.0044: real time    0.0045
     EDDAV:  cpu time    3.7685: real time    3.8014
       DOS:  cpu time    0.0062: real time    0.0062
    CHARGE:  cpu time    0.1630: real time    0.1641
    MIXING:  cpu time    0.0046: real time    0.0046
    --------------------------------------------
      LOOP:  cpu time    4.0241: real time    4.0623

 eigenvalue-minimisations  :  2688
 total energy-change (2. order) :-0.4545680E-02  (-0.1014515E-02)
 number of electron     220.0000000 magnetization 
 augmentation part      -12.6914817 magnetization 

 Broyden mixing:
  rms(total) = 0.22884E-01    rms(broyden)= 0.22884E-01
  rms(prec ) = 0.26732E-01
  weight for this iteration     100.00

 eigenvalues of (default mixing * dielectric matrix)
  average eigenvalue GAMMA=   2.2895
  4.5278  4.5278  1.8537  1.0873  1.0873  0.6530

 Free energy of the ion-electron system (eV)
  ---------------------------------------------------
  alpha Z        PSCENC =        94.20124788
  Ewald energy   TEWEN  =     -6283.32455330
  -Hartree energ DENC   =      -436.68234422
  -exchange      EXHF   =         0.00000000
  -V(xc)+E(xc)   XCENC  =      -492.52429626
  PAW double counting   =     24240.71105016   -23279.13838068
  entropy T*S    EENTRO =        -0.02080618
  eigenvalues    EBANDS =       194.07102187
  atomic energy  EATOM  =      5668.65580356
  Solvation  Ediel_sol  =         0.00000000
  ---------------------------------------------------
  free energy    TOTEN  =      -294.05125718 eV

  energy without entropy =     -294.03045100  energy(sigma->0) =     -294.04085409


--------------------------------------------------------------------------------------------------------




--------------------------------------- Iteration      1(  12)  ---------------------------------------


    POTLOK:  cpu time    0.0853: real time    0.0864
    SETDIJ:  cpu time    0.0037: real time    0.0037
     EDDAV:  cpu time    4.2108: real time    4.2496
       DOS:  cpu time    0.0064: real time    0.0064
    CHARGE:  cpu time    0.1627: real time    0.1637
    MIXING:  cpu time    0.0064: real time    0.0065
    --------------------------------------------
      LOOP:  cpu time    4.4753: real time    4.5163

 eigenvalue-minimisations  :  3072
 total energy-change (2. order) :-0.8366721E-03  (-0.7691773E-04)
 number of electron     220.0000000 magnetization 
 augmentation part      -12.6922600 magnetization 

 Broyden mixing:
  rms(total) = 0.17551E-01    rms(broyden)= 0.17551E-01
  rms(prec ) = 0.20036E-01
  weight for this iteration     100.00

 eigenvalues of (default mixing * dielectric matrix)
  average eigenvalue GAMMA=   2.6681
  5.1815  5.1815  3.1463  1.8721  1.2922  0.9230  1.0803

 Free energy of the ion-electron system (eV)
  ---------------------------------------------------
  alpha Z        PSCENC =        94.20124788
  Ewald energy   TEWEN  =     -6283.32455330
  -Hartree energ DENC   =      -436.77029500
  -exchange      EXHF   =         0.00000000
  -V(xc)+E(xc)   XCENC  =      -492.50367794
  PAW double counting   =     24178.34977428   -23216.75168193
  entropy T*S    EENTRO =        -0.02085156
  eigenvalues    EBANDS =       194.11214014
  atomic energy  EATOM  =      5668.65580356
  Solvation  Ediel_sol  =         0.00000000
  ---------------------------------------------------
  free energy    TOTEN  =      -294.05209386 eV

  energy without entropy =     -294.03124230  energy(sigma->0) =     -294.04166808


--------------------------------------------------------------------------------------------------------




--------------------------------------- Iteration      1(  13)  ---------------------------------------


    POTLOK:  cpu time    0.0847: real time    0.0858
    SETDIJ:  cpu time    0.0038: real time    0.0039
     EDDAV:  cpu time    3.7421: real time    3.7744
       DOS:  cpu time    0.0061: real time    0.0061
    CHARGE:  cpu time    0.1629: real time    0.1639
    MIXING:  cpu time    0.0046: real time    0.0046
    --------------------------------------------
      LOOP:  cpu time    4.0042: real time    4.0387

 eigenvalue-minimisations  :  2640
 total energy-change (2. order) :-0.1067927E-02  (-0.1336449E-03)
 number of electron     220.0000000 magnetization 
 augmentation part      -12.6932340 magnetization 

 Broyden mixing:
  rms(total) = 0.52862E-02    rms(broyden)= 0.52862E-02
  rms(prec ) = 0.68696E-02
  weight for this iteration     100.00

 eigenvalues of (default mixing * dielectric matrix)
  average eigenvalue GAMMA=   2.5466
  5.1109  5.1109  3.6228  1.9889  0.9345  1.0107  1.3595  1.2345

 Free energy of the ion-electron system (eV)
  ---------------------------------------------------
  alpha Z        PSCENC =        94.20124788
  Ewald energy   TEWEN  =     -6283.32455330
  -Hartree energ DENC   =      -437.07856091
  -exchange      EXHF   =         0.00000000
  -V(xc)+E(xc)   XCENC  =      -492.43842932
  PAW double counting   =     24086.26093599   -23124.62071513
  entropy T*S    EENTRO =        -0.02088842
  eigenvalues    EBANDS =       194.31199787
  atomic energy  EATOM  =      5668.65580356
  Solvation  Ediel_sol  =         0.00000000
  ---------------------------------------------------
  free energy    TOTEN  =      -294.05316178 eV

  energy without entropy =     -294.03227336  energy(sigma->0) =     -294.04271757


--------------------------------------------------------------------------------------------------------




--------------------------------------- Iteration      1(  14)  ---------------------------------------


    POTLOK:  cpu time    0.0857: real time    0.0868
    SETDIJ:  cpu time    0.0040: real time    0.0041
     EDDAV:  cpu time    3.9531: real time    3.9875
       DOS:  cpu time    0.0062: real time    0.0062
    CHARGE:  cpu time    0.1625: real time    0.1635
    MIXING:  cpu time    0.0048: real time    0.0049
    --------------------------------------------
      LOOP:  cpu time    4.2163: real time    4.2529

 eigenvalue-minimisations  :  2808
 total energy-change (2. order) :-0.6245871E-04  (-0.1996812E-04)
 number of electron     220.0000000 magnetization 
 augmentation part      -12.6926647 magnetization 

 Broyden mixing:
  rms(total) = 0.32947E-02    rms(broyden)= 0.32947E-02
  rms(prec ) = 0.38007E-02
  weight for this iteration     100.00

 eigenvalues of (default mixing * dielectric matrix)
  average eigenvalue GAMMA=   2.4157
  5.3359  5.1105  3.8324  1.8884  1.4503  1.4503  0.9497  0.9497  0.7747

 Free energy of the ion-electron system (eV)
  ---------------------------------------------------
  alpha Z        PSCENC =        94.20124788
  Ewald energy   TEWEN  =     -6283.32455330
  -Hartree energ DENC   =      -437.36236223
  -exchange      EXHF   =         0.00000000
  -V(xc)+E(xc)   XCENC  =      -492.39991593
  PAW double counting   =     24089.65871115   -23128.03228999
  entropy T*S    EENTRO =        -0.02088462
  eigenvalues    EBANDS =       194.57101924
  atomic energy  EATOM  =      5668.65580356
  Solvation  Ediel_sol  =         0.00000000
  ---------------------------------------------------
  free energy    TOTEN  =      -294.05322424 eV

  energy without entropy =     -294.03233962  energy(sigma->0) =     -294.04278193


--------------------------------------------------------------------------------------------------------




--------------------------------------- Iteration      1(  15)  ---------------------------------------


    POTLOK:  cpu time    0.0834: real time    0.0846
    SETDIJ:  cpu time    0.0038: real time    0.0038
     EDDAV:  cpu time    3.9935: real time    4.0319
       DOS:  cpu time    0.0063: real time    0.0063
    CHARGE:  cpu time    0.1667: real time    0.1678
    MIXING:  cpu time    0.0065: real time    0.0065
    --------------------------------------------
      LOOP:  cpu time    4.2601: real time    4.3009

 eigenvalue-minimisations  :  2832
 total energy-change (2. order) :-0.2361685E-04  (-0.3355281E-05)
 number of electron     220.0000000 magnetization 
 augmentation part      -12.6924573 magnetization 

 Broyden mixing:
  rms(total) = 0.19533E-02    rms(broyden)= 0.19533E-02
  rms(prec ) = 0.21965E-02
  weight for this iteration     100.00

 eigenvalues of (default mixing * dielectric matrix)
  average eigenvalue GAMMA=   2.5221
  5.9944  4.9509  3.5434  2.5580  2.5580  1.4705  1.2044  1.0524  0.9210  0.9679

 Free energy of the ion-electron system (eV)
  ---------------------------------------------------
  alpha Z        PSCENC =        94.20124788
  Ewald energy   TEWEN  =     -6283.32455330
  -Hartree energ DENC   =      -437.43593634
  -exchange      EXHF   =         0.00000000
  -V(xc)+E(xc)   XCENC  =      -492.39216156
  PAW double counting   =     24068.17589009   -23106.55126258
  entropy T*S    EENTRO =        -0.02087979
  eigenvalues    EBANDS =       194.63860419
  atomic energy  EATOM  =      5668.65580356
  Solvation  Ediel_sol  =         0.00000000
  ---------------------------------------------------
  free energy    TOTEN  =      -294.05324786 eV

  energy without entropy =     -294.03236807  energy(sigma->0) =     -294.04280796


--------------------------------------------------------------------------------------------------------




--------------------------------------- Iteration      1(  16)  ---------------------------------------


    POTLOK:  cpu time    0.0806: real time    0.0818
    SETDIJ:  cpu time    0.0055: real time    0.0055
     EDDAV:  cpu time    3.8357: real time    4.0722
       DOS:  cpu time    0.0054: real time    0.0055
    CHARGE:  cpu time    0.1719: real time    0.1729
    MIXING:  cpu time    0.0053: real time    0.0054
    --------------------------------------------
      LOOP:  cpu time    4.1045: real time    4.3433

 eigenvalue-minimisations  :  2880
 total energy-change (2. order) :-0.2104196E-05  (-0.1166751E-05)
 number of electron     220.0000000 magnetization 
 augmentation part      -12.6924723 magnetization 

 Broyden mixing:
  rms(total) = 0.81565E-03    rms(broyden)= 0.81565E-03
  rms(prec ) = 0.10031E-02
  weight for this iteration     100.00

 eigenvalues of (default mixing * dielectric matrix)
  average eigenvalue GAMMA=   2.5038
  5.9676  4.7563  4.1269  3.2654  2.6154  1.4592  1.4592  0.9051  1.0148  0.9861
  0.9861

 Free energy of the ion-electron system (eV)
  ---------------------------------------------------
  alpha Z        PSCENC =        94.20124788
  Ewald energy   TEWEN  =     -6283.32455330
  -Hartree energ DENC   =      -437.44910235
  -exchange      EXHF   =         0.00000000
  -V(xc)+E(xc)   XCENC  =      -492.39010500
  PAW double counting   =     24067.27324294   -23105.64698980
  entropy T*S    EENTRO =        -0.02087664
  eigenvalues    EBANDS =       194.64808275
  atomic energy  EATOM  =      5668.65580356
  Solvation  Ediel_sol  =         0.00000000
  ---------------------------------------------------
  free energy    TOTEN  =      -294.05324996 eV

  energy without entropy =     -294.03237332  energy(sigma->0) =     -294.04281164


--------------------------------------------------------------------------------------------------------




--------------------------------------- Iteration      1(  17)  ---------------------------------------


    POTLOK:  cpu time    0.0858: real time    0.0869
    SETDIJ:  cpu time    0.0044: real time    0.0044
     EDDAV:  cpu time    3.9201: real time    3.9532
       DOS:  cpu time    0.0068: real time    0.0068
    CHARGE:  cpu time    0.1627: real time    0.1636
    MIXING:  cpu time    0.0055: real time    0.0055
    --------------------------------------------
      LOOP:  cpu time    4.1851: real time    4.2204

 eigenvalue-minimisations  :  2784
 total energy-change (2. order) :-0.5837923E-05  (-0.5376819E-06)
 number of electron     220.0000000 magnetization 
 augmentation part      -12.6922686 magnetization 

 Broyden mixing:
  rms(total) = 0.35253E-03    rms(broyden)= 0.35253E-03
  rms(prec ) = 0.42053E-03
  weight for this iteration     100.00

 eigenvalues of (default mixing * dielectric matrix)
  average eigenvalue GAMMA=   2.3950
  6.0130  4.8668  3.5925  3.5925  2.1165  1.5901  1.5139  1.5139  0.9341  0.9550
  1.0256  1.0256

 Free energy of the ion-electron system (eV)
  ---------------------------------------------------
  alpha Z        PSCENC =        94.20124788
  Ewald energy   TEWEN  =     -6283.32455330
  -Hartree energ DENC   =      -437.48893847
  -exchange      EXHF   =         0.00000000
  -V(xc)+E(xc)   XCENC  =      -492.38691308
  PAW double counting   =     24066.65848457   -23105.03556601
  entropy T*S    EENTRO =        -0.02087684
  eigenvalues    EBANDS =       194.68805589
  atomic energy  EATOM  =      5668.65580356
  Solvation  Ediel_sol  =         0.00000000
  ---------------------------------------------------
  free energy    TOTEN  =      -294.05325580 eV

  energy without entropy =     -294.03237897  energy(sigma->0) =     -294.04281738


--------------------------------------------------------------------------------------------------------




--------------------------------------- Iteration      1(  18)  ---------------------------------------


    POTLOK:  cpu time    0.0860: real time    0.0871
    SETDIJ:  cpu time    0.0041: real time    0.0041
     EDDAV:  cpu time    2.7490: real time    2.7726
       DOS:  cpu time    0.0065: real time    0.0065
    --------------------------------------------
      LOOP:  cpu time    2.8455: real time    2.8703

 eigenvalue-minimisations  :  1656
 total energy-change (2. order) : 0.8563547E-06  (-0.7827766E-07)
 number of electron     220.0000000 magnetization 
 augmentation part      -12.6922686 magnetization 

 Free energy of the ion-electron system (eV)
  ---------------------------------------------------
  alpha Z        PSCENC =        94.20124788
  Ewald energy   TEWEN  =     -6283.32455330
  -Hartree energ DENC   =      -437.48723194
  -exchange      EXHF   =         0.00000000
  -V(xc)+E(xc)   XCENC  =      -492.38707470
  PAW double counting   =     24064.42465916   -23102.80091786
  entropy T*S    EENTRO =        -0.02087626
  eigenvalues    EBANDS =       194.68568850
  atomic energy  EATOM  =      5668.65580356
  Solvation  Ediel_sol  =         0.00000000
  ---------------------------------------------------
  free energy    TOTEN  =      -294.05325495 eV

  energy without entropy =     -294.03237868  energy(sigma->0) =     -294.04281682


--------------------------------------------------------------------------------------------------------




 average (electrostatic) potential at core
  the test charge radii are     0.9892
  (the norm of the test charge is              1.0000)
       1 -83.0290       2 -83.0920       3 -83.0920       4 -83.0920       5 -83.3812
       6 -83.0920       7 -83.0920       8 -83.0920       9 -82.9899      10 -83.0920
      11 -83.3812      12 -83.0920      13 -83.3812      14 -83.3812      15 -83.0445
      16 -83.0920      17 -83.0445      18 -83.0445      19 -83.0920      20 -83.0920
      21 -82.9899      22 -83.0920      23 -83.0445      24 -83.0445      25 -82.9899
      26 -83.0445      27 -82.9899      28 -82.9813      29 -83.0418      30 -83.0418
      31 -83.0418      32 -83.0234      33 -83.0418      34 -83.0418      35 -83.0418
      36 -83.1225      37 -83.0418      38 -83.0234      39 -83.0418      40 -83.0234
      41 -83.0234      42 -83.3506      43 -83.0418      44 -83.3506      45 -83.3506
      46 -83.0418      47 -83.0418      48 -83.1225      49 -83.0418      50 -83.3506
      51 -83.3506      52 -83.1225      53 -83.3506      54 -83.1226      55 -83.9171
 
 
 
 E-fermi :   6.7104     XC(G=0):  -9.4942     alpha+bet :-12.2031


 k-point     1 :       0.0000    0.0000    0.0000
  band No.  band energies     occupation 
      1      -6.8478      2.00000
      2      -5.5726      2.00000
      3      -4.9026      2.00000
      4      -4.9026      2.00000
      5      -4.9026      2.00000
      6      -4.5528      2.00000
      7      -4.5528      2.00000
      8      -4.5528      2.00000
      9      -4.5525      2.00000
     10      -4.1824      2.00000
     11      -4.1444      2.00000
     12      -4.1444      2.00000
     13      -4.1444      2.00000
     14      -4.0884      2.00000
     15      -4.0884      2.00000
     16      -3.0851      2.00000
     17      -3.0851      2.00000
     18      -3.0851      2.00000
     19      -2.7932      2.00000
     20      -2.7910      2.00000
     21      -2.7910      2.00000
     22      -2.6985      2.00000
     23      -2.6985      2.00000
     24      -2.6985      2.00000
     25      -2.6701      2.00000
     26      -2.6701      2.00000
     27      -2.6701      2.00000
     28      -1.5498      2.00000
     29      -1.0190      2.00000
     30      -1.0190      2.00000
     31      -1.0190      2.00000
     32      -0.9156      2.00000
     33      -0.9156      2.00000
     34      -0.8752      2.00000
     35      -0.8752      2.00000
     36      -0.8752      2.00000
     37      -0.7471      2.00000
     38      -0.7471      2.00000
     39      -0.7471      2.00000
     40      -0.3322      2.00000
     41       0.4769      2.00000
     42       0.4769      2.00000
     43       0.4769      2.00000
     44       0.5699      2.00000
     45       0.5699      2.00000
     46       0.5699      2.00000
     47       0.6324      2.00000
     48       0.8725      2.00000
     49       0.8725      2.00000
     50       0.8884      2.00000
     51       0.8884      2.00000
     52       0.8884      2.00000
     53       0.9276      2.00000
     54       1.0359      2.00000
     55       1.3449      2.00000
     56       1.3449      2.00000
     57       1.3449      2.00000
     58       1.5153      2.00000
     59       1.5153      2.00000
     60       1.5153      2.00000
     61       1.6032      2.00000
     62       1.6032      2.00000
     63       1.6369      2.00000
     64       1.6369      2.00000
     65       1.6369      2.00000
     66       2.8368      2.00000
     67       2.8368      2.00000
     68       2.8368      2.00000
     69       3.4760      2.00000
     70       3.4760      2.00000
     71       3.4760      2.00000
     72       3.5304      2.00000
     73       3.5304      2.00000
     74       3.5304      2.00000
     75       3.5964      2.00000
     76       3.5964      2.00000
     77       3.5964      2.00000
     78       3.6718      2.00000
     79       3.6718      2.00000
     80       3.8135      2.00000
     81       3.8135      2.00000
     82       3.8135      2.00000
     83       3.8534      2.00000
     84       3.8534      2.00000
     85       3.8534      2.00000
     86       3.8886      2.00000
     87       3.8886      2.00000
     88       3.8886      2.00000
     89       3.9131      2.00000
     90       4.3736      2.00000
     91       4.7611      2.00000
     92       4.7611      2.00000
     93       4.7896      2.00000
     94       4.7896      2.00000
     95       4.7896      2.00000
     96       4.9262      2.00000
     97       4.9262      2.00000
     98       4.9262      2.00000
     99       4.9404      2.00000
    100       4.9404      2.00000
    101       4.9404      2.00000
    102       5.0354      2.00000
    103       5.0354      2.00000
    104       5.0354      2.00000
    105       5.0369      2.00000
    106       5.0369      2.00000
    107       5.9258      2.00000
    108       5.9258      2.00000
    109       5.9258      2.00000
    110       6.5551      1.99999
    111       6.5551      1.99999
    112       6.5551      1.99999
    113       6.6715      1.72944
    114       6.6715      1.72944
    115       6.7026      1.17374
    116       6.7026      1.17374
    117       6.7026      1.17374
    118       7.0178      0.00000
    119       7.4271      0.00000
    120       7.4271      0.00000
    121       7.4271      0.00000
    122       7.5188      0.00000
    123       7.5188      0.00000
    124       7.5350      0.00000
    125       7.5350      0.00000
    126       7.5350      0.00000
    127       7.6678      0.00000
    128       7.7062      0.00000
    129       7.7062      0.00000
    130       7.7062      0.00000
    131       7.7277      0.00000
    132       7.7277      0.00000
    133       7.7277      0.00000
    134       7.7279      0.00000
    135       7.8733      0.00000
    136       7.8733      0.00000
    137       7.8733      0.00000
    138       7.9176      0.00000
    139       7.9690      0.00000
    140       7.9690      0.00000
    141       8.3066      0.00000
    142       8.3066      0.00000
    143       8.3066      0.00000
    144       8.9176      0.00000

 k-point     2 :       0.2500    0.0000    0.0000
  band No.  band energies     occupation 
      1      -6.8315      2.00000
      2      -5.6011      2.00000
      3      -5.0883      2.00000
      4      -4.9329      2.00000
      5      -4.9329      2.00000
      6      -4.5768      2.00000
      7      -4.5234      2.00000
      8      -4.5234      2.00000
      9      -4.4975      2.00000
     10      -4.3300      2.00000
     11      -4.3300      2.00000
     12      -4.0838      2.00000
     13      -3.6556      2.00000
     14      -3.6143      2.00000
     15      -3.6143      2.00000
     16      -3.5396      2.00000
     17      -3.3992      2.00000
     18      -3.3992      2.00000
     19      -2.9254      2.00000
     20      -2.9254      2.00000
     21      -2.7768      2.00000
     22      -2.7332      2.00000
     23      -2.7332      2.00000
     24      -2.6649      2.00000
     25      -2.5918      2.00000
     26      -2.4649      2.00000
     27      -2.4649      2.00000
     28      -1.6551      2.00000
     29      -1.2140      2.00000
     30      -1.2140      2.00000
     31      -1.0862      2.00000
     32      -0.9804      2.00000
     33      -0.9804      2.00000
     34      -0.8911      2.00000
     35      -0.8911      2.00000
     36      -0.7869      2.00000
     37      -0.6789      2.00000
     38      -0.5038      2.00000
     39      -0.3977      2.00000
     40      -0.3977      2.00000
     41      -0.0987      2.00000
     42       0.0805      2.00000
     43       0.0805      2.00000
     44       0.1585      2.00000
     45       0.2032      2.00000
     46       0.2032      2.00000
     47       0.5222      2.00000
     48       0.9928      2.00000
     49       0.9928      2.00000
     50       1.1771      2.00000
     51       1.2857      2.00000
     52       1.4293      2.00000
     53       1.4293      2.00000
     54       1.5721      2.00000
     55       1.5721      2.00000
     56       1.6108      2.00000
     57       1.6873      2.00000
     58       1.7421      2.00000
     59       1.7421      2.00000
     60       1.8070      2.00000
     61       1.8070      2.00000
     62       1.8979      2.00000
     63       1.9372      2.00000
     64       1.9372      2.00000
     65       2.0582      2.00000
     66       2.5081      2.00000
     67       2.7235      2.00000
     68       2.7235      2.00000
     69       3.0960      2.00000
     70       3.0960      2.00000
     71       3.3182      2.00000
     72       3.3749      2.00000
     73       3.3886      2.00000
     74       3.3886      2.00000
     75       3.4783      2.00000
     76       3.4783      2.00000
     77       3.5576      2.00000
     78       3.5576      2.00000
     79       3.5737      2.00000
     80       3.6052      2.00000
     81       3.6183      2.00000
     82       3.6563      2.00000
     83       3.6563      2.00000
     84       3.7562      2.00000
     85       3.7562      2.00000
     86       3.8430      2.00000
     87       3.9968      2.00000
     88       4.0935      2.00000
     89       4.0935      2.00000
     90       4.1678      2.00000
     91       4.1678      2.00000
     92       4.2635      2.00000
     93       4.5272      2.00000
     94       4.5272      2.00000
     95       4.5340      2.00000
     96       4.6451      2.00000
     97       4.6451      2.00000
     98       4.6581      2.00000
     99       4.7802      2.00000
    100       4.7802      2.00000
    101       4.9207      2.00000
    102       4.9399      2.00000
    103       4.9399      2.00000
    104       4.9967      2.00000
    105       5.0983      2.00000
    106       5.1742      2.00000
    107       5.1742      2.00000
    108       5.7855      2.00000
    109       5.7855      2.00000
    110       6.5623      1.99997
    111       6.7445      0.33475
    112       6.7445      0.33475
    113       6.8564      0.00004
    114       6.8564      0.00004
    115       6.8853      0.00000
    116       7.1643      0.00000
    117       7.1643      0.00000
    118       7.3180      0.00000
    119       7.3902      0.00000
    120       7.3902      0.00000
    121       7.5315      0.00000
    122       7.5958      0.00000
    123       7.8241      0.00000
    124       7.8241      0.00000
    125       7.9377      0.00000
    126       7.9974      0.00000
    127       7.9974      0.00000
    128       8.0030      0.00000
    129       8.0731      0.00000
    130       8.0731      0.00000
    131       8.1047      0.00000
    132       8.1068      0.00000
    133       8.1556      0.00000
    134       8.1556      0.00000
    135       8.2355      0.00000
    136       8.2355      0.00000
    137       8.2402      0.00000
    138       8.4003      0.00000
    139       8.5055      0.00000
    140       8.5055      0.00000
    141       8.5921      0.00000
    142       8.7044      0.00000
    143       8.7044      0.00000
    144       8.9007      0.00000

 k-point     3 :       0.5000    0.0000    0.0000
  band No.  band energies     occupation 
      1      -6.8143      2.00000
      2      -5.6274      2.00000
      3      -5.2239      2.00000
      4      -4.9429      2.00000
      5      -4.9429      2.00000
      6      -4.6434      2.00000
      7      -4.6434      2.00000
      8      -4.6267      2.00000
      9      -4.2691      2.00000
     10      -4.0743      2.00000
     11      -4.0274      2.00000
     12      -4.0274      2.00000
     13      -3.8600      2.00000
     14      -3.8600      2.00000
     15      -3.6808      2.00000
     16      -3.1214      2.00000
     17      -3.0843      2.00000
     18      -3.0743      2.00000
     19      -3.0743      2.00000
     20      -2.9665      2.00000
     21      -2.9665      2.00000
     22      -2.8143      2.00000
     23      -2.8143      2.00000
     24      -2.7201      2.00000
     25      -2.7098      2.00000
     26      -2.7098      2.00000
     27      -2.6596      2.00000
     28      -1.6732      2.00000
     29      -1.0940      2.00000
     30      -1.0940      2.00000
     31      -1.0121      2.00000
     32      -0.9326      2.00000
     33      -0.9326      2.00000
     34      -0.8246      2.00000
     35      -0.7646      2.00000
     36      -0.7646      2.00000
     37      -0.6634      2.00000
     38      -0.5756      2.00000
     39      -0.5750      2.00000
     40      -0.5750      2.00000
     41      -0.4866      2.00000
     42      -0.1071      2.00000
     43      -0.1071      2.00000
     44      -0.0645      2.00000
     45      -0.0645      2.00000
     46      -0.0205      2.00000
     47       0.7353      2.00000
     48       1.0270      2.00000
     49       1.4291      2.00000
     50       1.4291      2.00000
     51       1.4468      2.00000
     52       1.4468      2.00000
     53       1.6342      2.00000
     54       1.7576      2.00000
     55       1.8508      2.00000
     56       1.8508      2.00000
     57       1.9047      2.00000
     58       2.0257      2.00000
     59       2.0257      2.00000
     60       2.1675      2.00000
     61       2.1675      2.00000
     62       2.2878      2.00000
     63       2.3491      2.00000
     64       2.3491      2.00000
     65       2.6326      2.00000
     66       2.6326      2.00000
     67       2.7239      2.00000
     68       2.7971      2.00000
     69       2.8068      2.00000
     70       2.8068      2.00000
     71       3.0109      2.00000
     72       3.0109      2.00000
     73       3.1387      2.00000
     74       3.1826      2.00000
     75       3.1826      2.00000
     76       3.2489      2.00000
     77       3.2689      2.00000
     78       3.2689      2.00000
     79       3.3519      2.00000
     80       3.4320      2.00000
     81       3.4321      2.00000
     82       3.4858      2.00000
     83       3.4956      2.00000
     84       3.5615      2.00000
     85       3.8046      2.00000
     86       3.8565      2.00000
     87       3.8565      2.00000
     88       3.9750      2.00000
     89       3.9750      2.00000
     90       4.0385      2.00000
     91       4.0886      2.00000
     92       4.0886      2.00000
     93       4.1509      2.00000
     94       4.1509      2.00000
     95       4.1990      2.00000
     96       4.2507      2.00000
     97       4.5536      2.00000
     98       4.5536      2.00000
     99       4.6222      2.00000
    100       4.6222      2.00000
    101       4.6721      2.00000
    102       4.7111      2.00000
    103       4.7775      2.00000
    104       4.7775      2.00000
    105       5.2395      2.00000
    106       5.4307      2.00000
    107       5.4307      2.00000
    108       5.5227      2.00000
    109       5.5227      2.00000
    110       6.5703      1.99993
    111       6.7838      0.03789
    112       6.7838      0.03789
    113       6.9837      0.00000
    114       6.9838      0.00000
    115       7.0986      0.00000
    116       7.3380      0.00000
[...]
   39        0.752   0.938   0.000   1.690
   40        0.752   0.940   0.000   1.692
   41        0.752   0.940   0.000   1.692
   42        0.763   0.924   0.000   1.686
   43        0.754   0.940   0.000   1.694
   44        0.763   0.926   0.000   1.689
   45        0.763   0.926   0.000   1.688
   46        0.752   0.937   0.000   1.689
   47        0.752   0.937   0.000   1.689
   48        0.761   0.929   0.000   1.690
   49        0.753   0.939   0.000   1.693
   50        0.762   0.924   0.000   1.686
   51        0.762   0.924   0.000   1.687
   52        0.761   0.926   0.000   1.687
   53        0.759   0.921   0.000   1.680
   54        0.761   0.926   0.000   1.687
   55        0.900   0.773   0.000   1.673
--------------------------------------------------
tot         41.663  51.317   0.000  92.980
 
    CHARGE:  cpu time    0.1598: real time    0.1609
    FORLOC:  cpu time    0.0327: real time    0.0328
    FORNL :  cpu time    1.5659: real time    1.5794
    STRESS:  cpu time    5.1927: real time    5.2365
    FORCOR:  cpu time    0.1015: real time    0.1024
    FORHAR:  cpu time    0.0461: real time    0.0464
    MIXING:  cpu time    0.0069: real time    0.0070
    OFIELD:  cpu time    0.0001: real time    0.0003

  FORCE on cell =-STRESS in cart. coord.  units (eV):
  Direction    XX          YY          ZZ          XY          YZ          ZX
  --------------------------------------------------------------------------------------
  Alpha Z    94.20125    94.20125    94.20125
  Ewald   -2094.45409 -2094.45410 -2094.45410    -0.00000    -0.00000    -0.00000
  Hartree   145.83138   145.83138   145.83137    -0.00000    -0.00000    -0.00000
  E(xc)    -698.98430  -698.98430  -698.98431    -0.00001    -0.00001    -0.00001
  Local    -816.23852  -816.23862  -816.23811     0.00015     0.00025     0.00035
  n-local  2133.37787  2145.41689  2153.51842    -0.35995    -0.87150     0.61626
  augment  -322.31414  -322.31404  -322.31451    -0.00013    -0.00023    -0.00032
  Kinetic  1538.89290  1566.82541  1597.43546    -1.51225    -1.37605     0.97301
  Fock        0.00000     0.00000     0.00000     0.00000     0.00000     0.00000
  -------------------------------------------------------------------------------------
  Total      19.86389    19.86389    19.86389    -0.00000    -0.00000     0.00000
  in kB      29.44095    29.44095    29.44095    -0.00000    -0.00000     0.00000
  external pressure =       29.44 kB  Pullay stress =        0.00 kB


 VOLUME and BASIS-vectors are now :
 -----------------------------------------------------------------------------
  energy-cutoff  :      550.00
  volume of cell :     1080.99
      direct lattice vectors                 reciprocal lattice vectors
     9.976465530  0.000000000  5.759915070     0.100235900 -0.035438742  0.000000000
     3.325488510  9.405901920  5.759915070     0.000000000  0.106316227  0.000000000
     0.000000000  0.000000000 11.519830140    -0.050117950 -0.035438742  0.086806836

  length of vectors
    11.519830124 11.519830136 11.519830140     0.106316227  0.106316227  0.106316227


 FORCES acting on ions
    electron-ion (+dipol)            ewald-force                    non-local-force                 convergence-correction
 -----------------------------------------------------------------------------------------------
   -.988E-06 -.691E-06 -.167E-05   0.134E-06 -.712E-07 0.105E-10   -.204E-16 -.104E-16 -.694E-16   0.128E-07 0.914E-08 0.223E-07
   0.548E+01 0.387E+01 0.259E+01   -.569E+01 -.403E+01 -.287E+01   0.186E+00 0.132E+00 0.109E+00   0.143E-03 0.101E-03 0.174E-03
   0.548E+01 0.387E+01 -.259E+01   -.569E+01 -.403E+01 0.287E+01   0.186E+00 0.132E+00 -.109E+00   0.143E-03 0.101E-03 -.174E-03
   0.349E+01 -.176E+01 0.604E+01   -.367E+01 0.168E+01 -.637E+01   0.125E+00 -.423E-01 0.216E+00   0.122E-03 0.409E-04 0.211E-03
   0.376E+02 -.133E+02 0.219E-05   -.373E+02 0.132E+02 0.304E-12   -.138E+01 0.488E+00 -.243E-16   0.377E-03 -.133E-03 -.616E-08
   0.349E+01 -.176E+01 -.604E+01   -.367E+01 0.168E+01 0.637E+01   0.125E+00 -.423E-01 -.216E+00   0.122E-03 0.409E-04 -.211E-03
   0.199E+01 -.599E+01 0.345E+01   -.202E+01 0.637E+01 -.349E+01   0.615E-01 -.221E+00 0.106E+00   0.213E-04 -.243E-03 0.368E-04
   0.199E+01 -.599E+01 -.345E+01   -.202E+01 0.637E+01 0.349E+01   0.615E-01 -.221E+00 -.106E+00   0.213E-04 -.243E-03 -.368E-04
   0.130E+01 -.458E+00 0.382E-06   -.134E+01 0.472E+00 -.509E-11   0.303E-01 -.107E-01 -.226E-16   -.169E-03 0.597E-04 -.164E-07
   -.496E+00 0.387E+01 0.604E+01   0.359E+00 -.403E+01 -.637E+01   0.167E-02 0.132E+00 0.216E+00   0.791E-04 0.101E-03 0.211E-03
   0.126E-05 0.399E+02 0.219E-05   0.827E-07 -.395E+02 0.287E-12   0.486E-16 -.147E+01 -.416E-16   -.334E-08 0.400E-03 -.615E-08
   -.496E+00 0.387E+01 -.604E+01   0.359E+00 -.403E+01 0.637E+01   0.167E-02 0.132E+00 -.216E+00   0.791E-04 0.101E-03 -.211E-03
   -.188E+02 -.133E+02 0.326E+02   0.186E+02 0.132E+02 -.323E+02   0.691E+00 0.488E+00 -.120E+01   -.189E-03 -.133E-03 0.327E-03
   -.188E+02 -.133E+02 -.326E+02   0.186E+02 0.132E+02 0.323E+02   0.691E+00 0.488E+00 0.120E+01   -.189E-03 -.133E-03 -.327E-03
   -.102E+01 -.720E+00 0.276E-06   0.860E+00 0.608E+00 -.307E-12   0.776E-01 0.549E-01 0.000E+00   -.787E-04 -.556E-04 -.172E-07
   -.398E+01 -.599E+01 -.170E-05   0.403E+01 0.637E+01 0.465E-11   -.123E+00 -.221E+00 0.520E-17   -.425E-04 -.243E-03 0.230E-07
   -.509E+00 0.720E+00 -.882E+00   0.430E+00 -.608E+00 0.745E+00   0.388E-01 -.549E-01 0.672E-01   -.393E-04 0.556E-04 -.682E-04
   -.509E+00 0.720E+00 0.882E+00   0.430E+00 -.608E+00 -.745E+00   0.388E-01 -.549E-01 -.672E-01   -.393E-04 0.556E-04 0.681E-04
   -.498E+01 0.387E+01 0.345E+01   0.533E+01 -.403E+01 -.349E+01   -.188E+00 0.132E+00 0.106E+00   -.222E-03 0.101E-03 0.368E-04
   -.498E+01 0.387E+01 -.345E+01   0.533E+01 -.403E+01 0.349E+01   -.188E+00 0.132E+00 -.106E+00   -.222E-03 0.101E-03 -.368E-04
   0.217E-06 0.137E+01 0.376E-06   0.110E-06 -.142E+01 -.510E-11   -.824E-17 0.321E-01 -.364E-16   -.938E-08 -.179E-03 -.164E-07
   -.697E+01 -.176E+01 -.172E-05   0.735E+01 0.168E+01 0.465E-11   -.249E+00 -.423E-01 0.234E-16   -.243E-03 0.409E-04 0.230E-07
   0.509E+00 -.720E+00 -.882E+00   -.430E+00 0.608E+00 0.745E+00   -.388E-01 0.549E-01 0.672E-01   0.393E-04 -.556E-04 -.682E-04
   0.509E+00 -.720E+00 0.882E+00   -.430E+00 0.608E+00 -.745E+00   -.388E-01 0.549E-01 -.672E-01   0.393E-04 -.556E-04 0.681E-04
   -.648E+00 -.458E+00 0.112E+01   0.668E+00 0.472E+00 -.116E+01   -.151E-01 -.107E-01 0.262E-01   0.844E-04 0.597E-04 -.146E-03
   0.102E+01 0.720E+00 0.119E-05   -.860E+00 -.608E+00 -.105E-10   -.776E-01 -.549E-01 0.182E-16   0.787E-04 0.556E-04 -.566E-08
   -.648E+00 -.458E+00 -.112E+01   0.668E+00 0.472E+00 0.116E+01   -.151E-01 -.107E-01 -.262E-01   0.845E-04 0.597E-04 0.146E-03
   0.666E-06 0.287E-06 0.914E-06   -.117E-06 0.622E-07 0.106E-10   -.694E-17 0.347E-17 0.347E-16   -.317E-08 -.236E-08 -.569E-08
   -.156E+00 -.110E+00 0.182E+01   -.115E-06 0.569E-07 -.184E+01   0.674E-01 0.476E-01 0.236E-01   0.147E-03 0.104E-03 -.820E-04
   -.156E+00 -.110E+00 -.182E+01   -.115E-06 0.569E-07 0.184E+01   0.674E-01 0.476E-01 -.236E-01   0.147E-03 0.104E-03 0.820E-04
   0.446E+00 0.159E+01 0.773E+00   -.531E+00 -.150E+01 -.919E+00   0.405E-01 -.284E-01 0.701E-01   0.498E-04 -.171E-03 0.862E-04
   -.590E+01 0.209E+01 -.192E-05   0.590E+01 -.209E+01 0.529E-11   -.263E-01 0.930E-02 0.139E-16   -.391E-05 0.140E-05 0.232E-07
   0.446E+00 0.159E+01 -.773E+00   -.531E+00 -.150E+01 0.919E+00   0.405E-01 -.284E-01 -.701E-01   0.498E-04 -.171E-03 -.863E-04
   -.602E+00 -.137E+01 -.104E+01   0.531E+00 0.150E+01 0.919E+00   0.269E-01 -.669E-01 0.466E-01   0.971E-04 -.369E-04 0.168E-03
   -.602E+00 -.137E+01 0.104E+01   0.531E+00 0.150E+01 -.919E+00   0.269E-01 -.669E-01 -.466E-01   0.971E-04 -.370E-04 -.168E-03
   0.559E+01 -.198E+01 -.125E-06   -.590E+01 0.209E+01 -.462E-11   -.138E+00 0.489E-01 0.173E-17   0.382E-03 -.135E-03 -.161E-07
   0.165E+01 -.110E+00 0.773E+00   -.159E+01 0.541E-07 -.919E+00   -.133E-01 0.476E-01 0.701E-01   -.144E-03 0.104E-03 0.862E-04
   -.985E-06 -.626E+01 -.193E-05   -.116E-06 0.626E+01 0.526E-11   0.564E-17 -.279E-01 -.191E-16   0.134E-07 -.415E-05 0.232E-07
   0.165E+01 -.110E+00 -.773E+00   -.159E+01 0.541E-07 0.919E+00   -.133E-01 0.476E-01 -.701E-01   -.144E-03 0.104E-03 -.863E-04
   0.295E+01 0.209E+01 -.511E+01   -.295E+01 -.209E+01 0.511E+01   0.131E-01 0.930E-02 -.228E-01   0.197E-05 0.140E-05 -.337E-05
   0.295E+01 0.209E+01 0.511E+01   -.295E+01 -.209E+01 -.511E+01   0.131E-01 0.930E-02 0.228E-01   0.196E-05 0.138E-05 0.339E-05
   0.226E+02 0.160E+02 0.265E-06   -.236E+02 -.167E+02 -.836E-11   0.608E+00 0.430E+00 -.694E-17   0.221E-03 0.156E-03 -.169E-07
   0.120E+01 -.137E+01 0.128E-05   -.106E+01 0.150E+01 -.499E-12   -.538E-01 -.669E-01 0.694E-17   -.194E-03 -.370E-04 -.591E-08
   0.113E+02 -.160E+02 0.196E+02   -.118E+02 0.167E+02 -.205E+02   0.304E+00 -.430E+00 0.526E+00   0.110E-03 -.156E-03 0.191E-03
   0.113E+02 -.160E+02 -.196E+02   -.118E+02 0.167E+02 0.205E+02   0.304E+00 -.430E+00 -.526E+00   0.110E-03 -.156E-03 -.191E-03
   -.150E+01 -.110E+00 -.104E+01   0.159E+01 0.713E-07 0.919E+00   -.541E-01 0.476E-01 0.466E-01   -.245E-05 0.104E-03 0.168E-03
   -.150E+01 -.110E+00 0.104E+01   0.159E+01 0.713E-07 -.919E+00   -.541E-01 0.476E-01 -.466E-01   -.247E-05 0.104E-03 -.168E-03
   0.619E-07 0.593E+01 -.128E-06   -.127E-06 -.626E+01 -.463E-11   -.173E-17 -.147E+00 -.139E-16   -.922E-08 0.405E-03 -.161E-07
   -.893E+00 0.159E+01 0.129E-05   0.106E+01 -.150E+01 -.495E-12   -.810E-01 -.284E-01 -.694E-17   -.996E-04 -.171E-03 -.592E-08
   -.113E+02 0.160E+02 0.196E+02   0.118E+02 -.167E+02 -.205E+02   -.304E+00 0.430E+00 0.526E+00   -.110E-03 0.156E-03 0.191E-03
   -.113E+02 0.160E+02 -.196E+02   0.118E+02 -.167E+02 0.205E+02   -.304E+00 0.430E+00 -.526E+00   -.110E-03 0.156E-03 -.191E-03
   -.280E+01 -.198E+01 0.484E+01   0.295E+01 0.209E+01 -.511E+01   0.691E-01 0.489E-01 -.120E+00   -.191E-03 -.135E-03 0.331E-03
   -.226E+02 -.160E+02 -.248E-05   0.236E+02 0.167E+02 0.124E-11   -.608E+00 -.430E+00 0.694E-17   -.221E-03 -.156E-03 0.220E-07
   -.280E+01 -.198E+01 -.484E+01   0.295E+01 0.209E+01 0.511E+01   0.691E-01 0.489E-01 0.120E+00   -.191E-03 -.135E-03 -.331E-03
   -.323E-06 0.167E-07 -.286E-06   0.199E-07 -.106E-07 0.269E-11   0.260E-17 0.173E-17 0.538E-16   0.338E-08 0.189E-08 0.521E-08
 -----------------------------------------------------------------------------------------------
   0.183E-05 -.384E-05 -.272E-05   0.253E-13 -.533E-13 0.177E-14   -.913E-15 0.807E-15 -.474E-15   0.325E-08 0.191E-08 0.514E-08
 
 
 POSITION                                       TOTAL-FORCE (eV/Angst)
 -----------------------------------------------------------------------------------
      3.87974      2.74339      6.71990         0.000000     -0.000000      0.000000
      3.87974      2.74339     10.55984        -0.030248     -0.021389     -0.172728
      3.87974      2.74339     14.39979        -0.030248     -0.021389      0.172728
      4.98823      5.87869      8.63987        -0.064986     -0.119643     -0.112560
      4.98823      5.87869     12.47982        -1.034057      0.365594      0.000000
      4.98823      5.87869     16.31976        -0.064986     -0.119643      0.112560
      6.09673      9.01399     10.55984         0.034738      0.162421      0.060168
      6.09673      9.01399     14.39979         0.034738      0.162421     -0.060168
      6.09673      9.01399     18.23973        -0.009955      0.003520      0.000000
      7.20523      2.74339      8.63987        -0.134463     -0.021389     -0.112560
      7.20523      2.74339     12.47982         0.000000     -1.096783      0.000000
      7.20523      2.74339     16.31976        -0.134463     -0.021389      0.112560
      8.31372      5.87869     10.55984         0.517028      0.365594     -0.895519
      8.31372      5.87869     14.39979         0.517028      0.365594      0.895519
      8.31372      5.87869     18.23973        -0.080925     -0.057222      0.000000
      9.42222      9.01399     12.47982        -0.069476      0.162421      0.000000
      9.42222      9.01399     16.31976        -0.040462      0.057222     -0.070083
      9.42222      9.01399     20.15970        -0.040462      0.057222      0.070083
     10.53071      2.74339     10.55984         0.164711     -0.021389      0.060168
     10.53071      2.74339     14.39979         0.164711     -0.021389     -0.060168
     10.53071      2.74339     18.23973         0.000000     -0.010559      0.000000
     11.63921      5.87869     12.47982         0.129973     -0.119643      0.000000
     11.63921      5.87869     16.31976         0.040462     -0.057222     -0.070083
     11.63921      5.87869     20.15970         0.040462     -0.057222      0.070083
     12.74771      9.01399     14.39979         0.004978      0.003520     -0.008621
     12.74771      9.01399     18.23973         0.080925      0.057222      0.000000
     12.74771      9.01399     22.07967         0.004978      0.003520      0.008621
      0.55425      0.39191      0.95999         0.000000     -0.000000      0.000000
      0.55425      0.39191      4.79993        -0.088166     -0.062343      0.001201
      0.55425      0.39191      8.63987        -0.088166     -0.062343     -0.001201
      1.66274      3.52721      2.87996        -0.043736      0.063324     -0.075754
      1.66274      3.52721      6.71990        -0.022608      0.007993      0.000000
      1.66274      3.52721     10.55984        -0.043736      0.063324      0.075754
      2.77124      6.66251      4.79993        -0.044430      0.061362     -0.076955
      2.77124      6.66251      8.63987        -0.044430      0.061362      0.076955
      2.77124      6.66251     12.47982        -0.449968      0.159088     -0.000000
      3.87974      0.39191      2.87996         0.045123     -0.062343     -0.075754
      3.87974      0.39191      6.71990         0.000000     -0.023980      0.000000
      3.87974      0.39191     10.55984         0.045123     -0.062343      0.075754
      4.98823      3.52721      4.79993         0.011304      0.007993     -0.019579
      4.98823      3.52721      8.63987         0.011304      0.007993      0.019579
      4.98823      3.52721     12.47982        -0.423252     -0.299284     -0.000000
      6.09673      6.66251      6.71990         0.088860      0.061362      0.000000
      6.09673      6.66251     10.55984        -0.211626      0.299284     -0.366547
      6.09673      6.66251     14.39979        -0.211626      0.299284      0.366547
      7.20523      0.39191      4.79993         0.043043     -0.062343     -0.076955
      7.20523      0.39191      8.63987         0.043043     -0.062343      0.076955
      7.20523      0.39191     12.47982         0.000000     -0.477263      0.000000
      8.31372      3.52721      6.71990         0.087473      0.063324      0.000000
      8.31372      3.52721     10.55984         0.211626     -0.299284     -0.366547
      8.31372      3.52721     14.39979         0.211626     -0.299284      0.366547
      9.42222      6.66251      8.63987         0.224984      0.159088     -0.389684
      9.42222      6.66251     12.47982         0.423252      0.299284     -0.000000
      9.42222      6.66251     16.31976         0.224984      0.159088      0.389684
      7.20523      5.09486     12.47982         0.000000     -0.000000      0.000000
 -----------------------------------------------------------------------------------
    total drift:                                0.000002     -0.000004     -0.000003


--------------------------------------------------------------------------------------------------------



  FREE ENERGIE OF THE ION-ELECTRON SYSTEM (eV)
  ---------------------------------------------------
  free  energy   TOTEN  =      -294.05325495 eV

  energy  without entropy=     -294.03237868  energy(sigma->0) =     -294.04281682
 


--------------------------------------------------------------------------------------------------------


    POTLOK:  cpu time    0.0911: real time    0.0923


--------------------------------------------------------------------------------------------------------


 writing wavefunctions
     LOOP+:  cpu time   93.0141: real time   94.1524
    4ORBIT:  cpu time    0.0000: real time    0.0000
 


 total charge     
 
# of ion       s       p       d       tot
------------------------------------------
    1        0.753   0.937   0.000   1.690
    2        0.755   0.934   0.000   1.689
    3        0.755   0.934   0.000   1.689
    4        0.755   0.935   0.000   1.690
    5        0.756   0.950   0.000   1.706
    6        0.755   0.935   0.000   1.690
    7        0.755   0.934   0.000   1.689
    8        0.755   0.934   0.000   1.688
    9        0.751   0.940   0.000   1.691
   10        0.756   0.936   0.000   1.693
   11        0.761   0.951   0.000   1.712
   12        0.756   0.937   0.000   1.693
   13        0.759   0.955   0.000   1.713
   14        0.759   0.955   0.000   1.713
   15        0.756   0.938   0.000   1.695
   16        0.756   0.935   0.000   1.691
   17        0.752   0.936   0.000   1.689
   18        0.752   0.936   0.000   1.689
   19        0.752   0.934   0.000   1.686
   20        0.752   0.934   0.000   1.686
   21        0.752   0.940   0.000   1.692
   22        0.753   0.933   0.000   1.686
   23        0.752   0.936   0.000   1.687
   24        0.752   0.936   0.000   1.687
   25        0.752   0.940   0.000   1.692
   26        0.754   0.937   0.000   1.691
   27        0.752   0.940   0.000   1.692
   28        0.751   0.940   0.000   1.691
   29        0.751   0.937   0.000   1.688
   30        0.751   0.937   0.000   1.688
   31        0.750   0.936   0.000   1.686
   32        0.753   0.939   0.000   1.692
   33        0.750   0.936   0.000   1.686
   34        0.751   0.936   0.000   1.687
   35        0.751   0.936   0.000   1.688
   36        0.761   0.933   0.000   1.693
   37        0.752   0.938   0.000   1.690
   38        0.752   0.939   0.000   1.691
   39        0.752   0.938   0.000   1.690
   40        0.752   0.940   0.000   1.692
   41        0.752   0.940   0.000   1.692
   42        0.763   0.924   0.000   1.686
   43        0.754   0.940   0.000   1.694
   44        0.763   0.926   0.000   1.689
   45        0.763   0.926   0.000   1.688
   46        0.752   0.937   0.000   1.689
   47        0.752   0.937   0.000   1.689
   48        0.761   0.929   0.000   1.690
   49        0.753   0.939   0.000   1.693
   50        0.762   0.924   0.000   1.686
   51        0.762   0.924   0.000   1.687
   52        0.761   0.926   0.000   1.687
   53        0.759   0.921   0.000   1.680
   54        0.761   0.926   0.000   1.687
   55        0.900   0.773   0.000   1.673
--------------------------------------------------
tot         41.663  51.317   0.000  92.980
 

 total amount of memory used by VASP MPI-rank0   123928. kBytes
=======================================================================

   base      :      30000. kBytes
   nonl-proj :      44165. kBytes
   fftplans  :       5382. kBytes
   grid      :      19496. kBytes
   one-center:        168. kBytes
   wavefun   :      24717. kBytes
 
  
  
 General timing and accounting informations for this job:
 ========================================================
  
                  Total CPU time used (sec):      106.084
                            User time (sec):       99.855
                          System time (sec):        6.229
                         Elapsed time (sec):      109.848
  
                   Maximum memory used (kb):      366796.
                   Average memory used (kb):           0.
  
                          Minor page faults:        41974
                          Major page faults:            0
                 Voluntary context switches:         3894
