 vasp.5.4.4.18Apr17-6-g9f103f2a35 (build Jun 19 2019 10:34:07) complex          
  
 executed on               LB-5.4 date 2023.05.15  18:34:07
 running on   96 total cores
 distrk:  each k-point on   24 cores,    4 groups
 distr:  one band on NCORES_PER_BAND=   1 cores,   24 groups


--------------------------------------------------------------------------------------------------------


 INCAR:
 POTCAR:    PAW_PBE P 06Sep2000                   
 POTCAR:    PAW_PBE Si 05Jan2001                  

 ----------------------------------------------------------------------------- 
|                                                                             |
|           W    W    AA    RRRRR   N    N  II  N    N   GGGG   !!!           |
|           W    W   A  A   R    R  NN   N  II  NN   N  G    G  !!!           |
|           W    W  A    A  R    R  N N  N  II  N N  N  G       !!!           |
|           W WW W  AAAAAA  RRRRR   N  N N  II  N  N N  G  GGG   !            |
|           WW  WW  A    A  R   R   N   NN  II  N   NN  G    G                |
|           W    W  A    A  R    R  N    N  II  N    N   GGGG   !!!           |
|                                                                             |
|      For optimal performance we recommend to set                            |
|        NCORE= 4 - approx SQRT( number of cores)                             |
|      NCORE specifies how many cores store one orbital (NPAR=cpu/NCORE).     |
|      This setting can  greatly improve the performance of VASP for DFT.     |
|      The default,   NCORE=1            might be grossly inefficient         |
|      on modern multi-core architectures or massively parallel machines.     |
|      Do your own testing !!!!                                               |
|      Unfortunately you need to use the default for GW and RPA calculations. |
|      (for HF NCORE is supported but not extensively tested yet)             |
|                                                                             |
 ----------------------------------------------------------------------------- 


 ----------------------------------------------------------------------------- 
|                                                                             |
|           W    W    AA    RRRRR   N    N  II  N    N   GGGG   !!!           |
|           W    W   A  A   R    R  NN   N  II  NN   N  G    G  !!!           |
|           W    W  A    A  R    R  N N  N  II  N N  N  G       !!!           |
|           W WW W  AAAAAA  RRRRR   N  N N  II  N  N N  G  GGG   !            |
|           WW  WW  A    A  R   R   N   NN  II  N   NN  G    G                |
|           W    W  A    A  R    R  N    N  II  N    N   GGGG   !!!           |
|                                                                             |
|      You have enabled k-point parallelism (KPAR>1).                         |
|      This developmental code was originally  written by Paul Kent at ORNL,  |
|      and carefully double checked in Vienna.                                |
|      GW as well as linear response parallelism added by Martijn Marsman     |
|      and Georg Kresse.                                                      |
|      Carefully verify results versus KPAR=1.                                |
|      Report problems to Paul Kent and Vienna.                               |
|                                                                             |
 ----------------------------------------------------------------------------- 

 POTCAR:    PAW_PBE P 06Sep2000                   
   VRHFIN =P : s2p3                                                             
   LEXCH  = PE                                                                  
   EATOM  =   176.0430 eV,   12.9388 Ry                                         
                                                                                
   TITEL  = PAW_PBE P 06Sep2000                                                 
   LULTRA =        F    use ultrasoft PP ?                                      
   IUNSCR =        1    unscreen: 0-lin 1-nonlin 2-no                           
   RPACOR =    1.500    partial core radius                                     
   POMASS =   30.974; ZVAL   =    5.000    mass and valenz                      
   RCORE  =    1.900    outmost cutoff radius                                   
   RWIGS  =    2.330; RWIGS  =    1.233    wigner-seitz radius (au A)           
   ENMAX  =  255.040; ENMIN  =  191.280 eV                                      
   ICORE  =        2    local potential                                         
   LCOR   =        T    correct aug charges                                     
   LPAW   =        T    paw PP                                                  
   EAUG   =  342.924                                                            
   DEXC   =    0.000                                                            
   RMAX   =    1.935    core radius for proj-oper                               
   RAUG   =    1.300    factor for augmentation sphere                          
   RDEP   =    1.931    radius for radial grids                                 
   RDEPT  =    1.794    core radius for aug-charge                              
                                                                                
   Atomic configuration                                                         
    6 entries                                                                   
     n  l   j            E        occ.                                          
     1  0  0.50     -2084.0982   2.0000                                         
     2  0  0.50      -173.9859   2.0000                                         
     2  1  1.50      -124.4865   6.0000                                         
     3  0  0.50       -13.9692   2.0000                                         
     3  1  0.50        -5.5067   3.0000                                         
     3  2  1.50        -5.4423   0.0000                                         
   Description                                                                  
     l       E           TYP  RCUT    TYP  RCUT                                 
     0    -13.9691527     23  1.900                                             
     0    -11.7794650     23  1.900                                             
     1     -5.5066937     23  1.900                                             
     1     -0.2556953     23  1.900                                             
     2     -5.4423304     23  1.900                                             
  local pseudopotential read in
  partial core-charges read in
  partial kinetic energy density read in
  atomic valenz-charges read in
  non local Contribution for L=           0  read in
    real space projection operators read in
  non local Contribution for L=           0  read in
    real space projection operators read in
  non local Contribution for L=           1  read in
    real space projection operators read in
  non local Contribution for L=           1  read in
    real space projection operators read in
    PAW grid and wavefunctions read in
 
   number of l-projection  operators is LMAX  =           4
   number of lm-projection operators is LMMAX =           8
 
 POTCAR:    PAW_PBE Si 05Jan2001                  
   VRHFIN =Si: s2p2                                                             
   LEXCH  = PE                                                                  
   EATOM  =   103.0669 eV,    7.5752 Ry                                         
                                                                                
   TITEL  = PAW_PBE Si 05Jan2001                                                
   LULTRA =        F    use ultrasoft PP ?                                      
   IUNSCR =        1    unscreen: 0-lin 1-nonlin 2-no                           
   RPACOR =    1.500    partial core radius                                     
   POMASS =   28.085; ZVAL   =    4.000    mass and valenz                      
   RCORE  =    1.900    outmost cutoff radius                                   
   RWIGS  =    2.480; RWIGS  =    1.312    wigner-seitz radius (au A)           
   ENMAX  =  245.345; ENMIN  =  184.009 eV                                      
   ICORE  =        2    local potential                                         
   LCOR   =        T    correct aug charges                                     
   LPAW   =        T    paw PP                                                  
   EAUG   =  322.069                                                            
   DEXC   =    0.000                                                            
   RMAX   =    1.950    core radius for proj-oper                               
   RAUG   =    1.300    factor for augmentation sphere                          
   RDEP   =    1.993    radius for radial grids                                 
   RDEPT  =    1.837    core radius for aug-charge                              
                                                                                
   Atomic configuration                                                         
    6 entries                                                                   
     n  l   j            E        occ.                                          
     1  0  0.50     -1785.8828   2.0000                                         
     2  0  0.50      -139.4969   2.0000                                         
     2  1  1.50       -95.5546   6.0000                                         
     3  0  0.50       -10.8127   2.0000                                         
     3  1  0.50        -4.0811   2.0000                                         
     3  2  1.50        -4.0817   0.0000                                         
   Description                                                                  
     l       E           TYP  RCUT    TYP  RCUT                                 
     0    -10.8127223     23  1.900                                             
     0     -7.6451159     23  1.900                                             
     1     -4.0811372     23  1.900                                             
     1      2.4879257     23  1.900                                             
     2     -4.0817478      7  1.900                                             
  local pseudopotential read in
  partial core-charges read in
  partial kinetic energy density read in
  atomic valenz-charges read in
  non local Contribution for L=           0  read in
    real space projection operators read in
  non local Contribution for L=           0  read in
    real space projection operators read in
  non local Contribution for L=           1  read in
    real space projection operators read in
  non local Contribution for L=           1  read in
    real space projection operators read in
    PAW grid and wavefunctions read in
 
   number of l-projection  operators is LMAX  =           4
   number of lm-projection operators is LMMAX =           8
 

 ----------------------------------------------------------------------------- 
|                                                                             |
|  ADVICE TO THIS USER RUNNING 'VASP/VAMP'   (HEAR YOUR MASTER'S VOICE ...):  |
|                                                                             |
|      You have a (more or less) 'large supercell' and for larger cells       |
|      it might be more efficient to use real space projection opertators     |
|      So try LREAL= Auto  in the INCAR   file.                               |
|      Mind:          For very  accurate calculation you might also keep the  |
|      reciprocal projection scheme          (i.e. LREAL=.FALSE.)             |
|                                                                             |
 ----------------------------------------------------------------------------- 

  PAW_PBE P 06Sep2000                   :
 energy of atom  1       EATOM= -176.0430
 kinetic energy error for atom=    0.0008 (will be added to EATOM!!)
  PAW_PBE Si 05Jan2001                  :
 energy of atom  2       EATOM= -103.0669
 kinetic energy error for atom=    0.0004 (will be added to EATOM!!)
 
 
 POSCAR: Si53 P1                                 
  positions in direct lattice
  No initial velocities read in
 exchange correlation table for  LEXCH =        8
   RHO(1)=    0.500       N(1)  =     2000
   RHO(2)=  100.500       N(2)  =     4000
 


--------------------------------------------------------------------------------------------------------


 ion  position               nearest neighbor table
   1  0.292  0.292  0.292-  32 2.35  40 2.35  41 2.35  38 2.35
   2  0.292  0.292  0.625-  33 2.35  41 2.35  42 2.35  39 2.35
   3  0.292  0.292  0.958-  31 2.35  40 2.35  42 2.35  37 2.35
   4  0.292  0.625  0.292-  35 2.35  43 2.35  44 2.35  41 2.35
   5  0.292  0.625  0.625-  36 2.35  44 2.35  45 2.35  42 2.35
   6  0.292  0.625  0.958-  34 2.35  43 2.35  45 2.35  40 2.35
   7  0.292  0.958  0.292-  29 2.35  37 2.35  38 2.35  44 2.35
   8  0.292  0.958  0.625-  30 2.35  38 2.35  39 2.35  45 2.35
   9  0.292  0.958  0.958-  28 2.35  37 2.35  39 2.35  43 2.35
  10  0.625  0.292  0.292-  41 2.35  49 2.35  50 2.35  47 2.35
  11  0.625  0.292  0.625-  42 2.35  50 2.35  51 2.35  48 2.35
  12  0.625  0.292  0.958-  40 2.35  49 2.35  51 2.35  46 2.35
  13  0.625  0.625  0.292-  44 2.35  52 2.35  53 2.35  50 2.35
  14  0.625  0.625  0.625-  45 2.35  53 2.35  54 2.35  51 2.35
  15  0.625  0.625  0.958-  43 2.35  52 2.35  54 2.35  49 2.35
  16  0.625  0.958  0.292-  38 2.35  46 2.35  47 2.35  53 2.35
  17  0.625  0.958  0.625-  39 2.35  47 2.35  48 2.35  54 2.35
  18  0.625  0.958  0.958-  37 2.35  46 2.35  48 2.35  52 2.35
  19  0.958  0.292  0.292-  50 2.35  32 2.35  31 2.35  29 2.35
  20  0.958  0.292  0.625-  51 2.35  33 2.35  32 2.35  30 2.35
  21  0.958  0.292  0.958-  49 2.35  31 2.35  33 2.35  28 2.35
  22  0.958  0.625  0.292-  53 2.35  35 2.35  34 2.35  32 2.35
  23  0.958  0.625  0.625-  54 2.35  36 2.35  35 2.35  33 2.35
  24  0.958  0.625  0.958-  52 2.35  34 2.35  36 2.35  31 2.35
  25  0.958  0.958  0.292-  47 2.35  29 2.35  28 2.35  35 2.35
  26  0.958  0.958  0.625-  48 2.35  30 2.35  29 2.35  36 2.35
  27  0.958  0.958  0.958-  46 2.35  28 2.35  30 2.35  34 2.35
  28  0.042  0.042  0.042-   9 2.35  27 2.35  25 2.35  21 2.35
  29  0.042  0.042  0.375-   7 2.35  25 2.35  26 2.35  19 2.35
  30  0.042  0.042  0.708-   8 2.35  26 2.35  27 2.35  20 2.35
  31  0.042  0.375  0.042-   3 2.35  21 2.35  19 2.35  24 2.35
  32  0.042  0.375  0.375-   1 2.35  19 2.35  20 2.35  22 2.35
  33  0.042  0.375  0.708-   2 2.35  20 2.35  21 2.35  23 2.35
  34  0.042  0.708  0.042-   6 2.35  24 2.35  22 2.35  27 2.35
  35  0.042  0.708  0.375-   4 2.35  22 2.35  23 2.35  25 2.35
  36  0.042  0.708  0.708-   5 2.35  23 2.35  24 2.35  26 2.35
  37  0.375  0.042  0.042-  18 2.35   9 2.35   7 2.35   3 2.35
  38  0.375  0.042  0.375-  16 2.35   8 2.35   7 2.35   1 2.35
  39  0.375  0.042  0.708-  17 2.35   9 2.35   8 2.35   2 2.35
  40  0.375  0.375  0.042-  12 2.35   3 2.35   1 2.35   6 2.35
  41  0.375  0.375  0.375-  10 2.35   2 2.35   1 2.35   4 2.35
  42  0.375  0.375  0.708-  11 2.35   3 2.35   2 2.35   5 2.35
  43  0.375  0.708  0.042-  15 2.35   6 2.35   4 2.35   9 2.35
  44  0.375  0.708  0.375-  13 2.35   5 2.35   4 2.35   7 2.35
  45  0.375  0.708  0.708-  14 2.35   6 2.35   5 2.35   8 2.35
  46  0.708  0.042  0.042-  27 2.35  18 2.35  16 2.35  12 2.35
  47  0.708  0.042  0.375-  25 2.35  17 2.35  16 2.35  10 2.35
  48  0.708  0.042  0.708-  26 2.35  18 2.35  17 2.35  11 2.35
  49  0.708  0.375  0.042-  21 2.35  12 2.35  10 2.35  15 2.35
  50  0.708  0.375  0.375-  19 2.35  11 2.35  10 2.35  13 2.35
  51  0.708  0.375  0.708-  20 2.35  12 2.35  11 2.35  14 2.35
  52  0.708  0.708  0.042-  24 2.35  15 2.35  13 2.35  18 2.35
  53  0.708  0.708  0.375-  22 2.35  14 2.35  13 2.35  16 2.35
  54  0.708  0.708  0.708-  23 2.35  15 2.35  14 2.35  17 2.35
 
  LATTYP: Found a face centered cubic cell.
 ALAT       =    16.2915000202
  
  Lattice vectors:
  
 A1 = (   9.9764655300,   0.0000000000,   5.7599150700)
 A2 = (   3.3254885100,   9.4059019200,   5.7599150700)
 A3 = (   0.0000000000,   0.0000000000,  11.5198301400)


Analysis of symmetry for initial positions (statically):
=====================================================================
 Subroutine PRICEL returns:
 Original cell was already a primitive cell.
 

 Routine SETGRP: Setting up the symmetry group for a 
 face centered cubic supercell.


 Subroutine GETGRP returns: Found 24 space group operations
 (whereof  6 operations were pure point group operations)
 out of a pool of 48 trial point group operations.


The static configuration has the point symmetry C_3v.
 The point group associated with its full space group is T_d .


Analysis of symmetry for dynamics (positions and initial velocities):
=====================================================================
 Subroutine PRICEL returns:
 Original cell was already a primitive cell.
 

 Routine SETGRP: Setting up the symmetry group for a 
 face centered cubic supercell.


 Subroutine GETGRP returns: Found 24 space group operations
 (whereof  6 operations were pure point group operations)
 out of a pool of 48 trial point group operations.


The dynamic configuration has the point symmetry C_3v.
 The point group associated with its full space group is T_d .


 Subroutine INISYM returns: Found 24 space group operations
 (whereof  6 operations are pure point group operations),
 and found     1 'primitive' translations

 
 
 KPOINTS: Automatic kpoint scheme                 

Automatic generation of k-mesh.
Space group operators:
 irot       det(A)        alpha          n_x          n_y          n_z        tau_x        tau_y        tau_z
    1     1.000000     0.000000     1.000000     0.000000     0.000000     0.000000     0.000000     0.000000
    2     1.000000   120.000000    -0.471405    -0.333333    -0.816497     0.000000     0.000000     0.000000
    3     1.000000   120.000000     0.471405     0.333333     0.816497     0.000000     0.000000     0.000000
    4    -1.000000   180.000000     0.288675     0.816497    -0.500000     0.000000     0.000000     0.000000
    5    -1.000000   180.000000     0.577350    -0.816497     0.000000     0.000000     0.000000     0.000000
    6    -1.000000   180.000000     0.866025     0.000000    -0.500000     0.000000     0.000000     0.000000
    7    -1.000000    90.000000    -0.816497    -0.577350    -0.000000     0.166667     0.000000     0.000000
    8    -1.000000   180.000000     0.866025     0.000000     0.500000     0.166667     0.000000     0.000000
    9    -1.000000    90.000000     0.408248    -0.577350     0.707107     0.166667     0.000000     0.000000
   10     1.000000   180.000000     0.816497     0.577350     0.000000     0.000000     0.000000     0.166667
   11     1.000000   120.000000     0.942809    -0.333333     0.000000     0.000000     0.000000     0.166667
   12     1.000000   120.000000    -0.000000    -1.000000    -0.000000     0.000000     0.000000     0.166667
   13    -1.000000    90.000000     0.816497     0.577350    -0.000000     0.000000     0.166667    -0.000000
   14    -1.000000    90.000000     0.408248    -0.577350    -0.707107     0.000000     0.166667    -0.000000
   15    -1.000000   180.000000     0.288675     0.816497     0.500000     0.000000     0.166667    -0.000000
   16     1.000000   120.000000    -0.000000     1.000000    -0.000000     0.166667     0.000000     0.000000
   17     1.000000   120.000000     0.471405     0.333333    -0.816497     0.166667     0.000000     0.000000
   18     1.000000   180.000000    -0.408248     0.577350     0.707107     0.166667     0.000000     0.000000
   19    -1.000000    90.000000    -0.408248     0.577350    -0.707107     0.000000     0.000000     0.166667
   20    -1.000000   180.000000     0.000000    -0.000000     1.000000     0.000000     0.000000     0.166667
   21    -1.000000    90.000000    -0.408248     0.577350     0.707107     0.000000     0.000000     0.166667
   22     1.000000   120.000000    -0.942809     0.333333     0.000000     0.000000     0.166667    -0.000000
   23     1.000000   180.000000    -0.408248     0.577350    -0.707107     0.000000     0.166667    -0.000000
   24     1.000000   120.000000    -0.471405    -0.333333     0.816497     0.000000     0.166667    -0.000000
 
 Subroutine IBZKPT returns following result:
 ===========================================
 
 Found      8 irreducible k-points:
 
 Following reciprocal coordinates:
            Coordinates               Weight
  0.000000  0.000000  0.000000      1.000000
  0.250000  0.000000  0.000000      8.000000
  0.500000  0.000000  0.000000      4.000000
  0.250000  0.250000  0.000000      6.000000
  0.500000  0.250000  0.000000     24.000000
 -0.250000  0.250000  0.000000     12.000000
  0.500000  0.500000  0.000000      3.000000
 -0.250000  0.500000  0.250000      6.000000
 
 Following cartesian coordinates:
            Coordinates               Weight
  0.000000  0.000000  0.000000      1.000000
  0.025059 -0.008860  0.000000      8.000000
  0.050118 -0.017719  0.000000      4.000000
  0.025059  0.017719  0.000000      6.000000
  0.050118  0.008860  0.000000     24.000000
 -0.025059  0.035439  0.000000     12.000000
  0.050118  0.035439  0.000000      3.000000
 -0.037588  0.053158  0.021702      6.000000
 


--------------------------------------------------------------------------------------------------------




 Dimension of arrays:
   k-points           NKPTS =      8   k-points in BZ     NKDIM =      8   number of bands    NBANDS=    144
   number of dos      NEDOS =    301   number of ions     NIONS =     54
   non local maximal  LDIM  =      4   non local SUM 2l+1 LMDIM =      8
   total plane-waves  NPLWV = 343000
   max r-space proj   IRMAX =      1   max aug-charges    IRDMAX=  10807
   dimension x,y,z NGX =    70 NGY =   70 NGZ =   70
   dimension x,y,z NGXF=   140 NGYF=  140 NGZF=  140
   support grid    NGXF=   140 NGYF=  140 NGZF=  140
   ions per type =               1  53
   NGX,Y,Z   is equivalent  to a cutoff of  10.10, 10.10, 10.10 a.u.
   NGXF,Y,Z  is equivalent  to a cutoff of  20.20, 20.20, 20.20 a.u.

 SYSTEM =  Si                                      
 POSCAR =  Si53 P1                                 

 Startparameter for this run:
   NWRITE =      2    write-flag & timer
   PREC   = normal    normal or accurate (medium, high low for compatibility)
   ISTART =      0    job   : 0-new  1-cont  2-samecut
   ICHARG =      2    charge: 1-file 2-atom 10-const
   ISPIN  =      1    spin polarized calculation?
   LNONCOLLINEAR =      F non collinear calculations
   LSORBIT =      F    spin-orbit coupling
   INIWAV =      1    electr: 0-lowe 1-rand  2-diag
   LASPH  =      F    aspherical Exc in radial PAW
   METAGGA=      F    non-selfconsistent MetaGGA calc.

 Electronic Relaxation 1
   ENCUT  =  550.0 eV  40.42 Ry    6.36 a.u.  22.03 22.03 22.03*2*pi/ulx,y,z
   ENINI  =  550.0     initial cutoff
   ENAUG  =  342.9 eV  augmentation charge cutoff
   NELM   =    200;   NELMIN=  2; NELMDL= -5     # of ELM steps 
   EDIFF  = 0.1E-05   stopping-criterion for ELM
   LREAL  =      F    real-space projection
   NLSPLINE    = F    spline interpolate recip. space projectors
   LCOMPAT=      F    compatible to vasp.4.4
   GGA_COMPAT  = T    GGA compatible to vasp.4.4-vasp.4.6
   LMAXPAW     = -100 max onsite density
   LMAXMIX     =    2 max onsite mixed and CHGCAR
   VOSKOWN=      0    Vosko Wilk Nusair interpolation
   ROPT   =    0.00000   0.00000
 Ionic relaxation
   EDIFFG = -.5E-01   stopping-criterion for IOM
   NSW    =      0    number of steps for IOM
   NBLOCK =      1;   KBLOCK =      1    inner block; outer block 
   IBRION =     -1    ionic relax: 0-MD 1-quasi-New 2-CG
   NFREE  =      1    steps in history (QN), initial steepest desc. (CG)
   ISIF   =      2    stress and relaxation
   IWAVPR =     10    prediction:  0-non 1-charg 2-wave 3-comb
   ISYM   =      2    0-nonsym 1-usesym 2-fastsym
   LCORR  =      T    Harris-Foulkes like correction to forces

   POTIM  = 0.5000    time-step for ionic-motion
   TEIN   =    0.0    initial temperature
   TEBEG  =    0.0;   TEEND  =   0.0 temperature during run
   SMASS  =  -3.00    Nose mass-parameter (am)
   estimated Nose-frequenzy (Omega)   =  0.10E-29 period in steps =****** mass=  -0.303E-26a.u.
   SCALEE = 1.0000    scale energy and forces
   NPACO  =    256;   APACO  = 16.0  distance and # of slots for P.C.
   PSTRESS=    0.0 pullay stress

  Mass of Ions in am
   POMASS =  30.97 28.09
  Ionic Valenz
   ZVAL   =   5.00  4.00
  Atomic Wigner-Seitz radii
   RWIGS  =  -1.00 -1.00
  virtual crystal weights 
   VCA    =   1.00  1.00
   NELECT =     217.0000    total number of electrons
   NUPDOWN=      -1.0000    fix difference up-down

 DOS related values:
   EMIN   =  10.00;   EMAX   =-10.00  energy-range for DOS
   EFERMI =   0.00
   ISMEAR =     0;   SIGMA  =   0.05  broadening in eV -4-tet -1-fermi 0-gaus

 Electronic relaxation 2 (details)
   IALGO  =     38    algorithm
   LDIAG  =      T    sub-space diagonalisation (order eigenvalues)
   LSUBROT=      F    optimize rotation matrix (better conditioning)
   TURBO    =      0    0=normal 1=particle mesh
   IRESTART =      0    0=no restart 2=restart with 2 vectors
   NREBOOT  =      0    no. of reboots
   NMIN     =      0    reboot dimension
   EREF     =   0.00    reference energy to select bands
   IMIX   =      4    mixing-type and parameters
     AMIX     =   0.20;   BMIX     =  1.00
     AMIX_MAG =   0.80;   BMIX_MAG =  1.00
     AMIN     =   0.10
     WC   =   100.;   INIMIX=   1;  MIXPRE=   1;  MAXMIX= -45

 Intra band minimization:
   WEIMIN = 0.0000     energy-eigenvalue tresh-hold
   EBREAK =  0.17E-08  absolut break condition
   DEPER  =   0.30     relativ break condition  

   TIME   =   0.40     timestep for ELM

  volume/ion in A,a.u.               =      20.02       135.09
  Fermi-wavevector in a.u.,A,eV,Ry     =   0.958562  1.811420 12.501599  0.918842
  Thomas-Fermi vector in A             =   2.087681
 
 Write flags
   LWAVE        =      T    write WAVECAR
   LDOWNSAMPLE  =      F    k-point downsampling of WAVECAR
   LCHARG       =      T    write CHGCAR
   LVTOT        =      F    write LOCPOT, total local potential
   LVHAR        =      F    write LOCPOT, Hartree potential only
   LELF         =      F    write electronic localiz. function (ELF)
   LORBIT       =     10    0 simple, 1 ext, 2 COOP (PROOUT), +10 PAW based schemes


 Dipole corrections
   LMONO  =      F    monopole corrections only (constant potential shift)
   LDIPOL =      F    correct potential (dipole corrections)
   IDIPOL =      0    1-x, 2-y, 3-z, 4-all directions 
   EPSILON=  1.0000000 bulk dielectric constant

 Exchange correlation treatment:
   GGA     =    --    GGA type
   LEXCH   =     8    internal setting for exchange type
   VOSKOWN=      0    Vosko Wilk Nusair interpolation
   LHFCALC =     F    Hartree Fock is set to
   LHFONE  =     F    Hartree Fock one center treatment
   AEXX    =    0.0000 exact exchange contribution

 Linear response parameters
   LEPSILON=     F    determine dielectric tensor
   LRPA    =     F    only Hartree local field effects (RPA)
   LNABLA  =     F    use nabla operator in PAW spheres
   LVEL    =     F    velocity operator in full k-point grid
   LINTERFAST=   F  fast interpolation
   KINTER  =     0    interpolate to denser k-point grid
   CSHIFT  =0.1000    complex shift for real part using Kramers Kronig
   OMEGAMAX=  -1.0    maximum frequency
   DEG_THRESHOLD= 0.2000000E-02 threshold for treating states as degnerate
   RTIME   =   -0.100 relaxation time in fs
  (WPLASMAI=    0.000 imaginary part of plasma frequency in eV, 0.658/RTIME)
   DFIELD  = 0.0000000 0.0000000 0.0000000 field for delta impulse in time
 
 Orbital magnetization related:
   ORBITALMAG=     F  switch on orbital magnetization
   LCHIMAG   =     F  perturbation theory with respect to B field
   DQ        =  0.001000  dq finite difference perturbation B field
   LLRAUG    =     F  two centre corrections for induced B field



--------------------------------------------------------------------------------------------------------


 Static calculation
 charge density and potential will be updated during run
 non-spin polarized calculation
 Variant of blocked Davidson
 Davidson routine will perform the subspace rotation
 perform sub-space diagonalisation
    after iterative eigenvector-optimisation
 modified Broyden-mixing scheme, WC =      100.0
 initial mixing is a Kerker type mixing with AMIX =  0.2000 and BMIX =      1.0000
 Hartree-type preconditioning will be used
 using additional bands           35
 reciprocal scheme for non local part
 use partial core corrections
 calculate Harris-corrections to forces 
   (improved forces if not selfconsistent)
 use gradient corrections 
 use of overlap-Matrix (Vanderbilt PP)
 Gauss-broadening in eV      SIGMA  =   0.05


--------------------------------------------------------------------------------------------------------


  energy-cutoff  :      550.00
  volume of cell :     1080.99
      direct lattice vectors                 reciprocal lattice vectors
     9.976465530  0.000000000  5.759915070     0.100235900 -0.035438742  0.000000000
     3.325488510  9.405901920  5.759915070     0.000000000  0.106316227  0.000000000
     0.000000000  0.000000000 11.519830140    -0.050117950 -0.035438742  0.086806836

  length of vectors
    11.519830124 11.519830136 11.519830140     0.106316227  0.106316227  0.106316227


 
 k-points in units of 2pi/SCALE and weight: Automatic kpoint scheme                 
   0.00000000  0.00000000  0.00000000       0.016
   0.02505897 -0.00885969  0.00000000       0.125
   0.05011795 -0.01771937  0.00000000       0.062
   0.02505897  0.01771937  0.00000000       0.094
   0.05011795  0.00885969  0.00000000       0.375
  -0.02505897  0.03543874  0.00000000       0.188
   0.05011795  0.03543874  0.00000000       0.047
  -0.03758846  0.05315811  0.02170171       0.094
 
 k-points in reciprocal lattice and weights: Automatic kpoint scheme                 
   0.00000000  0.00000000  0.00000000       0.016
   0.25000000  0.00000000  0.00000000       0.125
   0.50000000  0.00000000  0.00000000       0.062
   0.25000000  0.25000000  0.00000000       0.094
   0.50000000  0.25000000  0.00000000       0.375
  -0.25000000  0.25000000  0.00000000       0.188
   0.50000000  0.50000000  0.00000000       0.047
  -0.25000000  0.50000000  0.25000000       0.094
 
 position of ions in fractional coordinates (direct lattice) 
   0.29166667  0.29166667  0.29166667
   0.29166667  0.29166667  0.62500000
   0.29166667  0.29166667  0.95833333
   0.29166667  0.62500000  0.29166667
   0.29166667  0.62500000  0.62500000
   0.29166667  0.62500000  0.95833333
   0.29166667  0.95833333  0.29166667
   0.29166667  0.95833333  0.62500000
   0.29166667  0.95833333  0.95833333
   0.62500000  0.29166667  0.29166667
   0.62500000  0.29166667  0.62500000
   0.62500000  0.29166667  0.95833333
   0.62500000  0.62500000  0.29166667
   0.62500000  0.62500000  0.62500000
   0.62500000  0.62500000  0.95833333
   0.62500000  0.95833333  0.29166667
   0.62500000  0.95833333  0.62500000
   0.62500000  0.95833333  0.95833333
   0.95833333  0.29166667  0.29166667
   0.95833333  0.29166667  0.62500000
   0.95833333  0.29166667  0.95833333
   0.95833333  0.62500000  0.29166667
   0.95833333  0.62500000  0.62500000
   0.95833333  0.62500000  0.95833333
   0.95833333  0.95833333  0.29166667
   0.95833333  0.95833333  0.62500000
   0.95833333  0.95833333  0.95833333
   0.04166667  0.04166667  0.04166667
   0.04166667  0.04166667  0.37500000
   0.04166667  0.04166667  0.70833333
   0.04166667  0.37500000  0.04166667
   0.04166667  0.37500000  0.37500000
   0.04166667  0.37500000  0.70833333
   0.04166667  0.70833333  0.04166667
   0.04166667  0.70833333  0.37500000
   0.04166667  0.70833333  0.70833333
   0.37500000  0.04166667  0.04166667
   0.37500000  0.04166667  0.37500000
   0.37500000  0.04166667  0.70833333
   0.37500000  0.37500000  0.04166667
   0.37500000  0.37500000  0.37500000
   0.37500000  0.37500000  0.70833333
   0.37500000  0.70833333  0.04166667
   0.37500000  0.70833333  0.37500000
   0.37500000  0.70833333  0.70833333
   0.70833333  0.04166667  0.04166667
   0.70833333  0.04166667  0.37500000
   0.70833333  0.04166667  0.70833333
   0.70833333  0.37500000  0.04166667
   0.70833333  0.37500000  0.37500000
   0.70833333  0.37500000  0.70833333
   0.70833333  0.70833333  0.04166667
   0.70833333  0.70833333  0.37500000
   0.70833333  0.70833333  0.70833333
 
 position of ions in cartesian coordinates  (Angst):
   3.87973659  2.74338806  6.71990091
   3.87973659  2.74338806 10.55984429
   3.87973659  2.74338806 14.39978767
   4.98823276  5.87868870  8.63987260
   4.98823276  5.87868870 12.47981598
   4.98823276  5.87868870 16.31975937
   6.09672893  9.01398934 10.55984429
   6.09672893  9.01398934 14.39978767
   6.09672893  9.01398934 18.23973106
   7.20522510  2.74338806  8.63987260
   7.20522510  2.74338806 12.47981598
   7.20522510  2.74338806 16.31975937
   8.31372128  5.87868870 10.55984429
   8.31372128  5.87868870 14.39978767
   8.31372128  5.87868870 18.23973106
   9.42221745  9.01398934 12.47981598
   9.42221745  9.01398934 16.31975937
   9.42221745  9.01398934 20.15970275
  10.53071362  2.74338806 10.55984429
  10.53071362  2.74338806 14.39978767
  10.53071362  2.74338806 18.23973106
  11.63920979  5.87868870 12.47981598
  11.63920979  5.87868870 16.31975937
  11.63920979  5.87868870 20.15970275
  12.74770596  9.01398934 14.39978767
  12.74770596  9.01398934 18.23973106
  12.74770596  9.01398934 22.07967444
   0.55424808  0.39191258  0.95998584
   0.55424808  0.39191258  4.79992922
   0.55424808  0.39191258  8.63987260
   1.66274425  3.52721322  2.87995753
   1.66274425  3.52721322  6.71990091
   1.66274425  3.52721322 10.55984430
   2.77124042  6.66251386  4.79992922
   2.77124042  6.66251386  8.63987261
   2.77124042  6.66251386 12.47981599
   3.87973659  0.39191258  2.87995753
   3.87973659  0.39191258  6.71990091
   3.87973659  0.39191258 10.55984430
   4.98823277  3.52721322  4.79992922
   4.98823277  3.52721322  8.63987261
   4.98823277  3.52721322 12.47981599
   6.09672894  6.66251386  6.71990091
   6.09672894  6.66251386 10.55984430
   6.09672894  6.66251386 14.39978768
   7.20522511  0.39191258  4.79992922
   7.20522511  0.39191258  8.63987261
   7.20522511  0.39191258 12.47981599
   8.31372128  3.52721322  6.71990091
   8.31372128  3.52721322 10.55984430
   8.31372128  3.52721322 14.39978768
   9.42221745  6.66251386  8.63987260
   9.42221745  6.66251386 12.47981599
   9.42221745  6.66251386 16.31975937
 


--------------------------------------------------------------------------------------------------------


 k-point  1 :   0.0000 0.0000 0.0000  plane waves:   31415
 k-point  2 :   0.2500 0.0000 0.0000  plane waves:   31608
 k-point  3 :   0.5000 0.0000 0.0000  plane waves:   31638
 k-point  4 :   0.2500 0.2500 0.0000  plane waves:   31695
 k-point  5 :   0.5000 0.2500 0.0000  plane waves:   31649
 k-point  6 :  -0.2500 0.2500 0.0000  plane waves:   31674
 k-point  7 :   0.5000 0.5000 0.0000  plane waves:   31716
 k-point  8 :  -0.2500 0.5000 0.2500  plane waves:   31684

 maximum and minimum number of plane-waves per node :     31716    31415

 maximum number of plane-waves:     31716
 maximum index in each direction: 
   IXMAX=   22   IYMAX=   22   IZMAX=   22
   IXMIN=  -22   IYMIN=  -22   IZMIN=  -22


 serial   3D FFT for wavefunctions
 parallel 3D FFT for charge:
    minimum data exchange during FFTs selected (reduces bandwidth)


 total amount of memory used by VASP MPI-rank0   140598. kBytes
=======================================================================

   base      :      30000. kBytes
   nonl-proj :      59902. kBytes
   fftplans  :       5382. kBytes
   grid      :      20451. kBytes
   one-center:        165. kBytes
   wavefun   :      24698. kBytes
 
     INWAV:  cpu time    0.0000: real time    0.0004
 Broyden mixing: mesh for mixing (old mesh)
   NGX = 45   NGY = 45   NGZ = 45
  (NGX  =140   NGY  =140   NGZ  =140)
  gives a total of  91125 points

 initial charge density was supplied:
 charge density of overlapping atoms calculated
 number of electron     217.0000000 magnetization 
 keeping initial charge density in first step


--------------------------------------------------------------------------------------------------------


 Maximum index for augmentation-charges          503 (set IRDMAX)


--------------------------------------------------------------------------------------------------------


 First call to EWALD:  gamma=   0.173
 Maximum number of real-space cells 3x 3x 3
 Maximum number of reciprocal cells 3x 3x 3

    FEWALD:  cpu time    0.0682: real time    0.0688


--------------------------------------- Iteration      1(   1)  ---------------------------------------


    POTLOK:  cpu time    0.2336: real time    0.2404
    SETDIJ:  cpu time    0.0405: real time    0.0414
     EDDAV:  cpu time    3.6250: real time    3.6746
       DOS:  cpu time    0.0068: real time    0.0078
    --------------------------------------------
      LOOP:  cpu time    3.9060: real time    3.9642

 eigenvalue-minimisations  :  2304
 total energy-change (2. order) : 0.5759705E+03  (-0.8606251E+04)
 number of electron     217.0000000 magnetization 
 augmentation part      217.0000000 magnetization 

 Free energy of the ion-electron system (eV)
  ---------------------------------------------------
  alpha Z        PSCENC =        93.56316191
  Ewald energy   TEWEN  =     -6229.80980546
  -Hartree energ DENC   =      -311.93506175
  -exchange      EXHF   =         0.00000000
  -V(xc)+E(xc)   XCENC  =      -489.62529972
  PAW double counting   =      4810.32140949    -3869.71602298
  entropy T*S    EENTRO =        -0.01510579
  eigenvalues    EBANDS =       934.62215681
  atomic energy  EATOM  =      5638.56506835
  Solvation  Ediel_sol  =         0.00000000
  ---------------------------------------------------
  free energy    TOTEN  =       575.97050086 eV

  energy without entropy =      575.98560665  energy(sigma->0) =      575.97805375


--------------------------------------------------------------------------------------------------------




--------------------------------------- Iteration      1(   2)  ---------------------------------------


     EDDAV:  cpu time    3.8554: real time    3.8901
       DOS:  cpu time    0.0046: real time    0.0046
    --------------------------------------------
      LOOP:  cpu time    3.8600: real time    3.8947

 eigenvalue-minimisations  :  2808
 total energy-change (2. order) :-0.8216871E+03  (-0.7900503E+03)
 number of electron     217.0000000 magnetization 
 augmentation part      217.0000000 magnetization 

 Free energy of the ion-electron system (eV)
  ---------------------------------------------------
  alpha Z        PSCENC =        93.56316191
  Ewald energy   TEWEN  =     -6229.80980546
  -Hartree energ DENC   =      -311.93506175
  -exchange      EXHF   =         0.00000000
  -V(xc)+E(xc)   XCENC  =      -489.62529972
  PAW double counting   =      4810.32140949    -3869.71602298
  entropy T*S    EENTRO =        -0.01519555
  eigenvalues    EBANDS =       112.93518222
  atomic energy  EATOM  =      5638.56506835
  Solvation  Ediel_sol  =         0.00000000
  ---------------------------------------------------
  free energy    TOTEN  =      -245.71656348 eV

  energy without entropy =     -245.70136793  energy(sigma->0) =     -245.70896571


--------------------------------------------------------------------------------------------------------




--------------------------------------- Iteration      1(   3)  ---------------------------------------


     EDDAV:  cpu time    3.9584: real time    3.9931
       DOS:  cpu time    0.0053: real time    0.0053
    --------------------------------------------
      LOOP:  cpu time    3.9638: real time    3.9984

 eigenvalue-minimisations  :  2880
 total energy-change (2. order) :-0.5074444E+02  (-0.5016160E+02)
 number of electron     217.0000000 magnetization 
 augmentation part      217.0000000 magnetization 

 Free energy of the ion-electron system (eV)
  ---------------------------------------------------
  alpha Z        PSCENC =        93.56316191
  Ewald energy   TEWEN  =     -6229.80980546
  -Hartree energ DENC   =      -311.93506175
  -exchange      EXHF   =         0.00000000
  -V(xc)+E(xc)   XCENC  =      -489.62529972
  PAW double counting   =      4810.32140949    -3869.71602298
  entropy T*S    EENTRO =        -0.01320981
  eigenvalues    EBANDS =        62.18875274
  atomic energy  EATOM  =      5638.56506835
  Solvation  Ediel_sol  =         0.00000000
  ---------------------------------------------------
  free energy    TOTEN  =      -296.46100723 eV

  energy without entropy =     -296.44779742  energy(sigma->0) =     -296.45440232


--------------------------------------------------------------------------------------------------------




--------------------------------------- Iteration      1(   4)  ---------------------------------------


     EDDAV:  cpu time    4.0958: real time    4.1315
       DOS:  cpu time    0.0054: real time    0.0054
    --------------------------------------------
      LOOP:  cpu time    4.1012: real time    4.1369

 eigenvalue-minimisations  :  2904
 total energy-change (2. order) :-0.1036033E+01  (-0.1030872E+01)
 number of electron     217.0000000 magnetization 
 augmentation part      217.0000000 magnetization 

 Free energy of the ion-electron system (eV)
  ---------------------------------------------------
  alpha Z        PSCENC =        93.56316191
  Ewald energy   TEWEN  =     -6229.80980546
  -Hartree energ DENC   =      -311.93506175
  -exchange      EXHF   =         0.00000000
  -V(xc)+E(xc)   XCENC  =      -489.62529972
  PAW double counting   =      4810.32140949    -3869.71602298
  entropy T*S    EENTRO =        -0.01431778
  eigenvalues    EBANDS =        61.15382751
  atomic energy  EATOM  =      5638.56506835
  Solvation  Ediel_sol  =         0.00000000
  ---------------------------------------------------
  free energy    TOTEN  =      -297.49704043 eV

  energy without entropy =     -297.48272264  energy(sigma->0) =     -297.48988154


--------------------------------------------------------------------------------------------------------




--------------------------------------- Iteration      1(   5)  ---------------------------------------


     EDDAV:  cpu time    4.0195: real time    4.0551
       DOS:  cpu time    0.0054: real time    0.0054
    CHARGE:  cpu time    0.1736: real time    0.1756
    MIXING:  cpu time    0.0100: real time    0.0104
    --------------------------------------------
      LOOP:  cpu time    4.2086: real time    4.2466

 eigenvalue-minimisations  :  2784
 total energy-change (2. order) :-0.2203026E-01  (-0.2201465E-01)
 number of electron     216.9999999 magnetization 
 augmentation part      -12.9812540 magnetization 

 Broyden mixing:
  rms(total) = 0.25441E+01    rms(broyden)= 0.25441E+01
  rms(prec ) = 0.29244E+01
  weight for this iteration     100.00

 Free energy of the ion-electron system (eV)
  ---------------------------------------------------
  alpha Z        PSCENC =        93.56316191
  Ewald energy   TEWEN  =     -6229.80980546
  -Hartree energ DENC   =      -311.93506175
  -exchange      EXHF   =         0.00000000
  -V(xc)+E(xc)   XCENC  =      -489.62529972
  PAW double counting   =      4810.32140949    -3869.71602298
  entropy T*S    EENTRO =        -0.01434439
  eigenvalues    EBANDS =        61.13182387
  atomic energy  EATOM  =      5638.56506835
  Solvation  Ediel_sol  =         0.00000000
  ---------------------------------------------------
  free energy    TOTEN  =      -297.51907068 eV

  energy without entropy =     -297.50472629  energy(sigma->0) =     -297.51189849


--------------------------------------------------------------------------------------------------------




--------------------------------------- Iteration      1(   6)  ---------------------------------------


    POTLOK:  cpu time    0.0859: real time    0.0869
    SETDIJ:  cpu time    0.0045: real time    0.0046
     EDDAV:  cpu time    4.1433: real time    4.1774
       DOS:  cpu time    0.0064: real time    0.0064
    CHARGE:  cpu time    0.1651: real time    0.1661
    MIXING:  cpu time    0.0041: real time    0.0049
    --------------------------------------------
      LOOP:  cpu time    4.4093: real time    4.4463

 eigenvalue-minimisations  :  3000
 total energy-change (2. order) : 0.2024199E+01  (-0.6701926E-01)
 number of electron     216.9999999 magnetization 
 augmentation part      -12.9196032 magnetization 

 Broyden mixing:
  rms(total) = 0.20463E+01    rms(broyden)= 0.20463E+01
  rms(prec ) = 0.23381E+01
  weight for this iteration     100.00

 eigenvalues of (default mixing * dielectric matrix)
  average eigenvalue GAMMA=   5.0561
  5.0561

 Free energy of the ion-electron system (eV)
  ---------------------------------------------------
  alpha Z        PSCENC =        93.56316191
  Ewald energy   TEWEN  =     -6229.80980546
  -Hartree energ DENC   =      -330.66294619
  -exchange      EXHF   =         0.00000000
  -V(xc)+E(xc)   XCENC  =      -486.59177486
  PAW double counting   =      7239.17231732    -6300.00630915
  entropy T*S    EENTRO =        -0.01601682
  eigenvalues    EBANDS =        80.29143307
  atomic energy  EATOM  =      5638.56506835
  Solvation  Ediel_sol  =         0.00000000
  ---------------------------------------------------
  free energy    TOTEN  =      -295.49487183 eV

  energy without entropy =     -295.47885501  energy(sigma->0) =     -295.48686342


--------------------------------------------------------------------------------------------------------




--------------------------------------- Iteration      1(   7)  ---------------------------------------


    POTLOK:  cpu time    0.0852: real time    0.0862
    SETDIJ:  cpu time    0.0053: real time    0.0053
     EDDAV:  cpu time    4.0886: real time    4.1243
       DOS:  cpu time    0.0071: real time    0.0072
    CHARGE:  cpu time    0.1651: real time    0.1663
    MIXING:  cpu time    0.0071: real time    0.0071
    --------------------------------------------
      LOOP:  cpu time    4.3584: real time    4.3963

 eigenvalue-minimisations  :  2952
 total energy-change (2. order) : 0.2946875E+01  (-0.8304578E+00)
 number of electron     216.9999999 magnetization 
 augmentation part      -12.6790128 magnetization 

 Broyden mixing:
  rms(total) = 0.20956E+00    rms(broyden)= 0.20956E+00
  rms(prec ) = 0.35103E+00
  weight for this iteration     100.00

 eigenvalues of (default mixing * dielectric matrix)
  average eigenvalue GAMMA=   3.3283
  1.6485  5.0082

 Free energy of the ion-electron system (eV)
  ---------------------------------------------------
  alpha Z        PSCENC =        93.56316191
  Ewald energy   TEWEN  =     -6229.80980546
  -Hartree energ DENC   =      -413.79682326
  -exchange      EXHF   =         0.00000000
  -V(xc)+E(xc)   XCENC  =      -473.24147156
  PAW double counting   =     22584.66623813   -21650.94394867
  entropy T*S    EENTRO =        -0.01433344
  eigenvalues    EBANDS =       158.46391707
  atomic energy  EATOM  =      5638.56506835
  Solvation  Ediel_sol  =         0.00000000
  ---------------------------------------------------
  free energy    TOTEN  =      -292.54799692 eV

  energy without entropy =     -292.53366348  energy(sigma->0) =     -292.54083020


--------------------------------------------------------------------------------------------------------




--------------------------------------- Iteration      1(   8)  ---------------------------------------


    POTLOK:  cpu time    0.0765: real time    0.0783
    SETDIJ:  cpu time    0.0118: real time    0.0119
     EDDAV:  cpu time    3.9078: real time    3.9552
       DOS:  cpu time    0.0066: real time    0.0066
    CHARGE:  cpu time    0.1626: real time    0.1637
    MIXING:  cpu time    0.0038: real time    0.0039
    --------------------------------------------
      LOOP:  cpu time    4.1692: real time    4.2196

 eigenvalue-minimisations  :  2904
 total energy-change (2. order) : 0.5557428E-01  (-0.1370387E+00)
 number of electron     216.9999999 magnetization 
 augmentation part      -12.6585854 magnetization 

 Broyden mixing:
  rms(total) = 0.13919E+00    rms(broyden)= 0.13919E+00
  rms(prec ) = 0.16004E+00
  weight for this iteration     100.00

 eigenvalues of (default mixing * dielectric matrix)
  average eigenvalue GAMMA=   2.5740
  5.0885  1.3168  1.3168

 Free energy of the ion-electron system (eV)
  ---------------------------------------------------
  alpha Z        PSCENC =        93.56316191
  Ewald energy   TEWEN  =     -6229.80980546
  -Hartree energ DENC   =      -414.71992327
  -exchange      EXHF   =         0.00000000
  -V(xc)+E(xc)   XCENC  =      -472.96760833
  PAW double counting   =     23265.70974403   -22331.58009573
  entropy T*S    EENTRO =        -0.01643504
  eigenvalues    EBANDS =       158.76347089
  atomic energy  EATOM  =      5638.56506835
  Solvation  Ediel_sol  =         0.00000000
  ---------------------------------------------------
  free energy    TOTEN  =      -292.49242265 eV

  energy without entropy =     -292.47598760  energy(sigma->0) =     -292.48420512


--------------------------------------------------------------------------------------------------------




--------------------------------------- Iteration      1(   9)  ---------------------------------------


    POTLOK:  cpu time    0.0800: real time    0.0841
    SETDIJ:  cpu time    0.0054: real time    0.0054
     EDDAV:  cpu time    3.9197: real time    3.9544
       DOS:  cpu time    0.0066: real time    0.0066
    CHARGE:  cpu time    0.1635: real time    0.1645
    MIXING:  cpu time    0.0040: real time    0.0040
    --------------------------------------------
      LOOP:  cpu time    4.1791: real time    4.2191

 eigenvalue-minimisations  :  2736
 total energy-change (2. order) :-0.1884416E-01  (-0.1597295E-01)
 number of electron     216.9999999 magnetization 
 augmentation part      -12.6602443 magnetization 

 Broyden mixing:
  rms(total) = 0.76047E-01    rms(broyden)= 0.76047E-01
  rms(prec ) = 0.96581E-01
  weight for this iteration     100.00

 eigenvalues of (default mixing * dielectric matrix)
  average eigenvalue GAMMA=   2.4975
  4.8850  1.0060  2.0495  2.0495

 Free energy of the ion-electron system (eV)
  ---------------------------------------------------
  alpha Z        PSCENC =        93.56316191
  Ewald energy   TEWEN  =     -6229.80980546
  -Hartree energ DENC   =      -416.23020583
  -exchange      EXHF   =         0.00000000
  -V(xc)+E(xc)   XCENC  =      -472.66713842
  PAW double counting   =     23733.27195662   -22799.15543839
  entropy T*S    EENTRO =        -0.01624804
  eigenvalues    EBANDS =       159.96738245
  atomic energy  EATOM  =      5638.56506835
  Solvation  Ediel_sol  =         0.00000000
  ---------------------------------------------------
  free energy    TOTEN  =      -292.51126681 eV

  energy without entropy =     -292.49501877  energy(sigma->0) =     -292.50314279


--------------------------------------------------------------------------------------------------------




--------------------------------------- Iteration      1(  10)  ---------------------------------------


    POTLOK:  cpu time    0.0872: real time    0.0882
    SETDIJ:  cpu time    0.0038: real time    0.0038
     EDDAV:  cpu time    4.1104: real time    4.1452
       DOS:  cpu time    0.0065: real time    0.0065
    CHARGE:  cpu time    0.1633: real time    0.1643
    MIXING:  cpu time    0.0041: real time    0.0041
    --------------------------------------------
      LOOP:  cpu time    4.3754: real time    4.4122

 eigenvalue-minimisations  :  2880
 total energy-change (2. order) :-0.1157013E-02  (-0.3019941E-02)
 number of electron     216.9999999 magnetization 
 augmentation part      -12.6722958 magnetization 

 Broyden mixing:
  rms(total) = 0.47529E-01    rms(broyden)= 0.47529E-01
  rms(prec ) = 0.59352E-01
  weight for this iteration     100.00

 eigenvalues of (default mixing * dielectric matrix)
  average eigenvalue GAMMA=   2.6136
  4.4484  4.4484  1.8351  1.4564  0.8796

 Free energy of the ion-electron system (eV)
  ---------------------------------------------------
  alpha Z        PSCENC =        93.56316191
  Ewald energy   TEWEN  =     -6229.80980546
  -Hartree energ DENC   =      -414.57911826
  -exchange      EXHF   =         0.00000000
  -V(xc)+E(xc)   XCENC  =      -472.81927819
  PAW double counting   =     23592.27973536   -22657.85803506
  entropy T*S    EENTRO =        -0.01625468
  eigenvalues    EBANDS =       158.16210220
  atomic energy  EATOM  =      5638.56506835
  Solvation  Ediel_sol  =         0.00000000
  ---------------------------------------------------
  free energy    TOTEN  =      -292.51242382 eV

  energy without entropy =     -292.49616914  energy(sigma->0) =     -292.50429648


--------------------------------------------------------------------------------------------------------




--------------------------------------- Iteration      1(  11)  ---------------------------------------


    POTLOK:  cpu time    0.0890: real time    0.0903
    SETDIJ:  cpu time    0.0028: real time    0.0028
     EDDAV:  cpu time    4.3436: real time    4.3802
       DOS:  cpu time    0.0060: real time    0.0060
    CHARGE:  cpu time    0.1624: real time    0.1634
    MIXING:  cpu time    0.0043: real time    0.0044
    --------------------------------------------
      LOOP:  cpu time    4.6081: real time    4.6471

 eigenvalue-minimisations  :  3408
 total energy-change (2. order) :-0.5455834E-02  (-0.2278943E-02)
 number of electron     216.9999999 magnetization 
 augmentation part      -12.6793661 magnetization 

 Broyden mixing:
  rms(total) = 0.24417E-01    rms(broyden)= 0.24417E-01
  rms(prec ) = 0.33250E-01
  weight for this iteration     100.00

 eigenvalues of (default mixing * dielectric matrix)
  average eigenvalue GAMMA=   2.4551
  5.0303  3.0924  3.0924  1.3598  1.3598  0.7959

 Free energy of the ion-electron system (eV)
  ---------------------------------------------------
  alpha Z        PSCENC =        93.56316191
  Ewald energy   TEWEN  =     -6229.80980546
  -Hartree energ DENC   =      -413.41669733
  -exchange      EXHF   =         0.00000000
  -V(xc)+E(xc)   XCENC  =      -472.90572807
  PAW double counting   =     23473.27401044   -22538.56775004
  entropy T*S    EENTRO =        -0.01642344
  eigenvalues    EBANDS =       156.79628399
  atomic energy  EATOM  =      5638.56506835
  Solvation  Ediel_sol  =         0.00000000
  ---------------------------------------------------
  free energy    TOTEN  =      -292.51787966 eV

  energy without entropy =     -292.50145621  energy(sigma->0) =     -292.50966794


--------------------------------------------------------------------------------------------------------




--------------------------------------- Iteration      1(  12)  ---------------------------------------


    POTLOK:  cpu time    0.0872: real time    0.0883
    SETDIJ:  cpu time    0.0039: real time    0.0039
     EDDAV:  cpu time    4.0507: real time    4.0849
       DOS:  cpu time    0.0064: real time    0.0064
    CHARGE:  cpu time    0.1627: real time    0.1638
    MIXING:  cpu time    0.0044: real time    0.0044
    --------------------------------------------
      LOOP:  cpu time    4.3153: real time    4.3518

 eigenvalue-minimisations  :  3096
 total energy-change (2. order) :-0.7050915E-03  (-0.6966029E-03)
 number of electron     216.9999999 magnetization 
 augmentation part      -12.6805782 magnetization 

 Broyden mixing:
  rms(total) = 0.21558E-01    rms(broyden)= 0.21558E-01
  rms(prec ) = 0.24331E-01
  weight for this iteration     100.00

 eigenvalues of (default mixing * dielectric matrix)
  average eigenvalue GAMMA=   2.5214
  4.9831  4.0214  4.0214  1.5173  1.5173  0.7945  0.7945

 Free energy of the ion-electron system (eV)
  ---------------------------------------------------
  alpha Z        PSCENC =        93.56316191
  Ewald energy   TEWEN  =     -6229.80980546
  -Hartree energ DENC   =      -414.50006195
  -exchange      EXHF   =         0.00000000
  -V(xc)+E(xc)   XCENC  =      -472.72643756
  PAW double counting   =     23607.43293887   -22672.78549488
  entropy T*S    EENTRO =        -0.01630615
  eigenvalues    EBANDS =       157.75835212
  atomic energy  EATOM  =      5638.56506835
  Solvation  Ediel_sol  =         0.00000000
  ---------------------------------------------------
  free energy    TOTEN  =      -292.51858475 eV

  energy without entropy =     -292.50227859  energy(sigma->0) =     -292.51043167


--------------------------------------------------------------------------------------------------------




--------------------------------------- Iteration      1(  13)  ---------------------------------------


    POTLOK:  cpu time    0.0866: real time    0.0877
    SETDIJ:  cpu time    0.0045: real time    0.0045
     EDDAV:  cpu time    3.8494: real time    3.8813
       DOS:  cpu time    0.0064: real time    0.0065
    CHARGE:  cpu time    0.1622: real time    0.1632
    MIXING:  cpu time    0.0046: real time    0.0046
    --------------------------------------------
      LOOP:  cpu time    4.1137: real time    4.1477

 eigenvalue-minimisations  :  2736
 total energy-change (2. order) :-0.9334971E-03  (-0.2147415E-03)
 number of electron     216.9999999 magnetization 
 augmentation part      -12.6820580 magnetization 

 Broyden mixing:
  rms(total) = 0.13527E-01    rms(broyden)= 0.13527E-01
  rms(prec ) = 0.16308E-01
  weight for this iteration     100.00

 eigenvalues of (default mixing * dielectric matrix)
  average eigenvalue GAMMA=   2.5273
  5.1157  4.5310  4.0386  1.7797  1.7797  0.8278  1.0731  1.0731

 Free energy of the ion-electron system (eV)
  ---------------------------------------------------
  alpha Z        PSCENC =        93.56316191
  Ewald energy   TEWEN  =     -6229.80980546
  -Hartree energ DENC   =      -414.45817438
  -exchange      EXHF   =         0.00000000
  -V(xc)+E(xc)   XCENC  =      -472.72354985
  PAW double counting   =     23487.94086344   -22553.25497686
  entropy T*S    EENTRO =        -0.01629020
  eigenvalues    EBANDS =       157.67418479
  atomic energy  EATOM  =      5638.56506835
  Solvation  Ediel_sol  =         0.00000000
  ---------------------------------------------------
  free energy    TOTEN  =      -292.51951825 eV

  energy without entropy =     -292.50322805  energy(sigma->0) =     -292.51137315


--------------------------------------------------------------------------------------------------------




--------------------------------------- Iteration      1(  14)  ---------------------------------------


    POTLOK:  cpu time    0.0870: real time    0.0880
    SETDIJ:  cpu time    0.0039: real time    0.0039
     EDDAV:  cpu time    4.0620: real time    4.0948
       DOS:  cpu time    0.0064: real time    0.0064
    CHARGE:  cpu time    0.1618: real time    0.1629
    MIXING:  cpu time    0.0046: real time    0.0046
    --------------------------------------------
      LOOP:  cpu time    4.3258: real time    4.3606

 eigenvalue-minimisations  :  2976
 total energy-change (2. order) :-0.2873738E-03  (-0.8774470E-04)
 number of electron     216.9999999 magnetization 
 augmentation part      -12.6830867 magnetization 

 Broyden mixing:
  rms(total) = 0.78379E-02    rms(broyden)= 0.78379E-02
  rms(prec ) = 0.90758E-02
  weight for this iteration     100.00

 eigenvalues of (default mixing * dielectric matrix)
  average eigenvalue GAMMA=   2.5065
  5.2562  5.2562  3.1615  3.1615  1.5394  1.5394  0.9121  0.9121  0.8198

 Free energy of the ion-electron system (eV)
  ---------------------------------------------------
  alpha Z        PSCENC =        93.56316191
  Ewald energy   TEWEN  =     -6229.80980546
  -Hartree energ DENC   =      -414.47066877
  -exchange      EXHF   =         0.00000000
  -V(xc)+E(xc)   XCENC  =      -472.71039446
  PAW double counting   =     23432.51771501   -22497.78845354
  entropy T*S    EENTRO =        -0.01631239
  eigenvalues    EBANDS =       157.62988374
  atomic energy  EATOM  =      5638.56506835
  Solvation  Ediel_sol  =         0.00000000
  ---------------------------------------------------
  free energy    TOTEN  =      -292.51980562 eV

  energy without entropy =     -292.50349323  energy(sigma->0) =     -292.51164943


--------------------------------------------------------------------------------------------------------




--------------------------------------- Iteration      1(  15)  ---------------------------------------


    POTLOK:  cpu time    0.0863: real time    0.0873
    SETDIJ:  cpu time    0.0046: real time    0.0046
     EDDAV:  cpu time    4.2391: real time    4.2740
       DOS:  cpu time    0.0067: real time    0.0067
    CHARGE:  cpu time    0.1624: real time    0.1634
    MIXING:  cpu time    0.0049: real time    0.0050
    --------------------------------------------
      LOOP:  cpu time    4.5040: real time    4.5410

 eigenvalue-minimisations  :  3096
 total energy-change (2. order) :-0.2631971E-04  (-0.4425905E-04)
 number of electron     216.9999999 magnetization 
 augmentation part      -12.6826574 magnetization 

 Broyden mixing:
  rms(total) = 0.46223E-02    rms(broyden)= 0.46223E-02
  rms(prec ) = 0.56353E-02
  weight for this iteration     100.00

 eigenvalues of (default mixing * dielectric matrix)
  average eigenvalue GAMMA=   2.5016
  6.0041  5.3309  4.0612  2.6525  1.5983  1.5983  0.8237  0.9104  1.0181  1.0181

 Free energy of the ion-electron system (eV)
  ---------------------------------------------------
  alpha Z        PSCENC =        93.56316191
  Ewald energy   TEWEN  =     -6229.80980546
  -Hartree energ DENC   =      -414.58435341
  -exchange      EXHF   =         0.00000000
  -V(xc)+E(xc)   XCENC  =      -472.70066176
  PAW double counting   =     23405.03841025   -22470.31523160
  entropy T*S    EENTRO =        -0.01634354
  eigenvalues    EBANDS =       157.73992332
  atomic energy  EATOM  =      5638.56506835
  Solvation  Ediel_sol  =         0.00000000
  ---------------------------------------------------
  free energy    TOTEN  =      -292.51983194 eV

  energy without entropy =     -292.50348840  energy(sigma->0) =     -292.51166017


--------------------------------------------------------------------------------------------------------




--------------------------------------- Iteration      1(  16)  ---------------------------------------


    POTLOK:  cpu time    0.0870: real time    0.0880
    SETDIJ:  cpu time    0.0037: real time    0.0037
     EDDAV:  cpu time    3.9546: real time    3.9885
       DOS:  cpu time    0.0056: real time    0.0057
    CHARGE:  cpu time    0.1624: real time    0.1634
    MIXING:  cpu time    0.0053: real time    0.0054
    --------------------------------------------
      LOOP:  cpu time    4.2186: real time    4.2546

 eigenvalue-minimisations  :  2928
 total energy-change (2. order) :-0.1005696E-04  (-0.1461056E-04)
 number of electron     216.9999999 magnetization 
 augmentation part      -12.6825172 magnetization 

 Broyden mixing:
  rms(total) = 0.30763E-02    rms(broyden)= 0.30763E-02
  rms(prec ) = 0.34556E-02
  weight for this iteration     100.00

 eigenvalues of (default mixing * dielectric matrix)
  average eigenvalue GAMMA=   2.4068
  5.8938  5.1942  3.3940  3.3940  1.6659  1.6659  1.3149  1.3149  0.8908  0.8908
  0.8561

 Free energy of the ion-electron system (eV)
  ---------------------------------------------------
  alpha Z        PSCENC =        93.56316191
  Ewald energy   TEWEN  =     -6229.80980546
  -Hartree energ DENC   =      -414.67271340
  -exchange      EXHF   =         0.00000000
  -V(xc)+E(xc)   XCENC  =      -472.69223649
  PAW double counting   =     23368.11777618   -22433.40081507
  entropy T*S    EENTRO =        -0.01633123
  eigenvalues    EBANDS =       157.82605321
  atomic energy  EATOM  =      5638.56506835
  Solvation  Ediel_sol  =         0.00000000
  ---------------------------------------------------
  free energy    TOTEN  =      -292.51984200 eV

  energy without entropy =     -292.50351077  energy(sigma->0) =     -292.51167638


--------------------------------------------------------------------------------------------------------




--------------------------------------- Iteration      1(  17)  ---------------------------------------


    POTLOK:  cpu time    0.0870: real time    0.0880
    SETDIJ:  cpu time    0.0038: real time    0.0039
     EDDAV:  cpu time    3.9028: real time    3.9374
       DOS:  cpu time    0.0060: real time    0.0061
    CHARGE:  cpu time    0.1623: real time    0.1634
    MIXING:  cpu time    0.0053: real time    0.0054
    --------------------------------------------
      LOOP:  cpu time    4.1673: real time    4.2041

 eigenvalue-minimisations  :  2760
 total energy-change (2. order) : 0.2949771E-05  (-0.2124595E-05)
 number of electron     216.9999999 magnetization 
 augmentation part      -12.6825978 magnetization 

 Broyden mixing:
  rms(total) = 0.20759E-02    rms(broyden)= 0.20759E-02
  rms(prec ) = 0.24365E-02
  weight for this iteration     100.00

 eigenvalues of (default mixing * dielectric matrix)
  average eigenvalue GAMMA=   2.5761
  5.8407  5.8407  4.4835  4.4835  1.9727  1.9727  1.3491  1.3491  0.9669  0.9669
  0.8438  0.8438

 Free energy of the ion-electron system (eV)
  ---------------------------------------------------
  alpha Z        PSCENC =        93.56316191
  Ewald energy   TEWEN  =     -6229.80980546
  -Hartree energ DENC   =      -414.66650416
  -exchange      EXHF   =         0.00000000
  -V(xc)+E(xc)   XCENC  =      -472.69260900
  PAW double counting   =     23374.41393299   -22439.69414866
  entropy T*S    EENTRO =        -0.01633273
  eigenvalues    EBANDS =       157.81739770
  atomic energy  EATOM  =      5638.56506835
  Solvation  Ediel_sol  =         0.00000000
  ---------------------------------------------------
  free energy    TOTEN  =      -292.51983905 eV

  energy without entropy =     -292.50350632  energy(sigma->0) =     -292.51167268


--------------------------------------------------------------------------------------------------------




--------------------------------------- Iteration      1(  18)  ---------------------------------------


    POTLOK:  cpu time    0.0860: real time    0.0870
    SETDIJ:  cpu time    0.0054: real time    0.0054
     EDDAV:  cpu time    3.8983: real time    3.9308
       DOS:  cpu time    0.0061: real time    0.0062
    CHARGE:  cpu time    0.1632: real time    0.1643
    MIXING:  cpu time    0.0056: real time    0.0057
    --------------------------------------------
      LOOP:  cpu time    4.1646: real time    4.1992

 eigenvalue-minimisations  :  2784
 total energy-change (2. order) :-0.1041528E-05  (-0.4365404E-06)
 number of electron     216.9999999 magnetization 
 augmentation part      -12.6825026 magnetization 

 Broyden mixing:
  rms(total) = 0.10974E-02    rms(broyden)= 0.10974E-02
  rms(prec ) = 0.14693E-02
  weight for this iteration     100.00

 eigenvalues of (default mixing * dielectric matrix)
  average eigenvalue GAMMA=   2.3995
  6.3651  5.0559  4.0570  4.0570  1.9928  1.9928  1.3547  1.3547  1.1468  1.1468
  0.8496  0.9104  0.9104

 Free energy of the ion-electron system (eV)
  ---------------------------------------------------
  alpha Z        PSCENC =        93.56316191
  Ewald energy   TEWEN  =     -6229.80980546
  -Hartree energ DENC   =      -414.68318999
  -exchange      EXHF   =         0.00000000
  -V(xc)+E(xc)   XCENC  =      -472.69190852
  PAW double counting   =     23369.57931001   -22434.86050750
  entropy T*S    EENTRO =        -0.01633216
  eigenvalues    EBANDS =       157.83436326
  atomic energy  EATOM  =      5638.56506835
  Solvation  Ediel_sol  =         0.00000000
  ---------------------------------------------------
  free energy    TOTEN  =      -292.51984009 eV

  energy without entropy =     -292.50350793  energy(sigma->0) =     -292.51167401


--------------------------------------------------------------------------------------------------------




--------------------------------------- Iteration      1(  19)  ---------------------------------------


    POTLOK:  cpu time    0.0868: real time    0.0878
    SETDIJ:  cpu time    0.0041: real time    0.0042
     EDDAV:  cpu time    3.7490: real time    3.7811
       DOS:  cpu time    0.0060: real time    0.0060
    CHARGE:  cpu time    0.1626: real time    0.1636
    MIXING:  cpu time    0.0057: real time    0.0058
    --------------------------------------------
      LOOP:  cpu time    4.0142: real time    4.0484

 eigenvalue-minimisations  :  2688
 total energy-change (2. order) : 0.1280379E-05  (-0.4184146E-06)
 number of electron     216.9999999 magnetization 
 augmentation part      -12.6825293 magnetization 

 Broyden mixing:
  rms(total) = 0.77357E-03    rms(broyden)= 0.77357E-03
  rms(prec ) = 0.87017E-03
  weight for this iteration     100.00

 eigenvalues of (default mixing * dielectric matrix)
  average eigenvalue GAMMA=   2.4464
  5.6653  5.6653  4.6669  4.6669  2.1498  2.0542  1.6185  1.6185  1.2822  1.2822
  0.9375  0.9375  0.8520  0.8520

 Free energy of the ion-electron system (eV)
  ---------------------------------------------------
  alpha Z        PSCENC =        93.56316191
  Ewald energy   TEWEN  =     -6229.80980546
  -Hartree energ DENC   =      -414.69560451
  -exchange      EXHF   =         0.00000000
  -V(xc)+E(xc)   XCENC  =      -472.69002425
  PAW double counting   =     23368.34304272   -22433.62430125
  entropy T*S    EENTRO =        -0.01632820
  eigenvalues    EBANDS =       157.84495188
  atomic energy  EATOM  =      5638.56506835
  Solvation  Ediel_sol  =         0.00000000
  ---------------------------------------------------
  free energy    TOTEN  =      -292.51983881 eV

  energy without entropy =     -292.50351060  energy(sigma->0) =     -292.51167471


--------------------------------------------------------------------------------------------------------




--------------------------------------- Iteration      1(  20)  ---------------------------------------


    POTLOK:  cpu time    0.0866: real time    0.0876
    SETDIJ:  cpu time    0.0038: real time    0.0038
     EDDAV:  cpu time    3.8307: real time    3.8636
       DOS:  cpu time    0.0061: real time    0.0061
    CHARGE:  cpu time    0.1631: real time    0.1642
    MIXING:  cpu time    0.0060: real time    0.0060
    --------------------------------------------
      LOOP:  cpu time    4.0964: real time    4.1315

 eigenvalue-minimisations  :  2784
 total energy-change (2. order) :-0.1030992E-05  (-0.3795061E-06)
 number of electron     216.9999999 magnetization 
 augmentation part      -12.6824769 magnetization 

 Broyden mixing:
  rms(total) = 0.25382E-03    rms(broyden)= 0.25382E-03
  rms(prec ) = 0.31103E-03
  weight for this iteration     100.00

 eigenvalues of (default mixing * dielectric matrix)
  average eigenvalue GAMMA=   2.3878
  6.4201  5.0240  5.0240  4.4962  2.6049  1.8055  1.8055  1.3184  1.3184  1.1830
  1.1830  1.0693  0.8737  0.8737  0.8172

 Free energy of the ion-electron system (eV)
  ---------------------------------------------------
  alpha Z        PSCENC =        93.56316191
  Ewald energy   TEWEN  =     -6229.80980546
  -Hartree energ DENC   =      -414.70268336
  -exchange      EXHF   =         0.00000000
  -V(xc)+E(xc)   XCENC  =      -472.68990042
  PAW double counting   =     23369.45864497   -22434.74049180
  entropy T*S    EENTRO =        -0.01632625
  eigenvalues    EBANDS =       157.85249222
  atomic energy  EATOM  =      5638.56506835
  Solvation  Ediel_sol  =         0.00000000
  ---------------------------------------------------
  free energy    TOTEN  =      -292.51983984 eV

  energy without entropy =     -292.50351359  energy(sigma->0) =     -292.51167672


--------------------------------------------------------------------------------------------------------




--------------------------------------- Iteration      1(  21)  ---------------------------------------


    POTLOK:  cpu time    0.0871: real time    0.0881
    SETDIJ:  cpu time    0.0037: real time    0.0037
     EDDAV:  cpu time    3.0920: real time    3.1273
       DOS:  cpu time    0.0831: real time    0.0848
    --------------------------------------------
      LOOP:  cpu time    3.2658: real time    3.3038

 eigenvalue-minimisations  :  1704
 total energy-change (2. order) :-0.3636560E-06  (-0.6803124E-07)
 number of electron     216.9999999 magnetization 
 augmentation part      -12.6824769 magnetization 

 Free energy of the ion-electron system (eV)
  ---------------------------------------------------
  alpha Z        PSCENC =        93.56316191
  Ewald energy   TEWEN  =     -6229.80980546
  -Hartree energ DENC   =      -414.70818245
  -exchange      EXHF   =         0.00000000
  -V(xc)+E(xc)   XCENC  =      -472.68931417
  PAW double counting   =     23369.08694229   -22434.36906330
  entropy T*S    EENTRO =        -0.01632665
  eigenvalues    EBANDS =       157.85767927
  atomic energy  EATOM  =      5638.56506835
  Solvation  Ediel_sol  =         0.00000000
  ---------------------------------------------------
  free energy    TOTEN  =      -292.51984020 eV

  energy without entropy =     -292.50351355  energy(sigma->0) =     -292.51167688


--------------------------------------------------------------------------------------------------------




 average (electrostatic) potential at core
  the test charge radii are     0.9587  0.9892
  (the norm of the test charge is              1.0000)
       1 -83.6179       2 -83.2992       3 -83.2992       4 -83.2992       5 -83.2051
       6 -83.2992       7 -83.2992       8 -83.2992       9 -83.1980      10 -83.2992
      11 -83.2051      12 -83.2992      13 -83.2051      14 -83.2051      15 -83.1738
      16 -83.2992      17 -83.1738      18 -83.1738      19 -83.2992      20 -83.2992
      21 -83.1980      22 -83.2992      23 -83.1738      24 -83.1738      25 -83.1980
      26 -83.1738      27 -83.1980      28 -83.1630      29 -83.2107      30 -83.2107
      31 -83.2107      32 -83.7256      33 -83.2107      34 -83.2107      35 -83.2107
      36 -83.1738      37 -83.2107      38 -83.7256      39 -83.2107      40 -83.7256
      41 -83.7256      42 -83.2908      43 -83.2107      44 -83.2908      45 -83.2908
      46 -83.2107      47 -83.2107      48 -83.1738      49 -83.2107      50 -83.2908
      51 -83.2908      52 -83.1738      53 -83.2908      54 -83.1738
 
 
 
 E-fermi :   6.5341     XC(G=0):  -9.4198     alpha+bet :-11.9636


 k-point     1 :       0.0000    0.0000    0.0000
  band No.  band energies     occupation 
      1      -6.6960      2.00000
      2      -5.8288      2.00000
      3      -4.7911      2.00000
      4      -4.7911      2.00000
      5      -4.7911      2.00000
      6      -4.7419      2.00000
      7      -4.7419      2.00000
      8      -4.7419      2.00000
      9      -4.7147      2.00000
     10      -4.3838      2.00000
     11      -4.2395      2.00000
     12      -4.2395      2.00000
     13      -4.2395      2.00000
     14      -4.2211      2.00000
     15      -4.2211      2.00000
     16      -3.4236      2.00000
     17      -2.9577      2.00000
     18      -2.9577      2.00000
     19      -2.9577      2.00000
     20      -2.8687      2.00000
     21      -2.8687      2.00000
     22      -2.8687      2.00000
     23      -2.8499      2.00000
     24      -2.8499      2.00000
     25      -2.8254      2.00000
     26      -2.8254      2.00000
     27      -2.8254      2.00000
     28      -1.4384      2.00000
     29      -1.0832      2.00000
     30      -1.0832      2.00000
     31      -1.0832      2.00000
     32      -0.9483      2.00000
     33      -0.9483      2.00000
     34      -0.9483      2.00000
     35      -0.9215      2.00000
     36      -0.9215      2.00000
     37      -0.8997      2.00000
     38      -0.8997      2.00000
     39      -0.8997      2.00000
     40       0.2381      2.00000
     41       0.3283      2.00000
     42       0.3283      2.00000
     43       0.3283      2.00000
     44       0.4924      2.00000
     45       0.4924      2.00000
     46       0.4924      2.00000
     47       0.5075      2.00000
     48       0.7536      2.00000
     49       0.7781      2.00000
     50       0.7781      2.00000
     51       0.7781      2.00000
     52       0.8221      2.00000
     53       0.8221      2.00000
     54       1.1886      2.00000
     55       1.1886      2.00000
     56       1.1886      2.00000
     57       1.3891      2.00000
     58       1.3891      2.00000
     59       1.4447      2.00000
     60       1.4447      2.00000
     61       1.4447      2.00000
     62       1.4589      2.00000
     63       1.4606      2.00000
     64       1.4606      2.00000
     65       1.4606      2.00000
     66       2.9705      2.00000
     67       2.9705      2.00000
     68       2.9705      2.00000
     69       3.3842      2.00000
     70       3.3842      2.00000
     71       3.3842      2.00000
     72       3.4087      2.00000
     73       3.4087      2.00000
     74       3.4087      2.00000
     75       3.4298      2.00000
     76       3.4298      2.00000
     77       3.4298      2.00000
     78       3.6438      2.00000
     79       3.6438      2.00000
     80       3.6438      2.00000
     81       3.7078      2.00000
     82       3.7078      2.00000
     83       3.7078      2.00000
     84       3.7138      2.00000
     85       3.7138      2.00000
     86       3.7276      2.00000
     87       3.7398      2.00000
     88       3.7398      2.00000
     89       3.7398      2.00000
     90       4.5749      2.00000
     91       4.5749      2.00000
     92       4.5749      2.00000
     93       4.8056      2.00000
     94       4.8056      2.00000
     95       4.8059      2.00000
     96       4.8059      2.00000
     97       4.8059      2.00000
     98       4.8541      2.00000
     99       4.8541      2.00000
    100       4.8541      2.00000
    101       4.8571      2.00000
    102       4.8571      2.00000
    103       4.8576      2.00000
    104       4.8576      2.00000
    105       4.8576      2.00000
    106       5.7955      2.00000
    107       5.7955      2.00000
    108       5.7955      2.00000
    109       6.2687      2.00000
    110       6.4941      1.74112
    111       6.4941      1.74112
    112       6.4941      1.74112
    113       6.5471      0.71288
    114       6.5471      0.71288
    115       6.9001      0.00000
    116       7.2920      0.00000
    117       7.2920      0.00000
    118       7.2920      0.00000
    119       7.3569      0.00000
    120       7.3569      0.00000
    121       7.3915      0.00000
    122       7.3915      0.00000
    123       7.3915      0.00000
    124       7.4042      0.00000
    125       7.4042      0.00000
    126       7.4042      0.00000
    127       7.5085      0.00000
    128       7.5522      0.00000
[...]
   32        0.753   0.907   0.000   1.660
   33        0.751   0.940   0.000   1.692
   34        0.751   0.940   0.000   1.691
   35        0.751   0.940   0.000   1.691
   36        0.751   0.940   0.000   1.692
   37        0.752   0.940   0.000   1.692
   38        0.755   0.905   0.000   1.660
   39        0.752   0.940   0.000   1.692
   40        0.756   0.905   0.000   1.661
   41        0.756   0.905   0.000   1.661
   42        0.754   0.939   0.000   1.693
   43        0.752   0.940   0.000   1.692
   44        0.752   0.937   0.000   1.689
   45        0.752   0.937   0.000   1.689
   46        0.751   0.940   0.000   1.691
   47        0.751   0.940   0.000   1.691
   48        0.751   0.940   0.000   1.692
   49        0.751   0.940   0.000   1.692
   50        0.751   0.936   0.000   1.687
   51        0.751   0.936   0.000   1.687
   52        0.752   0.940   0.000   1.692
   53        0.752   0.937   0.000   1.689
   54        0.752   0.940   0.000   1.692
--------------------------------------------------
tot         40.875  51.128   0.000  92.003
 
    CHARGE:  cpu time    0.4575: real time    0.4602
    FORLOC:  cpu time    0.0342: real time    0.0347
    FORNL :  cpu time    2.4694: real time    2.4954
    STRESS:  cpu time    6.4017: real time    6.4692
    FORCOR:  cpu time    0.1091: real time    0.1100
    FORHAR:  cpu time    0.0466: real time    0.0470
    MIXING:  cpu time    0.0058: real time    0.0058
    OFIELD:  cpu time    0.0002: real time    0.0006

  FORCE on cell =-STRESS in cart. coord.  units (eV):
  Direction    XX          YY          ZZ          XY          YZ          ZX
  --------------------------------------------------------------------------------------
  Alpha Z    93.56316    93.56316    93.56316
  Ewald   -2076.61550 -2076.61550 -2076.61550    -0.00000    -0.00000    -0.00000
  Hartree   138.23620   138.23620   138.23620    -0.00000     0.00000     0.00000
  E(xc)    -688.57166  -688.57165  -688.57167    -0.00001    -0.00001    -0.00001
  Local    -804.43777  -804.43787  -804.43737     0.00014     0.00024     0.00035
  n-local  2101.86902  2117.28365  2128.65358    -0.67735    -0.97914     0.69238
  augment  -319.33668  -319.33659  -319.33703    -0.00012    -0.00021    -0.00030
  Kinetic  1523.76730  1551.05973  1579.15897    -2.21061    -1.34975     0.95442
  Fock        0.00000     0.00000     0.00000     0.00000     0.00000     0.00000
  -------------------------------------------------------------------------------------
  Total      10.10186    10.10186    10.10186    -0.00000     0.00000     0.00000
  in kB      14.97230    14.97230    14.97230    -0.00000     0.00000     0.00000
  external pressure =       14.97 kB  Pullay stress =        0.00 kB


 VOLUME and BASIS-vectors are now :
 -----------------------------------------------------------------------------
  energy-cutoff  :      550.00
  volume of cell :     1080.99
      direct lattice vectors                 reciprocal lattice vectors
     9.976465530  0.000000000  5.759915070     0.100235900 -0.035438742  0.000000000
     3.325488510  9.405901920  5.759915070     0.000000000  0.106316227  0.000000000
     0.000000000  0.000000000 11.519830140    -0.050117950 -0.035438742  0.086806836

  length of vectors
    11.519830124 11.519830136 11.519830140     0.106316227  0.106316227  0.106316227


 FORCES acting on ions
    electron-ion (+dipol)            ewald-force                    non-local-force                 convergence-correction
 -----------------------------------------------------------------------------------------------
   -.625E-06 -.342E-06 -.961E-06   0.149E-06 -.790E-07 0.129E-10   -.417E-17 0.000E+00 0.195E-17   0.813E-08 0.575E-08 0.141E-07
   -.408E+00 -.288E+00 -.281E+01   0.119E-06 -.632E-07 0.298E+01   0.222E+00 0.157E+00 -.233E+00   -.626E-04 -.443E-04 0.641E-03
   -.408E+00 -.288E+00 0.281E+01   0.119E-06 -.632E-07 -.298E+01   0.222E+00 0.157E+00 0.233E+00   -.626E-04 -.443E-04 -.641E-03
   -.102E+01 -.201E+01 -.176E+01   0.861E+00 0.244E+01 0.149E+01   0.436E-01 -.347E+00 0.755E-01   0.154E-03 0.568E-03 0.266E-03
   -.596E-01 0.211E-01 0.187E-05   -.715E-01 0.253E-01 0.239E-12   0.979E-01 -.346E-01 0.694E-17   -.179E-03 0.635E-04 -.236E-08
   -.102E+01 -.201E+01 0.176E+01   0.861E+00 0.244E+01 -.149E+01   0.436E-01 -.347E+00 -.755E-01   0.154E-03 0.568E-03 -.266E-03
   0.607E+00 0.258E+01 0.105E+01   -.861E+00 -.244E+01 -.149E+01   0.178E+00 0.336E-01 0.309E+00   -.216E-03 -.479E-03 -.375E-03
   0.607E+00 0.258E+01 -.105E+01   -.861E+00 -.244E+01 0.149E+01   0.178E+00 0.336E-01 -.309E+00   -.216E-03 -.479E-03 0.375E-03
   -.177E+00 0.626E-01 0.502E-06   0.715E-01 -.253E-01 -.503E-11   0.652E-01 -.230E-01 0.173E-17   -.400E-04 0.142E-04 -.719E-08
   -.223E+01 -.288E+00 -.176E+01   0.258E+01 -.630E-07 0.149E+01   -.313E+00 0.157E+00 0.755E-01   0.586E-03 -.443E-04 0.266E-03
   0.102E-05 -.633E-01 0.187E-05   0.115E-06 -.758E-01 0.232E-12   -.217E-17 0.104E+00 -.208E-16   -.136E-08 -.190E-03 -.236E-08
   -.223E+01 -.288E+00 0.176E+01   0.258E+01 -.630E-07 -.149E+01   -.313E+00 0.157E+00 -.755E-01   0.586E-03 -.443E-04 -.266E-03
   0.298E-01 0.211E-01 -.516E-01   0.357E-01 0.253E-01 -.619E-01   -.490E-01 -.346E-01 0.848E-01   0.897E-04 0.635E-04 -.155E-03
   0.298E-01 0.211E-01 0.516E-01   0.357E-01 0.253E-01 0.619E-01   -.490E-01 -.346E-01 -.848E-01   0.898E-04 0.635E-04 0.155E-03
   -.843E+00 -.596E+00 0.282E-06   0.868E+00 0.614E+00 0.362E-12   -.227E-01 -.160E-01 -.520E-17   0.168E-03 0.119E-03 -.668E-08
   -.121E+01 0.258E+01 -.174E-05   0.172E+01 -.244E+01 0.479E-11   -.356E+00 0.336E-01 -.347E-17   0.433E-03 -.479E-03 0.994E-08
   -.422E+00 0.596E+00 -.730E+00   0.434E+00 -.614E+00 0.752E+00   -.113E-01 0.160E-01 -.197E-01   0.842E-04 -.119E-03 0.146E-03
   -.422E+00 0.596E+00 0.730E+00   0.434E+00 -.614E+00 -.752E+00   -.113E-01 0.160E-01 0.197E-01   0.842E-04 -.119E-03 -.146E-03
   0.264E+01 -.288E+00 0.105E+01   -.258E+01 -.634E-07 -.149E+01   0.910E-01 0.157E+00 0.309E+00   -.524E-03 -.443E-04 -.375E-03
   0.264E+01 -.288E+00 -.105E+01   -.258E+01 -.634E-07 0.149E+01   0.910E-01 0.157E+00 -.309E+00   -.524E-03 -.443E-04 0.375E-03
   0.217E-06 -.188E+00 0.502E-06   0.124E-06 0.758E-01 -.504E-11   -.156E-16 0.691E-01 0.173E-16   -.415E-08 -.425E-04 -.719E-08
   0.203E+01 -.201E+01 -.174E-05   -.172E+01 0.244E+01 0.479E-11   -.872E-01 -.347E+00 0.347E-17   -.307E-03 0.568E-03 0.994E-08
   0.422E+00 -.596E+00 -.730E+00   -.434E+00 0.614E+00 0.752E+00   0.113E-01 -.160E-01 -.197E-01   -.842E-04 0.119E-03 0.146E-03
   0.422E+00 -.596E+00 0.730E+00   -.434E+00 0.614E+00 -.752E+00   0.113E-01 -.160E-01 0.197E-01   -.842E-04 0.119E-03 -.146E-03
   0.886E-01 0.626E-01 -.153E+00   -.357E-01 -.253E-01 0.619E-01   -.326E-01 -.230E-01 0.564E-01   0.200E-04 0.142E-04 -.347E-04
   0.843E+00 0.596E+00 0.134E-05   -.868E+00 -.614E+00 -.107E-10   0.227E-01 0.160E-01 -.347E-17   -.168E-03 -.119E-03 -.200E-08
   0.886E-01 0.626E-01 0.153E+00   -.357E-01 -.253E-01 -.619E-01   -.326E-01 -.230E-01 -.564E-01   0.200E-04 0.142E-04 0.347E-04
   0.640E-06 0.371E-06 0.992E-06   -.116E-06 0.615E-07 0.105E-10   -.607E-17 0.104E-16 0.173E-16   -.165E-08 -.117E-08 -.287E-08
   0.130E+01 0.919E+00 0.784E+00   -.142E+01 -.101E+01 -.718E+00   0.999E-01 0.706E-01 -.366E-01   -.333E-03 -.236E-03 -.240E-03
   0.130E+01 0.919E+00 -.784E+00   -.142E+01 -.101E+01 0.718E+00   0.999E-01 0.706E-01 0.366E-01   -.333E-03 -.236E-03 0.240E-03
   0.876E+00 -.278E+00 0.152E+01   -.919E+00 0.420E+00 -.159E+01   0.394E-01 -.100E+00 0.682E-01   -.236E-03 0.392E-04 -.409E-03
   0.595E+01 -.210E+01 -.163E-05   -.932E+01 0.329E+01 0.597E-11   0.336E+01 -.119E+01 -.125E-15   -.995E-03 0.352E-03 0.108E-07
   0.876E+00 -.278E+00 -.152E+01   -.919E+00 0.420E+00 0.159E+01   0.394E-01 -.100E+00 -.682E-01   -.236E-03 0.392E-04 0.409E-03
   0.423E+00 -.156E+01 0.733E+00   -.504E+00 0.159E+01 -.873E+00   0.605E-01 -.407E-01 0.105E+00   -.972E-04 0.432E-03 -.168E-03
   0.423E+00 -.156E+01 -.733E+00   -.504E+00 0.159E+01 0.873E+00   0.605E-01 -.407E-01 -.105E+00   -.972E-04 0.432E-03 0.168E-03
   0.307E+00 -.108E+00 -.395E-07   -.334E+00 0.118E+00 -.490E-11   0.197E-01 -.697E-02 0.520E-17   -.361E-04 0.128E-04 -.678E-08
   0.298E-01 0.919E+00 0.152E+01   0.899E-01 -.101E+01 -.159E+01   -.816E-01 0.706E-01 0.682E-01   -.417E-04 -.236E-03 -.409E-03
   -.861E-06 0.631E+01 -.163E-05   -.120E-06 -.988E+01 0.595E-11   -.278E-16 0.356E+01 -.125E-15   0.624E-08 -.106E-02 0.108E-07
   0.298E-01 0.919E+00 -.152E+01   0.899E-01 -.101E+01 0.159E+01   -.816E-01 0.706E-01 -.682E-01   -.417E-04 -.236E-03 0.409E-03
   -.297E+01 -.210E+01 0.515E+01   0.466E+01 0.329E+01 -.807E+01   -.168E+01 -.119E+01 0.291E+01   0.498E-03 0.352E-03 -.862E-03
   -.297E+01 -.210E+01 -.515E+01   0.466E+01 0.329E+01 0.807E+01   -.168E+01 -.119E+01 -.291E+01   0.498E-03 0.352E-03 0.862E-03
   0.162E+00 0.114E+00 -.249E-06   0.215E+00 0.152E+00 -.104E-10   -.202E+00 -.143E+00 0.312E-16   -.136E-03 -.961E-04 -.730E-08
   -.846E+00 -.156E+01 0.139E-05   0.101E+01 0.159E+01 -.457E-12   -.121E+00 -.407E-01 -.243E-16   0.194E-03 0.432E-03 -.242E-08
   0.808E-01 -.114E+00 0.140E+00   0.108E+00 -.152E+00 0.186E+00   -.101E+00 0.143E+00 -.175E+00   -.680E-04 0.961E-04 -.118E-03
   0.808E-01 -.114E+00 -.140E+00   0.108E+00 -.152E+00 -.186E+00   -.101E+00 0.143E+00 0.175E+00   -.679E-04 0.961E-04 0.118E-03
   -.133E+01 0.919E+00 0.733E+00   0.133E+01 -.101E+01 -.873E+00   -.182E-01 0.706E-01 0.105E+00   0.375E-03 -.236E-03 -.168E-03
   -.133E+01 0.919E+00 -.733E+00   0.133E+01 -.101E+01 0.873E+00   -.182E-01 0.706E-01 -.105E+00   0.375E-03 -.236E-03 0.168E-03
   0.502E-07 0.325E+00 -.395E-07   -.122E-06 -.354E+00 -.492E-11   0.208E-16 0.209E-01 0.156E-16   -.392E-08 -.383E-04 -.678E-08
   -.175E+01 -.278E+00 0.139E-05   0.184E+01 0.420E+00 -.453E-12   -.787E-01 -.100E+00 0.104E-16   0.472E-03 0.392E-04 -.242E-08
   -.808E-01 0.114E+00 0.140E+00   -.108E+00 0.152E+00 0.186E+00   0.101E+00 -.143E+00 -.175E+00   0.679E-04 -.961E-04 -.118E-03
   -.808E-01 0.114E+00 -.140E+00   -.108E+00 0.152E+00 -.186E+00   0.101E+00 -.143E+00 0.175E+00   0.680E-04 -.961E-04 0.118E-03
   -.153E+00 -.108E+00 0.266E+00   0.167E+00 0.118E+00 -.289E+00   -.986E-02 -.697E-02 0.171E-01   0.181E-04 0.128E-04 -.313E-04
   -.162E+00 -.114E+00 -.173E-05   -.215E+00 -.152E+00 -.393E-12   0.202E+00 0.143E+00 0.278E-16   0.136E-03 0.961E-04 0.921E-08
   -.153E+00 -.108E+00 -.266E+00   0.167E+00 0.118E+00 0.289E+00   -.986E-02 -.697E-02 -.171E-01   0.181E-04 0.128E-04 0.313E-04
 -----------------------------------------------------------------------------------------------
   0.272E-06 0.175E-06 0.432E-06   0.167E-13 -.902E-15 -.152E-13   -.833E-15 0.158E-15 0.527E-15   0.188E-08 0.133E-08 0.326E-08
 
 
 POSITION                                       TOTAL-FORCE (eV/Angst)
 -----------------------------------------------------------------------------------
      3.87974      2.74339      6.71990         0.000000      0.000000      0.000000
      3.87974      2.74339     10.55984        -0.186005     -0.131525     -0.059040
      3.87974      2.74339     14.39979        -0.186005     -0.131525      0.059040
      4.98823      5.87869      8.63987        -0.110046      0.083319     -0.190605
      4.98823      5.87869     12.47982        -0.033360      0.011795      0.000000
      4.98823      5.87869     16.31976        -0.110046      0.083319      0.190605
      6.09673      9.01399     10.55984        -0.075959      0.179731     -0.131565
      6.09673      9.01399     14.39979        -0.075959      0.179731      0.131565
      6.09673      9.01399     18.23973        -0.040566      0.014342      0.000000
      7.20523      2.74339      8.63987         0.041872     -0.131525     -0.190605
      7.20523      2.74339     12.47982         0.000000     -0.035384      0.000000
      7.20523      2.74339     16.31976         0.041872     -0.131525      0.190605
      8.31372      5.87869     10.55984         0.016680      0.011795     -0.028891
      8.31372      5.87869     14.39979         0.016680      0.011795      0.028891
      8.31372      5.87869     18.23973         0.002199      0.001555      0.000000
      9.42222      9.01399     12.47982         0.151918      0.179731     -0.000000
      9.42222      9.01399     16.31976         0.001099     -0.001555      0.001904
      9.42222      9.01399     20.15970         0.001099     -0.001555     -0.001904
     10.53071      2.74339     10.55984         0.144133     -0.131525     -0.131565
     10.53071      2.74339     14.39979         0.144133     -0.131525      0.131565
     10.53071      2.74339     18.23973         0.000000     -0.043027      0.000000
     11.63921      5.87869     12.47982         0.220092      0.083319     -0.000000
     11.63921      5.87869     16.31976        -0.001099      0.001555      0.001904
     11.63921      5.87869     20.15970        -0.001099      0.001555     -0.001904
     12.74771      9.01399     14.39979         0.020283      0.014342     -0.035132
     12.74771      9.01399     18.23973        -0.002199     -0.001555      0.000000
     12.74771      9.01399     22.07967         0.020283      0.014342      0.035132
      0.55425      0.39191      0.95999         0.000000      0.000000      0.000000
      0.55425      0.39191      4.79993        -0.024533     -0.017348      0.029662
      0.55425      0.39191      8.63987        -0.024533     -0.017348     -0.029662
      1.66274      3.52721      2.87996        -0.003704      0.041567     -0.006415
      1.66274      3.52721      6.71990        -0.008671      0.003065      0.000000
      1.66274      3.52721     10.55984        -0.003704      0.041567      0.006415
      2.77124      6.66251      4.79993        -0.020829     -0.006872     -0.036077
      2.77124      6.66251      8.63987        -0.020829     -0.006872      0.036077
      2.77124      6.66251     12.47982        -0.007381      0.002610      0.000000
      3.87974      0.39191      2.87996         0.037955     -0.017348     -0.006415
      3.87974      0.39191      6.71990         0.000000     -0.009196      0.000000
      3.87974      0.39191     10.55984         0.037955     -0.017348      0.006415
      4.98823      3.52721      4.79993         0.004335      0.003065     -0.007509
      4.98823      3.52721      8.63987         0.004335      0.003065      0.007509
      4.98823      3.52721     12.47982         0.174541      0.123419      0.000000
      6.09673      6.66251      6.71990         0.041659     -0.006872      0.000000
      6.09673      6.66251     10.55984         0.087270     -0.123419      0.151157
      6.09673      6.66251     14.39979         0.087270     -0.123419     -0.151157
      7.20523      0.39191      4.79993        -0.013422     -0.017348     -0.036077
      7.20523      0.39191      8.63987        -0.013422     -0.017348      0.036077
      7.20523      0.39191     12.47982         0.000000     -0.007829      0.000000
      8.31372      3.52721      6.71990         0.007408      0.041567      0.000000
      8.31372      3.52721     10.55984        -0.087270      0.123419      0.151157
      8.31372      3.52721     14.39979        -0.087270      0.123419     -0.151157
      9.42222      6.66251      8.63987         0.003691      0.002610     -0.006393
      9.42222      6.66251     12.47982        -0.174541     -0.123419      0.000000
      9.42222      6.66251     16.31976         0.003691      0.002610      0.006393
 -----------------------------------------------------------------------------------
    total drift:                                0.000000      0.000000      0.000000


--------------------------------------------------------------------------------------------------------



  FREE ENERGIE OF THE ION-ELECTRON SYSTEM (eV)
  ---------------------------------------------------
  free  energy   TOTEN  =      -292.51984020 eV

  energy  without entropy=     -292.50351355  energy(sigma->0) =     -292.51167688
 


--------------------------------------------------------------------------------------------------------


    POTLOK:  cpu time    0.0910: real time    0.0919


--------------------------------------------------------------------------------------------------------


 writing wavefunctions
     LOOP+:  cpu time  101.9939: real time  104.0251
    4ORBIT:  cpu time    0.0000: real time    0.0000
 


 total charge     
 
# of ion       s       p       d       tot
------------------------------------------
    1        1.029   1.463   0.000   2.491
    2        0.753   0.940   0.000   1.694
    3        0.753   0.940   0.000   1.694
    4        0.751   0.940   0.000   1.691
    5        0.752   0.940   0.000   1.692
    6        0.751   0.940   0.000   1.691
    7        0.752   0.939   0.000   1.691
    8        0.752   0.939   0.000   1.691
    9        0.751   0.940   0.000   1.691
   10        0.751   0.940   0.000   1.690
   11        0.752   0.941   0.000   1.693
   12        0.751   0.939   0.000   1.690
   13        0.752   0.941   0.000   1.692
   14        0.752   0.941   0.000   1.692
   15        0.751   0.941   0.000   1.692
   16        0.751   0.939   0.000   1.691
   17        0.751   0.941   0.000   1.692
   18        0.751   0.941   0.000   1.692
   19        0.751   0.939   0.000   1.690
   20        0.751   0.939   0.000   1.690
   21        0.751   0.940   0.000   1.691
   22        0.752   0.939   0.000   1.691
   23        0.751   0.940   0.000   1.692
   24        0.751   0.940   0.000   1.692
   25        0.751   0.940   0.000   1.691
   26        0.751   0.940   0.000   1.692
   27        0.751   0.940   0.000   1.691
   28        0.752   0.940   0.000   1.692
   29        0.751   0.940   0.000   1.691
   30        0.751   0.940   0.000   1.691
   31        0.751   0.940   0.000   1.692
   32        0.753   0.907   0.000   1.660
   33        0.751   0.940   0.000   1.692
   34        0.751   0.940   0.000   1.691
   35        0.751   0.940   0.000   1.691
   36        0.751   0.940   0.000   1.692
   37        0.752   0.940   0.000   1.692
   38        0.755   0.905   0.000   1.660
   39        0.752   0.940   0.000   1.692
   40        0.756   0.905   0.000   1.661
   41        0.756   0.905   0.000   1.661
   42        0.754   0.939   0.000   1.693
   43        0.752   0.940   0.000   1.692
   44        0.752   0.937   0.000   1.689
   45        0.752   0.937   0.000   1.689
   46        0.751   0.940   0.000   1.691
   47        0.751   0.940   0.000   1.691
   48        0.751   0.940   0.000   1.692
   49        0.751   0.940   0.000   1.692
   50        0.751   0.936   0.000   1.687
   51        0.751   0.936   0.000   1.687
   52        0.752   0.940   0.000   1.692
   53        0.752   0.937   0.000   1.689
   54        0.752   0.940   0.000   1.692
--------------------------------------------------
tot         40.875  51.128   0.000  92.003
 

 total amount of memory used by VASP MPI-rank0   140598. kBytes
=======================================================================

   base      :      30000. kBytes
   nonl-proj :      59902. kBytes
   fftplans  :       5382. kBytes
   grid      :      20451. kBytes
   one-center:        165. kBytes
   wavefun   :      24698. kBytes
 
  
  
 General timing and accounting informations for this job:
 ========================================================
  
                  Total CPU time used (sec):      114.760
                            User time (sec):      108.480
                          System time (sec):        6.280
                         Elapsed time (sec):      119.271
  
                   Maximum memory used (kb):      381196.
                   Average memory used (kb):           0.
  
                          Minor page faults:        47204
                          Major page faults:            0
                 Voluntary context switches:         6782
