 vasp.6.3.0 20Jan22 (build Mar 07 2022 09:35:52) complex                        
  
 executed on             LinuxIFC date 2025.04.21  20:45:13
 running on   64 total cores
 distrk:  each k-point on   64 cores,    1 groups
 distr:  one band on NCORE=   1 cores,   64 groups


--------------------------------------------------------------------------------------------------------


 INCAR:
   ALGO = Normal
   AMIX = 0.2
   EDIFF = 1e-06
   EDIFFG = -0.05
   ENCUT = 800
   IBRION = 2
   ISIF = 2
   ISMEAR = 0
   ISPIN = 1
   ISYM = 0
   LCHARG = True
   LORBIT = 11
   LREAL = False
   LWAVE = False
   NELM = 200
   NSW = 0
   SIGMA = 0.05
   SYSTEM = Bi2o3

 POTCAR:  PAW_PBE Bi 08Apr2002                    
 POTCAR:  PAW_PBE O 08Apr2002                     
 -----------------------------------------------------------------------------
|                                                                             |
|           W    W    AA    RRRRR   N    N  II  N    N   GGGG   !!!           |
|           W    W   A  A   R    R  NN   N  II  NN   N  G    G  !!!           |
|           W    W  A    A  R    R  N N  N  II  N N  N  G       !!!           |
|           W WW W  AAAAAA  RRRRR   N  N N  II  N  N N  G  GGG   !            |
|           WW  WW  A    A  R   R   N   NN  II  N   NN  G    G                |
|           W    W  A    A  R    R  N    N  II  N    N   GGGG   !!!           |
|                                                                             |
|     For optimal performance we recommend to set                             |
|       NCORE = 2 up to number-of-cores-per-socket                            |
|     NCORE specifies how many cores store one orbital (NPAR=cpu/NCORE).      |
|     This setting can greatly improve the performance of VASP for DFT.       |
|     The default, NCORE=1 might be grossly inefficient on modern             |
|     multi-core architectures or massively parallel machines. Do your        |
|     own testing! More info at https://www.vasp.at/wiki/index.php/NCORE      |
|     Unfortunately you need to use the default for GW and RPA                |
|     calculations (for HF NCORE is supported but not extensively tested      |
|     yet).                                                                   |
|                                                                             |
 -----------------------------------------------------------------------------

 POTCAR:  PAW_PBE Bi 08Apr2002                    
   VRHFIN =Bi:                                                                                      
   LEXCH  = PE                                                                                      
   EATOM  =   150.8133 eV,   11.0845 Ry                                                             
                                                                                                    
   TITEL  = PAW_PBE Bi 08Apr2002                                                                    
   LULTRA =        F    use ultrasoft PP ?                                                          
   IUNSCR =        1    unscreen: 0-lin 1-nonlin 2-no                                               
   RPACOR =    2.200    partial core radius                                                         
   POMASS =  208.980; ZVAL   =    5.000    mass and valenz                                          
   RCORE  =    3.000    outmost cutoff radius                                                       
   RWIGS  =    3.090; RWIGS  =    1.635    wigner-seitz radius (au A)                               
   ENMAX  =  105.037; ENMIN  =   78.777 eV                                                          
   ICORE  =        3    local potential                                                             
   LCOR   =        T    correct aug charges                                                         
   LPAW   =        T    paw PP                                                                      
   EAUG   =  265.427                                                                                
   DEXC   =    0.000                                                                                
   RMAX   =    3.067    core radius for proj-oper                                                   
   RAUG   =    1.300    factor for augmentation sphere                                              
   RDEP   =    3.012    radius for radial grids                                                     
   RDEPT  =    2.604    core radius for aug-charge                                                  
                                                                                                    
   Atomic configuration                                                                             
   17 entries                                                                                       
     n  l   j            E        occ.                                                              
     1  0  0.50    -90639.6582   2.0000                                                             
     2  0  0.50    -16282.4667   2.0000                                                             
     2  1  1.50    -13922.8287   6.0000                                                             
     3  0  0.50     -3930.4763   2.0000                                                             
     3  1  1.50     -3256.7013   6.0000                                                             
     3  2  2.50     -2581.6169  10.0000                                                             
     4  0  0.50      -902.2614   2.0000                                                             
     4  1  1.50      -681.5915   6.0000                                                             
     4  2  2.50      -429.8249  10.0000                                                             
     4  3  3.50      -152.6004  14.0000                                                             
     5  0  0.50      -157.7156   2.0000                                                             
     5  1  1.50       -95.8054   6.0000                                                             
     5  2  2.50       -27.0806  10.0000                                                             
     6  0  0.50       -14.4732   2.0000                                                             
     6  1  1.50        -4.5702   3.0000                                                             
     6  2  2.50        -2.7212   0.0000                                                             
     5  3  2.50        -2.7212   0.0000                                                             
   Description                                                                                      
     l       E           TYP  RCUT    TYP  RCUT                                                     
     0    -14.4732299     23  3.000                                                                 
     0    -12.2452434     23  3.000                                                                 
     1     -4.5701666     23  3.000                                                                 
     1    -13.6058260     23  3.000                                                                 
     2     -2.7211652     23  3.000                                                                 
     3     -1.3605826      7  3.000                                                                 
  local pseudopotential read in
  partial core-charges read in
  partial kinetic energy density read in
  kinetic energy density of atom read in
  atomic valenz-charges read in
  non local Contribution for L=           0  read in
    real space projection operators read in
  non local Contribution for L=           0  read in
    real space projection operators read in
  non local Contribution for L=           1  read in
    real space projection operators read in
  non local Contribution for L=           1  read in
    real space projection operators read in
  non local Contribution for L=           2  read in
    real space projection operators read in
    PAW grid and wavefunctions read in
 
   number of l-projection  operators is LMAX  =           5
   number of lm-projection operators is LMMAX =          13
 
 POTCAR:  PAW_PBE O 08Apr2002                     
   VRHFIN =O: s2p4                                                                                  
   LEXCH  = PE                                                                                      
   EATOM  =   432.3788 eV,   31.7789 Ry                                                             
                                                                                                    
   TITEL  = PAW_PBE O 08Apr2002                                                                     
   LULTRA =        F    use ultrasoft PP ?                                                          
   IUNSCR =        1    unscreen: 0-lin 1-nonlin 2-no                                               
   RPACOR =    1.200    partial core radius                                                         
   POMASS =   16.000; ZVAL   =    6.000    mass and valenz                                          
   RCORE  =    1.520    outmost cutoff radius                                                       
   RWIGS  =    1.550; RWIGS  =    0.820    wigner-seitz radius (au A)                               
   ENMAX  =  400.000; ENMIN  =  300.000 eV                                                          
   ICORE  =        2    local potential                                                             
   LCOR   =        T    correct aug charges                                                         
   LPAW   =        T    paw PP                                                                      
   EAUG   =  605.392                                                                                
   DEXC   =    0.000                                                                                
   RMAX   =    1.553    core radius for proj-oper                                                   
   RAUG   =    1.300    factor for augmentation sphere                                              
   RDEP   =    1.550    radius for radial grids                                                     
   RDEPT  =    1.329    core radius for aug-charge                                                  
                                                                                                    
   Atomic configuration                                                                             
    4 entries                                                                                       
     n  l   j            E        occ.                                                              
     1  0  0.50      -514.6923   2.0000                                                             
     2  0  0.50       -23.9615   2.0000                                                             
     2  1  0.50        -9.0305   4.0000                                                             
     3  2  1.50        -9.5241   0.0000                                                             
   Description                                                                                      
     l       E           TYP  RCUT    TYP  RCUT                                                     
     0    -23.9615318     23  1.200                                                                 
     0     -9.5240782     23  1.200                                                                 
     1     -9.0304911     23  1.520                                                                 
     1      8.1634956     23  1.520                                                                 
     2     -9.5240782      7  1.500                                                                 
  local pseudopotential read in
  partial core-charges read in
  partial kinetic energy density read in
  kinetic energy density of atom read in
  atomic valenz-charges read in
  non local Contribution for L=           0  read in
    real space projection operators read in
  non local Contribution for L=           0  read in
    real space projection operators read in
  non local Contribution for L=           1  read in
    real space projection operators read in
  non local Contribution for L=           1  read in
    real space projection operators read in
    PAW grid and wavefunctions read in
 
   number of l-projection  operators is LMAX  =           4
   number of lm-projection operators is LMMAX =           8
 
 -----------------------------------------------------------------------------
|                                                                             |
|               ----> ADVICE to this user running VASP <----                  |
|                                                                             |
|     You have a (more or less) 'large supercell' and for larger cells it     |
|     might be more efficient to use real-space projection operators.         |
|     Therefore, try LREAL= Auto in the INCAR file.                           |
|     Mind: For very accurate calculation, you might also keep the            |
|     reciprocal projection scheme (i.e. LREAL=.FALSE.).                      |
|                                                                             |
 -----------------------------------------------------------------------------

 WARNING: PSMAXN for non-local potential too small
          PSMAXN should be >   14.4904333269122       NTYP=           1
PAW_PBE Bi 08Apr2002                    :
 energy of atom  1       EATOM= -150.8133
 kinetic energy error for atom=    0.0000 (will be added to EATOM!!)
PAW_PBE O 08Apr2002                     :
 energy of atom  2       EATOM= -432.3788
 kinetic energy error for atom=    0.0041 (will be added to EATOM!!)
 
 
 POSCAR: Bi32 O48
  positions in direct lattice
  No initial velocities read in
 exchange correlation table for  LEXCH =        8
   RHO(1)=    0.500       N(1)  =     2000
   RHO(2)=  100.500       N(2)  =     4000

 VTST: version 4.2, (08/11/21)

 CHAIN: initializing optimizer
 
 OPT: Using VASP Conjugate-Gradient optimizer
 CHAIN: Read ICHAIN            0
 
 POSCAR: Bi32 O48
  positions in direct lattice
  No initial velocities read in
 


--------------------------------------------------------------------------------------------------------


 ion  position               nearest neighbor table
   1  0.263  0.192  0.680-  57 2.18  59 2.37  45 2.54  37 2.79  49 2.87  23 3.11  12 3.46  27 3.50
                            25 3.55  17 3.87
   2  0.023  0.553  0.673-   6 0.19  46 1.96  38 1.99  36 2.06  58 2.55  26 3.74  28 3.76  22 3.90

   3  0.551  0.215  0.187-  29 1.31  75 2.38  79 2.50  47 2.52  65 2.59  69 2.65  37 2.69  71 2.90
                            23 3.55  15 3.65   7 3.66
   4  0.407  0.645  0.602-  26 1.47  35 2.07  60 2.15  58 2.15  66 2.18  41 2.80  30 3.61   8 3.70
                            14 3.71  20 3.74
   5  0.227  0.232  0.149-  65 2.13  54 2.20  59 2.37  67 2.56  37 2.58  53 2.83  21 3.57  31 3.58
                            12 3.75  25 3.84  17 3.90
   6  0.026  0.555  0.695-   2 0.19  46 1.93  38 2.02  36 2.04  58 2.51  26 3.68  28 3.85  19 3.86
                            22 3.89
   7  0.655  0.032  0.063-  44 2.17  73 2.20  70 2.53  75 2.58  20 3.38   3 3.66  29 3.74  31 3.84
                            10 3.91
   8  0.658  0.690  0.892-  52 2.15  60 2.27  43 2.34  66 2.42  55 2.49  48 2.93  16 3.15  13 3.46
                            22 3.68   4 3.70  26 3.73  24 3.86
   9  0.528  0.497  0.288-  53 2.28  69 2.29  43 2.37  80 2.56  35 2.95  13 3.43  28 3.45  19 3.65
                            30 3.70
  10  0.522  0.979  0.628-  70 2.21  77 2.29  41 2.60  61 2.72  63 2.94  23 3.33  14 3.54  29 3.80
                            11 3.81   7 3.91
  11  0.791  0.230  0.663-  39 2.00  70 2.43  56 2.47  47 2.71  71 2.81  79 2.89  23 3.25  27 3.55
                            28 3.73  21 3.75  10 3.81  15 3.83
  12  0.156  0.008  0.401-  68 2.02  54 2.23  72 2.30  42 2.33  57 2.74  18 3.32   1 3.46  31 3.64
                             5 3.75  25 3.75  29 3.90
  13  0.481  0.441  0.888-  33 2.14  43 2.15  69 2.34  55 2.46  60 2.64  49 2.81  26 3.37   9 3.43
                             8 3.46  19 3.59  28 3.76
  14  0.319  0.791  0.888-  61 2.23  44 2.35  58 2.40  34 2.48  66 2.64  10 3.54   4 3.71  26 3.73
                            20 3.74  25 3.89
  15  0.885  0.337  0.237-  64 2.11  51 2.19  78 2.27  67 2.49  79 2.68  17 3.60  19 3.62   3 3.65
                            21 3.78  11 3.83  31 3.87
  16  0.875  0.883  0.009-  52 1.95  48 2.07  73 2.42  40 2.53   8 3.15  22 3.29  27 3.39  32 3.46
                            25 3.79
  17  0.139  0.366  0.491-  49 2.32  36 2.32  45 2.39  53 2.62  67 2.68  21 3.28  30 3.52  15 3.60
                            26 3.62  31 3.86   1 3.87   5 3.90
  18  0.236  0.825  0.356-  50 2.05  68 2.24  42 2.40  41 2.54  34 2.71  12 3.32  32 3.52  20 3.66

  19  0.786  0.504  0.038-  80 2.30  76 2.32  51 2.40  55 2.43  64 2.63  69 2.81  32 3.47  13 3.59
                            15 3.62   9 3.65   6 3.86
  20  0.521  0.808  0.238-  41 2.19  35 2.33  34 2.43  63 2.53  44 2.55  52 2.88   7 3.38  30 3.66
                            18 3.66  24 3.73   4 3.74  14 3.74
  21  0.090  0.342  0.883-  39 2.19  49 2.34  36 2.41  59 2.74  64 2.81  67 2.82  17 3.28  27 3.56
                             5 3.57  26 3.70  11 3.75  15 3.78
  22  0.971  0.788  0.713-  46 2.00  40 2.16  42 2.21  16 3.29  24 3.31   8 3.68   6 3.89   2 3.90

  23  0.507  0.179  0.767-  70 2.17  47 2.30  71 2.36  37 2.37  33 2.56  77 2.77   1 3.11  11 3.25
                            10 3.33   3 3.55  25 3.64  29 3.77  28 3.80
  24  0.782  0.858  0.516-  63 2.02  72 2.09  48 2.37  22 3.31  31 3.69  20 3.73   8 3.86  32 3.89

  25  0.224  0.002  0.960-  61 2.22  57 2.25  68 2.34  40 2.37  37 2.63  75 2.82   1 3.55  23 3.64
                            12 3.75  16 3.79   5 3.84  14 3.89
  26  0.341  0.571  0.726-   4 1.47  62 2.16  58 2.20  60 2.21  66 2.35  36 2.50  49 2.65  13 3.37
                            17 3.62   6 3.68  21 3.70   8 3.73  14 3.73   2 3.74
  27  0.949  0.090  0.788-  39 2.20  59 2.21  56 2.24  73 2.36  48 2.74  16 3.39   1 3.50  11 3.55
                            21 3.56  31 3.69
  28  0.689  0.424  0.559-  38 2.16  71 2.22  33 2.25  74 2.25  51 2.52  55 2.79   9 3.45  11 3.73
                             2 3.76  13 3.76  23 3.80   6 3.85
  29  0.509  0.158  0.314-   3 1.31  79 2.21  77 2.24  75 2.27  71 2.33  65 2.34   7 3.74  23 3.77
                            10 3.80  12 3.90
  30  0.270  0.563  0.215-  34 2.22  62 2.23  78 2.46  53 2.49  17 3.52   4 3.61  20 3.66   9 3.70

  31  0.932  0.107  0.345-  56 2.15  45 2.27  72 2.32  54 2.56  67 2.64   5 3.58  12 3.64  27 3.69
                            24 3.69   7 3.84  17 3.86  15 3.87
  32  0.922  0.717  0.255-  50 2.14  76 2.14  80 2.15  74 2.65  42 2.71  16 3.46  19 3.47  18 3.52
                            24 3.89
  33  0.523  0.351  0.724-  13 2.14  28 2.25  23 2.56
  34  0.307  0.716  0.159-  30 2.22  20 2.43  14 2.48  18 2.71
  35  0.512  0.675  0.391-   4 2.07  20 2.33   9 2.95
  36  0.116  0.467  0.685-   6 2.04   2 2.06  17 2.32  21 2.41  26 2.50
  37  0.374  0.189  0.973-  23 2.37   5 2.58  25 2.63   3 2.69   1 2.79
  38  0.850  0.451  0.702-   2 1.99   6 2.02  28 2.16
  39  0.916  0.221  0.812-  11 2.00  21 2.19  27 2.20
  40  0.056  0.846  0.940-  22 2.16  25 2.37  16 2.53
  41  0.431  0.821  0.462-  20 2.19  18 2.54  10 2.60   4 2.80
  42  0.064  0.843  0.477-  22 2.21  12 2.33  18 2.40  32 2.71
  43  0.503  0.562  0.037-  13 2.15   8 2.34   9 2.37
  44  0.517  0.895  0.974-   7 2.17  14 2.35  20 2.55
  45  0.098  0.198  0.496-  31 2.27  17 2.39   1 2.54
  46  0.027  0.681  0.706-   6 1.93   2 1.96  22 2.00
  47  0.675  0.257  0.927-  23 2.30   3 2.52  11 2.71
  48  0.795  0.895  0.794-  16 2.07  24 2.37  27 2.74   8 2.93
  49  0.262  0.380  0.713-  17 2.32  21 2.34  26 2.65  13 2.81   1 2.87
  50  0.084  0.698  0.310-  18 2.05  32 2.14
  51  0.763  0.408  0.279-  15 2.19  19 2.40  28 2.52
  52  0.725  0.780  0.099-  16 1.95   8 2.15  20 2.88
  53  0.318  0.422  0.274-   9 2.28  30 2.49  17 2.62   5 2.83
  54  0.102  0.079  0.199-   5 2.20  12 2.23  31 2.56
  55  0.696  0.548  0.808-  19 2.43  13 2.46   8 2.49  28 2.79
  56  0.839  0.095  0.574-  31 2.15  27 2.24  11 2.47
  57  0.156  0.036  0.726-   1 2.18  25 2.25  12 2.74
  58  0.252  0.669  0.686-   4 2.15  26 2.20  14 2.40   6 2.51   2 2.55
  59  0.128  0.177  0.901-  27 2.21   1 2.37   5 2.37  21 2.74
  60  0.536  0.594  0.697-   4 2.15  26 2.21   8 2.27  13 2.64
  61  0.313  0.929  0.810-  25 2.22  14 2.23  10 2.72
  62  0.242  0.563  0.950-  26 2.16  30 2.23
  63  0.682  0.924  0.422-  24 2.02  20 2.53  10 2.94
  64  0.915  0.403  0.005-  15 2.11  19 2.63  21 2.81
  65  0.346  0.205  0.310-   5 2.13  29 2.34   3 2.59
  66  0.482  0.722  0.825-   4 2.18  26 2.35   8 2.42  14 2.64
  67  0.052  0.282  0.209-  15 2.49   5 2.56  31 2.64  17 2.68  21 2.82
  68  0.192  0.935  0.221-  12 2.02  18 2.24  25 2.34
  69  0.538  0.381  0.119-   9 2.29  13 2.34   3 2.65  19 2.81
  70  0.617  0.098  0.799-  23 2.17  10 2.21  11 2.43   7 2.53
  71  0.599  0.264  0.525-  28 2.22  29 2.33  23 2.36  11 2.81   3 2.90
  72  0.949  0.969  0.435-  24 2.09  12 2.30  31 2.32
  73  0.833  0.025  0.028-   7 2.20  27 2.36  16 2.42
  74  0.836  0.559  0.443-  28 2.25  32 2.65
  75  0.452  0.049  0.111-  29 2.27   3 2.38   7 2.58  25 2.82
  76  0.975  0.633  0.091-  32 2.14  19 2.32
  77  0.409  0.052  0.515-  29 2.24  10 2.29  23 2.77
  78  0.047  0.483  0.277-  15 2.27  30 2.46
  79  0.699  0.172  0.343-  29 2.21   3 2.50  15 2.68  11 2.89
  80  0.742  0.615  0.180-  32 2.15  19 2.30   9 2.56
 
 -----------------------------------------------------------------------------
|                                                                             |
|           W    W    AA    RRRRR   N    N  II  N    N   GGGG   !!!           |
|           W    W   A  A   R    R  NN   N  II  NN   N  G    G  !!!           |
|           W    W  A    A  R    R  N N  N  II  N N  N  G       !!!           |
|           W WW W  AAAAAA  RRRRR   N  N N  II  N  N N  G  GGG   !            |
|           WW  WW  A    A  R   R   N   NN  II  N   NN  G    G                |
|           W    W  A    A  R    R  N    N  II  N    N   GGGG   !!!           |
|                                                                             |
|     The distance between some ions is very small. Please check the          |
|     nearest-neighbor list in the OUTCAR file.                               |
|     I HOPE YOU KNOW WHAT YOU ARE DOING!                                     |
|                                                                             |
 -----------------------------------------------------------------------------


IMPORTANT INFORMATION: All symmetrisations will be switched off!
NOSYMM: (Re-)initialisation of all symmetry stuff for point group C_1.


----------------------------------------------------------------------------------------

                                     Primitive cell                                     

  volume of cell :    1364.5671

  direct lattice vectors                    reciprocal lattice vectors
    11.979103790  0.000000000  0.000000000     0.083478699  0.039546497 -0.001674212
    -6.507722863 13.737151910  0.000000000     0.000000000  0.072795293 -0.001306798
     0.095786433  0.148860294  8.292278410     0.000000000  0.000000000  0.120594118

  length of vectors
    11.979103790 15.200651285  8.294167569     0.092387346  0.072807022  0.120594118

  position of ions in fractional coordinates (direct lattice)
     0.262556084  0.191900331  0.680342569
     0.022706929  0.553023508  0.672590780
     0.551381348  0.215255629  0.187496117
     0.407013355  0.644760076  0.602127636
     0.226981493  0.232270092  0.149337726
     0.026289590  0.554622572  0.694714976
     0.654718809  0.031505746  0.063433833
     0.657981097  0.690017547  0.891870682
     0.528459025  0.496667862  0.287841276
     0.522112474  0.979087541  0.628278471
     0.790526895  0.229579172  0.663078316
     0.156412327  0.007925531  0.400971824
     0.481279294  0.440835582  0.887507587
     0.318520680  0.790626392  0.888384306
     0.885040322  0.337316611  0.236600835
     0.875296472  0.883306491  0.008629209
     0.139478348  0.366361581  0.491301642
     0.236360123  0.825405664  0.355884095
     0.785750169  0.504211391  0.038368345
     0.520963832  0.807656747  0.237783864
     0.089818159  0.341915121  0.882774268
     0.971221831  0.788477332  0.713199643
     0.506744000  0.178608939  0.767107625
     0.782369287  0.857641435  0.516251359
     0.223893657  0.002145167  0.959789289
     0.340873380  0.570677226  0.726320283
     0.948529189  0.090233440  0.788051206
     0.689357500  0.423633069  0.558968208
     0.508868975  0.158007381  0.314177826
     0.269944408  0.562980151  0.215142318
     0.931863836  0.107438582  0.345423762
     0.921932696  0.717025120  0.255185595
     0.523113219  0.350640452  0.723623798
     0.307367715  0.716447511  0.159355479
     0.511843014  0.675472219  0.391343590
     0.115923650  0.466589867  0.685233867
     0.373751787  0.188707943  0.972659093
     0.849780370  0.451461390  0.702378733
     0.916129254  0.221461219  0.812127821
     0.056414198  0.845714863  0.940388107
     0.431328332  0.820722457  0.462251725
     0.064068873  0.843430539  0.476732667
     0.503186035  0.561892744  0.037108740
     0.517111194  0.894740619  0.974149637
     0.098117723  0.197957810  0.495588763
     0.026559050  0.681472249  0.706247392
     0.675159435  0.257360454  0.926911715
     0.795098315  0.894944463  0.794113472
     0.262183764  0.379607853  0.712743797
     0.084291853  0.698294671  0.309619368
     0.762594095  0.408420887  0.279122321
     0.724805010  0.779962316  0.099013559
     0.318194152  0.422304593  0.274469800
     0.101923000  0.078808869  0.198713781
     0.695646397  0.548018469  0.807650162
     0.838807216  0.094785150  0.573638482
     0.155605763  0.036184189  0.726293752
     0.251668126  0.668572351  0.685743980
     0.128190988  0.177145995  0.900700583
     0.535737451  0.594320475  0.697159419
     0.312887721  0.929186731  0.810294791
     0.242096462  0.563426989  0.949936750
     0.682157396  0.923645604  0.422140916
     0.915168179  0.402678492  0.005067763
     0.346102528  0.204558150  0.309643487
     0.482381920  0.721515105  0.824514043
     0.051956328  0.281544977  0.209282650
     0.191538091  0.934626529  0.220968220
     0.538095811  0.381370311  0.119293751
     0.617451434  0.097981820  0.798794936
     0.598718091  0.263577518  0.525160853
     0.949199739  0.968707890  0.434720088
     0.833003017  0.024831589  0.028266055
     0.835992774  0.559264132  0.443191825
     0.452001947  0.049400245  0.110609287
     0.974743358  0.633080546  0.090731879
     0.408851232  0.052113466  0.514881410
     0.047361344  0.483361084  0.277007101
     0.698948511  0.171573075  0.342566887
     0.741637306  0.615017195  0.180204996

  ion indices of the primitive-cell ions
   primitive index   ion index
                 1           1
                 2           2
                 3           3
                 4           4
                 5           5
                 6           6
                 7           7
                 8           8
                 9           9
                10          10
                11          11
                12          12
                13          13
                14          14
                15          15
                16          16
                17          17
                18          18
                19          19
                20          20
                21          21
                22          22
                23          23
                24          24
                25          25
                26          26
                27          27
                28          28
                29          29
                30          30
                31          31
                32          32
                33          33
                34          34
                35          35
                36          36
                37          37
                38          38
                39          39
                40          40
                41          41
                42          42
                43          43
                44          44
                45          45
                46          46
                47          47
                48          48
                49          49
                50          50
                51          51
                52          52
                53          53
                54          54
                55          55
                56          56
                57          57
                58          58
                59          59
                60          60
                61          61
                62          62
                63          63
                64          64
                65          65
                66          66
                67          67
                68          68
                69          69
                70          70
                71          71
                72          72
                73          73
                74          74
                75          75
                76          76
                77          77
                78          78
                79          79
                80          80

----------------------------------------------------------------------------------------

 
 
 KPOINTS: Automatic kpoint scheme                 

Automatic generation of k-mesh.
 Grid dimensions read from file:
 generate k-points for:    4    2    4

 Generating k-lattice:

  Cartesian coordinates                     Fractional coordinates (reciprocal lattice)
     0.020869675  0.009886624 -0.000418553     0.250000000  0.000000000 -0.000000000
     0.000000000  0.036397647 -0.000653399     0.000000000  0.500000000 -0.000000000
     0.000000000  0.000000000  0.030148529     0.000000000  0.000000000  0.250000000

  Length of vectors
     0.023096836  0.036403511  0.030148529

  Shift w.r.t. Gamma in fractional coordinates (k-lattice)
     0.000000000  0.000000000  0.000000000

 
 Subroutine IBZKPT returns following result:
 ===========================================
 
 Found     20 irreducible k-points:
 
 Following reciprocal coordinates:
            Coordinates               Weight
  0.000000  0.000000  0.000000      1.000000
  0.250000  0.000000  0.000000      2.000000
  0.500000  0.000000 -0.000000      1.000000
  0.000000  0.500000 -0.000000      1.000000
  0.250000  0.500000 -0.000000      2.000000
  0.500000  0.500000  0.000000      1.000000
  0.000000  0.000000  0.250000      2.000000
  0.250000  0.000000  0.250000      2.000000
  0.500000  0.000000  0.250000      2.000000
 -0.250000 -0.000000  0.250000      2.000000
  0.000000  0.500000  0.250000      2.000000
  0.250000  0.500000  0.250000      2.000000
  0.500000  0.500000  0.250000      2.000000
 -0.250000  0.500000  0.250000      2.000000
  0.000000  0.000000  0.500000      1.000000
  0.250000  0.000000  0.500000      2.000000
  0.500000  0.000000  0.500000      1.000000
  0.000000  0.500000  0.500000      1.000000
  0.250000  0.500000  0.500000      2.000000
  0.500000  0.500000  0.500000      1.000000
 
 Following cartesian coordinates:
            Coordinates               Weight
  0.000000  0.000000  0.000000      1.000000
  0.020870  0.009887 -0.000419      2.000000
  0.041739  0.019773 -0.000837      1.000000
  0.000000  0.036398 -0.000653      1.000000
  0.020870  0.046284 -0.001072      2.000000
  0.041739  0.056171 -0.001491      1.000000
  0.000000  0.000000  0.030149      2.000000
  0.020870  0.009887  0.029730      2.000000
  0.041739  0.019773  0.029311      2.000000
 -0.020870 -0.009887  0.030567      2.000000
  0.000000  0.036398  0.029495      2.000000
  0.020870  0.046284  0.029077      2.000000
  0.041739  0.056171  0.028658      2.000000
 -0.020870  0.026511  0.029914      2.000000
  0.000000  0.000000  0.060297      1.000000
  0.020870  0.009887  0.059879      2.000000
  0.041739  0.019773  0.059460      1.000000
  0.000000  0.036398  0.059644      1.000000
  0.020870  0.046284  0.059225      2.000000
  0.041739  0.056171  0.058807      1.000000
 


--------------------------------------------------------------------------------------------------------




 Dimension of arrays:
   k-points           NKPTS =     20   k-points in BZ     NKDIM =     20   number of bands    NBANDS=    320
   number of dos      NEDOS =    301   number of ions     NIONS =     80
   non local maximal  LDIM  =      5   non local SUM 2l+1 LMDIM =     13
   total plane-waves  NPLWV = 544320
   max r-space proj   IRMAX =      1   max aug-charges    IRDMAX=  38193
   dimension x,y,z NGX =    84 NGY =  108 NGZ =   60
   dimension x,y,z NGXF=   168 NGYF=  216 NGZF=  120
   support grid    NGXF=   168 NGYF=  216 NGZF=  120
   ions per type =              32  48
   NGX,Y,Z   is equivalent  to a cutoff of  11.66, 11.81, 12.03 a.u.
   NGXF,Y,Z  is equivalent  to a cutoff of  23.32, 23.62, 24.05 a.u.

 SYSTEM =  Bi2o3                                   
 POSCAR =  Bi32 O48                                

 Startparameter for this run:
   NWRITE =      2    write-flag & timer
   PREC   = normal    normal or accurate (medium, high low for compatibility)
   ISTART =      0    job   : 0-new  1-cont  2-samecut
   ICHARG =      2    charge: 1-file 2-atom 10-const
   ISPIN  =      1    spin polarized calculation?
   LNONCOLLINEAR =      F non collinear calculations
   LSORBIT =      F    spin-orbit coupling
   INIWAV =      1    electr: 0-lowe 1-rand  2-diag
   LASPH  =      F    aspherical Exc in radial PAW
 Electronic Relaxation 1
   ENCUT  =  800.0 eV  58.80 Ry    7.67 a.u.  27.63 35.06 19.13*2*pi/ulx,y,z
   ENINI  =  800.0     initial cutoff
   ENAUG  =  605.4 eV  augmentation charge cutoff
   NELM   =    200;   NELMIN=  2; NELMDL= -5     # of ELM steps 
   EDIFF  = 0.1E-05   stopping-criterion for ELM
   LREAL  =      F    real-space projection
   NLSPLINE    = F    spline interpolate recip. space projectors
   LCOMPAT=      F    compatible to vasp.4.4
   GGA_COMPAT  = T    GGA compatible to vasp.4.4-vasp.4.6
   LMAXPAW     = -100 max onsite density
   LMAXMIX     =    2 max onsite mixed and CHGCAR
   VOSKOWN=      0    Vosko Wilk Nusair interpolation
   ROPT   =    0.00000   0.00000
 Ionic relaxation
   EDIFFG = -.5E-01   stopping-criterion for IOM
   NSW    =      0    number of steps for IOM
   NBLOCK =      1;   KBLOCK =      1    inner block; outer block 
   IBRION =     -1    ionic relax: 0-MD 1-quasi-New 2-CG
   NFREE  =      1    steps in history (QN), initial steepest desc. (CG)
   ISIF   =      2    stress and relaxation
   IWAVPR =     10    prediction:  0-non 1-charg 2-wave 3-comb
   ISYM   =      0    0-nonsym 1-usesym 2-fastsym
   LCORR  =      T    Harris-Foulkes like correction to forces

   POTIM  = 0.5000    time-step for ionic-motion
   TEIN   =    0.0    initial temperature
   TEBEG  =    0.0;   TEEND  =   0.0 temperature during run
   SMASS  =  -3.00    Nose mass-parameter (am)
   estimated Nose-frequenzy (Omega)   =  0.10E-29 period in steps = 0.13E+47 mass=  -0.328E-26a.u.
   SCALEE = 1.0000    scale energy and forces
   NPACO  =    256;   APACO  = 10.0  distance and # of slots for P.C.
   PSTRESS=    0.0 pullay stress

  Mass of Ions in am
   POMASS = 208.98 16.00
  Ionic Valenz
   ZVAL   =   5.00  6.00
  Atomic Wigner-Seitz radii
   RWIGS  =  -1.00 -1.00
  virtual crystal weights 
   VCA    =   1.00  1.00
   NELECT =     448.0000    total number of electrons
   NUPDOWN=      -1.0000    fix difference up-down

 DOS related values:
   EMIN   =  10.00;   EMAX   =-10.00  energy-range for DOS
   EFERMI =   0.00
   ISMEAR =     0;   SIGMA  =   0.05  broadening in eV -4-tet -1-fermi 0-gaus

 Electronic relaxation 2 (details)
   IALGO  =     38    algorithm
   LDIAG  =      T    sub-space diagonalisation (order eigenvalues)
   LSUBROT=      F    optimize rotation matrix (better conditioning)
   TURBO    =      0    0=normal 1=particle mesh
   IRESTART =      0    0=no restart 2=restart with 2 vectors
   NREBOOT  =      0    no. of reboots
   NMIN     =      0    reboot dimension
   EREF     =   0.00    reference energy to select bands
   IMIX   =      4    mixing-type and parameters
     AMIX     =   0.20;   BMIX     =  1.00
     AMIX_MAG =   0.80;   BMIX_MAG =  1.00
     AMIN     =   0.10
     WC   =   100.;   INIMIX=   1;  MIXPRE=   1;  MAXMIX= -45

 Intra band minimization:
   WEIMIN = 0.0000     energy-eigenvalue tresh-hold
   EBREAK =  0.78E-09  absolut break condition
   DEPER  =   0.30     relativ break condition  

   TIME   =   0.40     timestep for ELM

  volume/ion in A,a.u.               =      17.06       115.11
  Fermi-wavevector in a.u.,A,eV,Ry     =   1.129369  2.134198 17.353882  1.275474
  Thomas-Fermi vector in A             =   2.266062
 
 Write flags
   LWAVE        =      F    write WAVECAR
   LDOWNSAMPLE  =      F    k-point downsampling of WAVECAR
   LCHARG       =      T    write CHGCAR
   LVTOT        =      F    write LOCPOT, total local potential
   LVHAR        =      F    write LOCPOT, Hartree potential only
   LELF         =      F    write electronic localiz. function (ELF)
   LORBIT       =     11    0 simple, 1 ext, 2 COOP (PROOUT), +10 PAW based schemes


 Dipole corrections
   LMONO  =      F    monopole corrections only (constant potential shift)
   LDIPOL =      F    correct potential (dipole corrections)
   IDIPOL =      0    1-x, 2-y, 3-z, 4-all directions 
   EPSILON=  1.0000000 bulk dielectric constant

 Exchange correlation treatment:
   GGA     =    --    GGA type
   LEXCH   =     8    internal setting for exchange type
   LIBXC   =     F    Libxc                    
   VOSKOWN =     0    Vosko Wilk Nusair interpolation
   LHFCALC =     F    Hartree Fock is set to
   LHFONE  =     F    Hartree Fock one center treatment
   AEXX    =    0.0000 exact exchange contribution

 Linear response parameters
   LEPSILON=     F    determine dielectric tensor
   LRPA    =     F    only Hartree local field effects (RPA)
   LNABLA  =     F    use nabla operator in PAW spheres
   LVEL    =     F    velocity operator in full k-point grid
   CSHIFT  =0.1000    complex shift for real part using Kramers Kronig
   OMEGAMAX=  -1.0    maximum frequency
   DEG_THRESHOLD= 0.2000000E-02 threshold for treating states as degnerate
   RTIME   =   -0.100 relaxation time in fs
  (WPLASMAI=    0.000 imaginary part of plasma frequency in eV, 0.658/RTIME)
   DFIELD  = 0.0000000 0.0000000 0.0000000 field for delta impulse in time
 
  Optional k-point grid parameters
   LKPOINTS_OPT  =     F    use optional k-point grid
   KPOINTS_OPT_MODE=     1    mode for optional k-point grid
 
 Orbital magnetization related:
   ORBITALMAG=     F  switch on orbital magnetization
   LCHIMAG   =     F  perturbation theory with respect to B field
   DQ        =  0.001000  dq finite difference perturbation B field
   LLRAUG    =     F  two centre corrections for induced B field



--------------------------------------------------------------------------------------------------------


 Static calculation
 charge density and potential will be updated during run
 non-spin polarized calculation
 Variant of blocked Davidson
 Davidson routine will perform the subspace rotation
 perform sub-space diagonalisation
    after iterative eigenvector-optimisation
 modified Broyden-mixing scheme, WC =      100.0
 initial mixing is a Kerker type mixing with AMIX =  0.2000 and BMIX =      1.0000
 Hartree-type preconditioning will be used
 using additional bands           96
 reciprocal scheme for non local part
 use partial core corrections
 calculate Harris-corrections to forces 
   (improved forces if not selfconsistent)
 use gradient corrections 
 use of overlap-Matrix (Vanderbilt PP)
 Gauss-broadening in eV      SIGMA  =   0.05


--------------------------------------------------------------------------------------------------------


  energy-cutoff  :      800.00
  volume of cell :     1364.57
      direct lattice vectors                 reciprocal lattice vectors
    11.979103790  0.000000000  0.000000000     0.083478699  0.039546497 -0.001674212
    -6.507722863 13.737151910  0.000000000     0.000000000  0.072795293 -0.001306798
     0.095786433  0.148860294  8.292278410     0.000000000  0.000000000  0.120594118

  length of vectors
    11.979103790 15.200651285  8.294167569     0.092387346  0.072807022  0.120594118


 
 k-points in units of 2pi/SCALE and weight: Automatic kpoint scheme                 
   0.00000000  0.00000000  0.00000000       0.031
   0.02086967  0.00988662 -0.00041855       0.062
   0.04173935  0.01977325 -0.00083711       0.031
   0.00000000  0.03639765 -0.00065340       0.031
   0.02086967  0.04628427 -0.00107195       0.062
   0.04173935  0.05617090 -0.00149050       0.031
   0.00000000  0.00000000  0.03014853       0.062
   0.02086967  0.00988662  0.02972998       0.062
   0.04173935  0.01977325  0.02931142       0.062
  -0.02086967 -0.00988662  0.03056708       0.062
   0.00000000  0.03639765  0.02949513       0.062
   0.02086967  0.04628427  0.02907658       0.062
   0.04173935  0.05617090  0.02865802       0.062
  -0.02086967  0.02651102  0.02991368       0.062
   0.00000000  0.00000000  0.06029706       0.031
   0.02086967  0.00988662  0.05987851       0.062
   0.04173935  0.01977325  0.05945995       0.031
   0.00000000  0.03639765  0.05964366       0.031
   0.02086967  0.04628427  0.05922511       0.062
   0.04173935  0.05617090  0.05880655       0.031
 
 k-points in reciprocal lattice and weights: Automatic kpoint scheme                 
   0.00000000  0.00000000  0.00000000       0.031
   0.25000000  0.00000000  0.00000000       0.062
   0.50000000  0.00000000 -0.00000000       0.031
   0.00000000  0.50000000 -0.00000000       0.031
   0.25000000  0.50000000 -0.00000000       0.062
   0.50000000  0.50000000  0.00000000       0.031
   0.00000000  0.00000000  0.25000000       0.062
   0.25000000  0.00000000  0.25000000       0.062
   0.50000000  0.00000000  0.25000000       0.062
  -0.25000000 -0.00000000  0.25000000       0.062
   0.00000000  0.50000000  0.25000000       0.062
   0.25000000  0.50000000  0.25000000       0.062
   0.50000000  0.50000000  0.25000000       0.062
  -0.25000000  0.50000000  0.25000000       0.062
   0.00000000  0.00000000  0.50000000       0.031
   0.25000000  0.00000000  0.50000000       0.062
   0.50000000  0.00000000  0.50000000       0.031
   0.00000000  0.50000000  0.50000000       0.031
   0.25000000  0.50000000  0.50000000       0.062
   0.50000000  0.50000000  0.50000000       0.031
 
 position of ions in fractional coordinates (direct lattice) 
   0.26255608  0.19190033  0.68034257
   0.02270693  0.55302351  0.67259078
   0.55138135  0.21525563  0.18749612
   0.40701336  0.64476008  0.60212764
   0.22698149  0.23227009  0.14933773
   0.02628959  0.55462257  0.69471498
   0.65471881  0.03150575  0.06343383
   0.65798110  0.69001755  0.89187068
   0.52845902  0.49666786  0.28784128
   0.52211247  0.97908754  0.62827847
   0.79052689  0.22957917  0.66307832
   0.15641233  0.00792553  0.40097182
   0.48127929  0.44083558  0.88750759
   0.31852068  0.79062639  0.88838431
   0.88504032  0.33731661  0.23660084
   0.87529647  0.88330649  0.00862921
   0.13947835  0.36636158  0.49130164
   0.23636012  0.82540566  0.35588410
   0.78575017  0.50421139  0.03836835
   0.52096383  0.80765675  0.23778386
   0.08981816  0.34191512  0.88277427
   0.97122183  0.78847733  0.71319964
   0.50674400  0.17860894  0.76710763
   0.78236929  0.85764143  0.51625136
   0.22389366  0.00214517  0.95978929
   0.34087338  0.57067723  0.72632028
   0.94852919  0.09023344  0.78805121
   0.68935750  0.42363307  0.55896821
   0.50886898  0.15800738  0.31417783
   0.26994441  0.56298015  0.21514232
   0.93186384  0.10743858  0.34542376
   0.92193270  0.71702512  0.25518560
   0.52311322  0.35064045  0.72362380
   0.30736771  0.71644751  0.15935548
   0.51184301  0.67547222  0.39134359
   0.11592365  0.46658987  0.68523387
   0.37375179  0.18870794  0.97265909
   0.84978037  0.45146139  0.70237873
   0.91612925  0.22146122  0.81212782
   0.05641420  0.84571486  0.94038811
   0.43132833  0.82072246  0.46225173
   0.06406887  0.84343054  0.47673267
   0.50318604  0.56189274  0.03710874
   0.51711119  0.89474062  0.97414964
   0.09811772  0.19795781  0.49558876
   0.02655905  0.68147225  0.70624739
   0.67515943  0.25736045  0.92691171
   0.79509832  0.89494446  0.79411347
   0.26218376  0.37960785  0.71274380
   0.08429185  0.69829467  0.30961937
   0.76259409  0.40842089  0.27912232
   0.72480501  0.77996232  0.09901356
   0.31819415  0.42230459  0.27446980
   0.10192300  0.07880887  0.19871378
   0.69564640  0.54801847  0.80765016
   0.83880722  0.09478515  0.57363848
   0.15560576  0.03618419  0.72629375
   0.25166813  0.66857235  0.68574398
   0.12819099  0.17714600  0.90070058
   0.53573745  0.59432047  0.69715942
   0.31288772  0.92918673  0.81029479
   0.24209646  0.56342699  0.94993675
   0.68215740  0.92364560  0.42214092
   0.91516818  0.40267849  0.00506776
   0.34610253  0.20455815  0.30964349
   0.48238192  0.72151510  0.82451404
   0.05195633  0.28154498  0.20928265
   0.19153809  0.93462653  0.22096822
   0.53809581  0.38137031  0.11929375
   0.61745143  0.09798182  0.79879494
   0.59871809  0.26357752  0.52516085
   0.94919974  0.96870789  0.43472009
   0.83300302  0.02483159  0.02826606
   0.83599277  0.55926413  0.44319182
   0.45200195  0.04940024  0.11060929
   0.97474336  0.63308055  0.09073188
   0.40885123  0.05211347  0.51488141
   0.04736134  0.48336108  0.27700710
   0.69894851  0.17157307  0.34256689
   0.74163731  0.61501719  0.18020500
 
 position of ions in cartesian coordinates  (Angst):
   1.96152000  2.73744000  5.64159000
  -3.26249000  7.69709000  5.57731000
   5.22219000  2.98491000  1.55477000
   0.73741100  8.94680000  4.99301000
   1.22179000  3.21296000  1.23835000
  -3.22786000  7.72235000  5.76077000
   7.64399000  0.44224200  0.52601100
   3.47701000  9.61164000  7.39564000
   3.12586000  6.86565000  2.38686000
  -0.05701030 13.54340000  5.20986000
   8.03928000  3.25247000  5.49843000
   1.86051000  0.16856300  3.32497000
   2.98147000  6.18794000  7.35946000
  -1.24449000 10.99320000  7.36673000
   8.42949000  4.66899000  1.96196000
   4.73778000 12.13540000  0.07155580
  -0.66629400  5.10590000  4.07401000
  -2.50604000 11.39170000  2.95109000
   6.13499000  6.93214000  0.31816100
   1.00745000 11.13030000  1.97177000
  -1.06459000  4.82835000  7.32021000
   6.57149000 10.93760000  5.91405000
   4.98148000  2.56777000  6.36107000
   3.84024000 11.85840000  4.28090000
   2.76002000  0.17234300  7.95884000
   0.43912000  7.94760000  6.02285000
  10.85080000  1.35686000  6.53474000
   5.55454000  5.90272000  4.63512000
   5.09762000  2.21734000  2.60525000
  -0.40941900  7.76577000  1.78402000
  10.49680000  1.52732000  2.86435000
   6.40217000  9.88787000  2.11607000
   4.05387000  4.92452000  6.00049000
  -0.96518800  9.86567000  1.32142000
   1.77312000  9.33732000  3.24513000
  -1.58214000  6.51162000  5.68215000
   3.34232000  2.73710000  8.06556000
   7.30890000  6.30635000  5.82432000
   9.61099000  3.16314000  6.73439000
  -4.73781000 11.75770000  7.79796000
  -0.12983000 11.34320000  3.83312000
  -4.67566000 11.65730000  3.95320000
   2.37463000  7.72433000  0.30771600
   0.46511500 12.43620000  8.07792000
  -0.06542150  2.79315000  4.10956000
  -4.04903000  9.46662000  5.85640000
   6.50176000  3.67338000  7.68621000
   3.77658000 12.41220000  6.58501000
   0.73861500  5.32083000  5.91027000
  -3.50491000  9.63867000  2.56745000
   6.50404000  5.65209000  2.31456000
   3.61622000 10.72920000  0.82104800
   1.08973000  5.84212000  2.27598000
   0.72711400  1.11219000  1.64779000
   4.84423000  7.64844000  6.69726000
   9.48627000  1.38747000  4.75677000
   1.69811000  0.60518400  6.02263000
  -1.27044000  9.28636000  5.68638000
   0.46907100  2.56756000  7.46886000
   2.61676000  8.26805000  5.78104000
  -2.22116000 12.88500000  6.71919000
  -0.67553700  7.88129000  7.87714000
   2.20124000 12.75110000  3.50051000
   8.34286000  5.53241000  0.04202330
   2.84445000  2.85614000  2.56765000
   1.16206000 10.03430000  6.83710000
  -1.18978000  3.89878000  1.73543000
  -3.76667000 12.87200000  1.83233000
   3.97548000  5.25670000  0.98921700
   6.83539000  1.46490000  6.62383000
   5.50712000  3.69898000  4.35478000
   5.10812000 13.37200000  3.60482000
   9.81974000  0.34532300  0.23439000
   6.41736000  7.74867000  3.67507000
   5.10369000  0.69508400  0.91720300
   7.56533000  8.71023000  0.75237400
   4.60785000  0.79253600  4.26954000
  -2.55170000  6.68124000  2.29702000
   7.28904000  2.40792000  2.84066000
   4.89905000  8.47541000  1.49431000
 


--------------------------------------------------------------------------------------------------------


 k-point   1 :   0.0000 0.0000 0.0000  plane waves:   70113
 k-point   2 :   0.2500 0.0000 0.0000  plane waves:   70083
 k-point   3 :   0.5000 0.0000-0.0000  plane waves:   70050
 k-point   4 :   0.0000 0.5000-0.0000  plane waves:   70120
 k-point   5 :   0.2500 0.5000-0.0000  plane waves:   70111
 k-point   6 :   0.5000 0.5000 0.0000  plane waves:   70082
 k-point   7 :   0.0000 0.0000 0.2500  plane waves:   70092
 k-point   8 :   0.2500 0.0000 0.2500  plane waves:   70115
 k-point   9 :   0.5000 0.0000 0.2500  plane waves:   70094
 k-point  10 :  -0.2500-0.0000 0.2500  plane waves:   70105
 k-point  11 :   0.0000 0.5000 0.2500  plane waves:   70149
 k-point  12 :   0.2500 0.5000 0.2500  plane waves:   70116
 k-point  13 :   0.5000 0.5000 0.2500  plane waves:   70082
 k-point  14 :  -0.2500 0.5000 0.2500  plane waves:   70119
 k-point  15 :   0.0000 0.0000 0.5000  plane waves:   70148
 k-point  16 :   0.2500 0.0000 0.5000  plane waves:   70140
 k-point  17 :   0.5000 0.0000 0.5000  plane waves:   70150
 k-point  18 :   0.0000 0.5000 0.5000  plane waves:   70154
 k-point  19 :   0.2500 0.5000 0.5000  plane waves:   70122
 k-point  20 :   0.5000 0.5000 0.5000  plane waves:   70114

 maximum and minimum number of plane-waves per node :     70154    70050

 maximum number of plane-waves:     70154
 maximum index in each direction: 
   IXMAX=   27   IYMAX=   35   IZMAX=   19
   IXMIN=  -28   IYMIN=  -35   IZMIN=  -19


 serial   3D FFT for wavefunctions
 parallel 3D FFT for charge:
    minimum data exchange during FFTs selected (reduces bandwidth)


 total amount of memory used by VASP MPI-rank0   557421. kBytes
=======================================================================

   base      :      30000. kBytes
   nonl-proj :     381931. kBytes
   fftplans  :       4854. kBytes
   grid      :      26324. kBytes
   one-center:        648. kBytes
   wavefun   :     113664. kBytes
 
     INWAV:  cpu time      0.0000: real time      0.0000
 Broyden mixing: mesh for mixing (old mesh)
   NGX = 55   NGY = 71   NGZ = 39
  (NGX  =168   NGY  =216   NGZ  =120)
  gives a total of 152295 points

 initial charge density was supplied:
 charge density of overlapping atoms calculated
 number of electron     448.0000000 magnetization 
 keeping initial charge density in first step


--------------------------------------------------------------------------------------------------------


 Maximum index for augmentation-charges         1235 (set IRDMAX)


--------------------------------------------------------------------------------------------------------


 First call to EWALD:  gamma=   0.160
 Maximum number of real-space cells 3x 2x 4
 Maximum number of reciprocal cells 3x 4x 2

    FEWALD:  cpu time      0.0061: real time      0.0062


--------------------------------------- Iteration      1(   1)  ---------------------------------------


    POTLOK:  cpu time      0.0802: real time      0.0971
    SETDIJ:  cpu time      0.0075: real time      0.0076
 -----------------------------------------------------------------------------
|                                                                             |
|     EEEEEEE  RRRRRR   RRRRRR   OOOOOOO  RRRRRR      ###     ###     ###     |
|     E        R     R  R     R  O     O  R     R     ###     ###     ###     |
|     E        R     R  R     R  O     O  R     R     ###     ###     ###     |
|     EEEEE    RRRRRR   RRRRRR   O     O  RRRRRR       #       #       #      |
|     E        R   R    R   R    O     O  R   R                               |
|     E        R    R   R    R   O     O  R    R      ###     ###     ###     |
|     EEEEEEE  R     R  R     R  OOOOOOO  R     R     ###     ###     ###     |
|                                                                             |
|     Error EDDDAV: Call to ZHEGV failed. Returncode = 109 2 128              |
|                                                                             |
|       ---->  I REFUSE TO CONTINUE WITH THIS SICK JOB ... BYE!!! <----       |
|                                                                             |
 -----------------------------------------------------------------------------

