 vasp.5.4.4.18Apr17-6-g9f103f2a35 (build Jun 19 2019 10:34:07) complex          
  
 executed on               LB-5.4 date 2023.05.16  11:52:09
 running on   96 total cores
 distrk:  each k-point on   24 cores,    4 groups
 distr:  one band on NCORES_PER_BAND=   1 cores,   24 groups


--------------------------------------------------------------------------------------------------------


 INCAR:
 POTCAR:    PAW_PBE Si 05Jan2001                  

 ----------------------------------------------------------------------------- 
|                                                                             |
|           W    W    AA    RRRRR   N    N  II  N    N   GGGG   !!!           |
|           W    W   A  A   R    R  NN   N  II  NN   N  G    G  !!!           |
|           W    W  A    A  R    R  N N  N  II  N N  N  G       !!!           |
|           W WW W  AAAAAA  RRRRR   N  N N  II  N  N N  G  GGG   !            |
|           WW  WW  A    A  R   R   N   NN  II  N   NN  G    G                |
|           W    W  A    A  R    R  N    N  II  N    N   GGGG   !!!           |
|                                                                             |
|      For optimal performance we recommend to set                            |
|        NCORE= 4 - approx SQRT( number of cores)                             |
|      NCORE specifies how many cores store one orbital (NPAR=cpu/NCORE).     |
|      This setting can  greatly improve the performance of VASP for DFT.     |
|      The default,   NCORE=1            might be grossly inefficient         |
|      on modern multi-core architectures or massively parallel machines.     |
|      Do your own testing !!!!                                               |
|      Unfortunately you need to use the default for GW and RPA calculations. |
|      (for HF NCORE is supported but not extensively tested yet)             |
|                                                                             |
 ----------------------------------------------------------------------------- 


 ----------------------------------------------------------------------------- 
|                                                                             |
|           W    W    AA    RRRRR   N    N  II  N    N   GGGG   !!!           |
|           W    W   A  A   R    R  NN   N  II  NN   N  G    G  !!!           |
|           W    W  A    A  R    R  N N  N  II  N N  N  G       !!!           |
|           W WW W  AAAAAA  RRRRR   N  N N  II  N  N N  G  GGG   !            |
|           WW  WW  A    A  R   R   N   NN  II  N   NN  G    G                |
|           W    W  A    A  R    R  N    N  II  N    N   GGGG   !!!           |
|                                                                             |
|      You have enabled k-point parallelism (KPAR>1).                         |
|      This developmental code was originally  written by Paul Kent at ORNL,  |
|      and carefully double checked in Vienna.                                |
|      GW as well as linear response parallelism added by Martijn Marsman     |
|      and Georg Kresse.                                                      |
|      Carefully verify results versus KPAR=1.                                |
|      Report problems to Paul Kent and Vienna.                               |
|                                                                             |
 ----------------------------------------------------------------------------- 

 POTCAR:    PAW_PBE Si 05Jan2001                  
   VRHFIN =Si: s2p2                                                             
   LEXCH  = PE                                                                  
   EATOM  =   103.0669 eV,    7.5752 Ry                                         
                                                                                
   TITEL  = PAW_PBE Si 05Jan2001                                                
   LULTRA =        F    use ultrasoft PP ?                                      
   IUNSCR =        1    unscreen: 0-lin 1-nonlin 2-no                           
   RPACOR =    1.500    partial core radius                                     
   POMASS =   28.085; ZVAL   =    4.000    mass and valenz                      
   RCORE  =    1.900    outmost cutoff radius                                   
   RWIGS  =    2.480; RWIGS  =    1.312    wigner-seitz radius (au A)           
   ENMAX  =  245.345; ENMIN  =  184.009 eV                                      
   ICORE  =        2    local potential                                         
   LCOR   =        T    correct aug charges                                     
   LPAW   =        T    paw PP                                                  
   EAUG   =  322.069                                                            
   DEXC   =    0.000                                                            
   RMAX   =    1.950    core radius for proj-oper                               
   RAUG   =    1.300    factor for augmentation sphere                          
   RDEP   =    1.993    radius for radial grids                                 
   RDEPT  =    1.837    core radius for aug-charge                              
                                                                                
   Atomic configuration                                                         
    6 entries                                                                   
     n  l   j            E        occ.                                          
     1  0  0.50     -1785.8828   2.0000                                         
     2  0  0.50      -139.4969   2.0000                                         
     2  1  1.50       -95.5546   6.0000                                         
     3  0  0.50       -10.8127   2.0000                                         
     3  1  0.50        -4.0811   2.0000                                         
     3  2  1.50        -4.0817   0.0000                                         
   Description                                                                  
     l       E           TYP  RCUT    TYP  RCUT                                 
     0    -10.8127223     23  1.900                                             
     0     -7.6451159     23  1.900                                             
     1     -4.0811372     23  1.900                                             
     1      2.4879257     23  1.900                                             
     2     -4.0817478      7  1.900                                             
  local pseudopotential read in
  partial core-charges read in
  partial kinetic energy density read in
  atomic valenz-charges read in
  non local Contribution for L=           0  read in
    real space projection operators read in
  non local Contribution for L=           0  read in
    real space projection operators read in
  non local Contribution for L=           1  read in
    real space projection operators read in
  non local Contribution for L=           1  read in
    real space projection operators read in
    PAW grid and wavefunctions read in
 
   number of l-projection  operators is LMAX  =           4
   number of lm-projection operators is LMMAX =           8
 

 ----------------------------------------------------------------------------- 
|                                                                             |
|  ADVICE TO THIS USER RUNNING 'VASP/VAMP'   (HEAR YOUR MASTER'S VOICE ...):  |
|                                                                             |
|      You have a (more or less) 'large supercell' and for larger cells       |
|      it might be more efficient to use real space projection opertators     |
|      So try LREAL= Auto  in the INCAR   file.                               |
|      Mind:          For very  accurate calculation you might also keep the  |
|      reciprocal projection scheme          (i.e. LREAL=.FALSE.)             |
|                                                                             |
 ----------------------------------------------------------------------------- 

  PAW_PBE Si 05Jan2001                  :
 energy of atom  1       EATOM= -103.0669
 kinetic energy error for atom=    0.0004 (will be added to EATOM!!)
 
 
 POSCAR: Si54                                    
  positions in direct lattice
  No initial velocities read in
 exchange correlation table for  LEXCH =        8
   RHO(1)=    0.500       N(1)  =     2000
   RHO(2)=  100.500       N(2)  =     4000
 


--------------------------------------------------------------------------------------------------------


 ion  position               nearest neighbor table
   1  0.292  0.292  0.292-  32 2.35  40 2.35  41 2.35  38 2.35
   2  0.292  0.292  0.625-  33 2.35  41 2.35  42 2.35  39 2.35
   3  0.292  0.292  0.958-  31 2.35  40 2.35  42 2.35  37 2.35
   4  0.292  0.625  0.292-  35 2.35  43 2.35  44 2.35  41 2.35
   5  0.292  0.625  0.625-  36 2.35  44 2.35  45 2.35  42 2.35
   6  0.292  0.625  0.958-  34 2.35  43 2.35  45 2.35  40 2.35
   7  0.292  0.958  0.292-  29 2.35  37 2.35  38 2.35  44 2.35
   8  0.292  0.958  0.625-  30 2.35  38 2.35  39 2.35  45 2.35
   9  0.292  0.958  0.958-  28 2.35  37 2.35  39 2.35  43 2.35
  10  0.625  0.292  0.292-  41 2.35  49 2.35  50 2.35  47 2.35
  11  0.625  0.292  0.625-  42 2.35  50 2.35  51 2.35  48 2.35
  12  0.625  0.292  0.958-  40 2.35  49 2.35  51 2.35  46 2.35
  13  0.625  0.625  0.292-  44 2.35  52 2.35  53 2.35  50 2.35
  14  0.625  0.625  0.625-  45 2.35  53 2.35  54 2.35  51 2.35
  15  0.625  0.625  0.958-  43 2.35  52 2.35  54 2.35  49 2.35
  16  0.625  0.958  0.292-  38 2.35  46 2.35  47 2.35  53 2.35
  17  0.625  0.958  0.625-  39 2.35  47 2.35  48 2.35  54 2.35
  18  0.625  0.958  0.958-  37 2.35  46 2.35  48 2.35  52 2.35
  19  0.958  0.292  0.292-  50 2.35  32 2.35  31 2.35  29 2.35
  20  0.958  0.292  0.625-  51 2.35  33 2.35  32 2.35  30 2.35
  21  0.958  0.292  0.958-  49 2.35  31 2.35  33 2.35  28 2.35
  22  0.958  0.625  0.292-  53 2.35  35 2.35  34 2.35  32 2.35
  23  0.958  0.625  0.625-  54 2.35  36 2.35  35 2.35  33 2.35
  24  0.958  0.625  0.958-  52 2.35  34 2.35  36 2.35  31 2.35
  25  0.958  0.958  0.292-  47 2.35  29 2.35  28 2.35  35 2.35
  26  0.958  0.958  0.625-  48 2.35  30 2.35  29 2.35  36 2.35
  27  0.958  0.958  0.958-  46 2.35  28 2.35  30 2.35  34 2.35
  28  0.042  0.042  0.042-   9 2.35  27 2.35  25 2.35  21 2.35
  29  0.042  0.042  0.375-   7 2.35  25 2.35  26 2.35  19 2.35
  30  0.042  0.042  0.708-   8 2.35  26 2.35  27 2.35  20 2.35
  31  0.042  0.375  0.042-   3 2.35  21 2.35  19 2.35  24 2.35
  32  0.042  0.375  0.375-   1 2.35  19 2.35  20 2.35  22 2.35
  33  0.042  0.375  0.708-   2 2.35  20 2.35  21 2.35  23 2.35
  34  0.042  0.708  0.042-   6 2.35  24 2.35  22 2.35  27 2.35
  35  0.042  0.708  0.375-   4 2.35  22 2.35  23 2.35  25 2.35
  36  0.042  0.708  0.708-   5 2.35  23 2.35  24 2.35  26 2.35
  37  0.375  0.042  0.042-  18 2.35   9 2.35   7 2.35   3 2.35
  38  0.375  0.042  0.375-  16 2.35   8 2.35   7 2.35   1 2.35
  39  0.375  0.042  0.708-  17 2.35   9 2.35   8 2.35   2 2.35
  40  0.375  0.375  0.042-  12 2.35   3 2.35   1 2.35   6 2.35
  41  0.375  0.375  0.375-  10 2.35   2 2.35   1 2.35   4 2.35
  42  0.375  0.375  0.708-  11 2.35   3 2.35   2 2.35   5 2.35
  43  0.375  0.708  0.042-  15 2.35   6 2.35   4 2.35   9 2.35
  44  0.375  0.708  0.375-  13 2.35   5 2.35   4 2.35   7 2.35
  45  0.375  0.708  0.708-  14 2.35   6 2.35   5 2.35   8 2.35
  46  0.708  0.042  0.042-  27 2.35  18 2.35  16 2.35  12 2.35
  47  0.708  0.042  0.375-  25 2.35  17 2.35  16 2.35  10 2.35
  48  0.708  0.042  0.708-  26 2.35  18 2.35  17 2.35  11 2.35
  49  0.708  0.375  0.042-  21 2.35  12 2.35  10 2.35  15 2.35
  50  0.708  0.375  0.375-  19 2.35  11 2.35  10 2.35  13 2.35
  51  0.708  0.375  0.708-  20 2.35  12 2.35  11 2.35  14 2.35
  52  0.708  0.708  0.042-  24 2.35  15 2.35  13 2.35  18 2.35
  53  0.708  0.708  0.375-  22 2.35  14 2.35  13 2.35  16 2.35
  54  0.708  0.708  0.708-  23 2.35  15 2.35  14 2.35  17 2.35
 
  LATTYP: Found a face centered cubic cell.
 ALAT       =    16.2915000202
  
  Lattice vectors:
  
 A1 = (   9.9764655300,   0.0000000000,   5.7599150700)
 A2 = (   3.3254885100,   9.4059019200,   5.7599150700)
 A3 = (   0.0000000000,   0.0000000000,  11.5198301400)


Analysis of symmetry for initial positions (statically):
=====================================================================
 Subroutine PRICEL returns following result:
 
  LATTYP: Found a face centered cubic cell.
 ALAT       =     5.4305000067
  
  Lattice vectors:
  
 A1 = (   3.3254885100,   0.0000000000,   1.9199716900)
 A2 = (   1.1084961700,   3.1353006400,   1.9199716900)
 A3 = (   0.0000000000,   0.0000000000,   3.8399433800)
 
  27 primitive cells build up your supercell.
 

 Routine SETGRP: Setting up the symmetry group for a 
 face centered cubic supercell.


 Subroutine GETGRP returns: Found 48 space group operations
 (whereof 12 operations were pure point group operations)
 out of a pool of 48 trial point group operations.


The static configuration has the point symmetry D_3d.
 The point group associated with its full space group is O_h .


Analysis of symmetry for dynamics (positions and initial velocities):
=====================================================================
 Subroutine PRICEL returns following result:
 
  LATTYP: Found a face centered cubic cell.
 ALAT       =     5.4305000067
  
  Lattice vectors:
  
 A1 = (   3.3254885100,   0.0000000000,   1.9199716900)
 A2 = (   1.1084961700,   3.1353006400,   1.9199716900)
 A3 = (   0.0000000000,   0.0000000000,   3.8399433800)
 
  27 primitive cells build up your supercell.
 

 Routine SETGRP: Setting up the symmetry group for a 
 face centered cubic supercell.


 Subroutine GETGRP returns: Found 48 space group operations
 (whereof 12 operations were pure point group operations)
 out of a pool of 48 trial point group operations.


The dynamic configuration has the point symmetry D_3d.
 The point group associated with its full space group is O_h .


 Subroutine INISYM returns: Found 48 space group operations
 (whereof 12 operations are pure point group operations),
 and found    27 'primitive' translations

 
 
 KPOINTS: pymatgen with grid density = 1000 / numb

Automatic generation of k-mesh.
Space group operators:
 irot       det(A)        alpha          n_x          n_y          n_z        tau_x        tau_y        tau_z
    1     1.000000     0.000000     1.000000     0.000000     0.000000     0.000000     0.000000     0.000000
    2    -1.000000     0.000000     1.000000     0.000000     0.000000     0.000000     0.000000     0.000000
    3     1.000000   120.000000    -0.471405    -0.333333    -0.816497     0.000000     0.000000     0.000000
    4    -1.000000   120.000000    -0.471405    -0.333333    -0.816497     0.000000     0.000000     0.000000
    5     1.000000   120.000000     0.471405     0.333333     0.816497     0.000000     0.000000     0.000000
    6    -1.000000   120.000000     0.471405     0.333333     0.816497     0.000000     0.000000     0.000000
    7     1.000000   180.000000     0.288675     0.816497    -0.500000     0.000000     0.000000     0.000000
    8    -1.000000   180.000000     0.288675     0.816497    -0.500000     0.000000     0.000000     0.000000
    9     1.000000   180.000000     0.577350    -0.816497     0.000000     0.000000     0.000000     0.000000
   10    -1.000000   180.000000     0.577350    -0.816497     0.000000     0.000000     0.000000     0.000000
   11     1.000000   180.000000     0.866025     0.000000    -0.500000     0.000000     0.000000     0.000000
   12    -1.000000   180.000000     0.866025     0.000000    -0.500000     0.000000     0.000000     0.000000
   13     1.000000    90.000000    -0.816497    -0.577350    -0.000000     0.166667     0.000000     0.000000
   14    -1.000000    90.000000    -0.816497    -0.577350    -0.000000     0.166667     0.000000     0.000000
   15     1.000000   180.000000     0.866025     0.000000     0.500000     0.166667     0.000000     0.000000
   16    -1.000000   180.000000     0.866025     0.000000     0.500000     0.166667     0.000000     0.000000
   17     1.000000    90.000000     0.408248    -0.577350     0.707107     0.166667     0.000000     0.000000
   18    -1.000000    90.000000     0.408248    -0.577350     0.707107     0.166667     0.000000     0.000000
   19     1.000000   180.000000     0.816497     0.577350     0.000000     0.000000     0.000000     0.166667
   20    -1.000000   180.000000     0.816497     0.577350     0.000000     0.000000     0.000000     0.166667
   21     1.000000   120.000000     0.942809    -0.333333     0.000000     0.000000     0.000000     0.166667
   22    -1.000000   120.000000     0.942809    -0.333333     0.000000     0.000000     0.000000     0.166667
   23     1.000000   120.000000    -0.000000    -1.000000    -0.000000     0.000000     0.000000     0.166667
   24    -1.000000   120.000000    -0.000000    -1.000000    -0.000000     0.000000     0.000000     0.166667
   25     1.000000    90.000000     0.816497     0.577350    -0.000000     0.000000     0.166667    -0.000000
   26    -1.000000    90.000000     0.816497     0.577350    -0.000000    -0.000000     0.166667     0.000000
   27     1.000000    90.000000     0.408248    -0.577350    -0.707107     0.000000     0.166667    -0.000000
   28    -1.000000    90.000000     0.408248    -0.577350    -0.707107     0.000000     0.166667    -0.000000
   29     1.000000   180.000000     0.288675     0.816497     0.500000     0.000000     0.166667    -0.000000
   30    -1.000000   180.000000     0.288675     0.816497     0.500000    -0.000000     0.166667     0.000000
   31     1.000000   120.000000    -0.000000     1.000000    -0.000000     0.166667     0.000000     0.000000
   32    -1.000000   120.000000    -0.000000     1.000000    -0.000000     0.166667     0.000000     0.000000
   33     1.000000   120.000000     0.471405     0.333333    -0.816497     0.166667     0.000000     0.000000
   34    -1.000000   120.000000     0.471405     0.333333    -0.816497     0.166667     0.000000     0.000000
   35     1.000000   180.000000    -0.408248     0.577350     0.707107     0.166667     0.000000     0.000000
   36    -1.000000   180.000000    -0.408248     0.577350     0.707107     0.166667     0.000000     0.000000
   37     1.000000    90.000000    -0.408248     0.577350    -0.707107     0.000000     0.000000     0.166667
   38    -1.000000    90.000000    -0.408248     0.577350    -0.707107     0.000000     0.000000     0.166667
   39     1.000000   180.000000     0.000000    -0.000000     1.000000     0.000000     0.000000     0.166667
   40    -1.000000   180.000000     0.000000    -0.000000     1.000000     0.000000     0.000000     0.166667
   41     1.000000    90.000000    -0.408248     0.577350     0.707107     0.000000     0.000000     0.166667
   42    -1.000000    90.000000    -0.408248     0.577350     0.707107     0.000000     0.000000     0.166667
   43     1.000000   120.000000    -0.942809     0.333333     0.000000     0.000000     0.166667    -0.000000
   44    -1.000000   120.000000    -0.942809     0.333333     0.000000     0.000000     0.166667    -0.000000
   45     1.000000   180.000000    -0.408248     0.577350    -0.707107    -0.000000     0.166667     0.000000
   46    -1.000000   180.000000    -0.408248     0.577350    -0.707107     0.000000     0.166667    -0.000000
   47     1.000000   120.000000    -0.471405    -0.333333     0.816497    -0.000000     0.166667     0.000000
   48    -1.000000   120.000000    -0.471405    -0.333333     0.816497     0.000000     0.166667    -0.000000
 
 Subroutine IBZKPT returns following result:
 ===========================================
 
 Found      8 irreducible k-points:
 
 Following reciprocal coordinates:
            Coordinates               Weight
  0.000000  0.000000  0.000000      1.000000
  0.250000  0.000000  0.000000      8.000000
  0.500000  0.000000  0.000000      4.000000
  0.250000  0.250000  0.000000      6.000000
  0.500000  0.250000  0.000000     24.000000
 -0.250000  0.250000  0.000000     12.000000
  0.500000  0.500000  0.000000      3.000000
 -0.250000  0.500000  0.250000      6.000000
 
 Following cartesian coordinates:
            Coordinates               Weight
  0.000000  0.000000  0.000000      1.000000
  0.025059 -0.008860  0.000000      8.000000
  0.050118 -0.017719  0.000000      4.000000
  0.025059  0.017719  0.000000      6.000000
  0.050118  0.008860  0.000000     24.000000
 -0.025059  0.035439  0.000000     12.000000
  0.050118  0.035439  0.000000      3.000000
 -0.037588  0.053158  0.021702      6.000000
 


--------------------------------------------------------------------------------------------------------




 Dimension of arrays:
   k-points           NKPTS =      8   k-points in BZ     NKDIM =      8   number of bands    NBANDS=    144
   number of dos      NEDOS =    301   number of ions     NIONS =     54
   non local maximal  LDIM  =      4   non local SUM 2l+1 LMDIM =      8
   total plane-waves  NPLWV = 343000
   max r-space proj   IRMAX =      1   max aug-charges    IRDMAX=  10807
   dimension x,y,z NGX =    70 NGY =   70 NGZ =   70
   dimension x,y,z NGXF=   140 NGYF=  140 NGZF=  140
   support grid    NGXF=   140 NGYF=  140 NGZF=  140
   ions per type =              54
   NGX,Y,Z   is equivalent  to a cutoff of  10.10, 10.10, 10.10 a.u.
   NGXF,Y,Z  is equivalent  to a cutoff of  20.20, 20.20, 20.20 a.u.

 SYSTEM =  Si                                      
 POSCAR =  Si54                                    

 Startparameter for this run:
   NWRITE =      2    write-flag & timer
   PREC   = normal    normal or accurate (medium, high low for compatibility)
   ISTART =      0    job   : 0-new  1-cont  2-samecut
   ICHARG =      2    charge: 1-file 2-atom 10-const
   ISPIN  =      1    spin polarized calculation?
   LNONCOLLINEAR =      F non collinear calculations
   LSORBIT =      F    spin-orbit coupling
   INIWAV =      1    electr: 0-lowe 1-rand  2-diag
   LASPH  =      F    aspherical Exc in radial PAW
   METAGGA=      F    non-selfconsistent MetaGGA calc.

 Electronic Relaxation 1
   ENCUT  =  550.0 eV  40.42 Ry    6.36 a.u.  22.03 22.03 22.03*2*pi/ulx,y,z
   ENINI  =  550.0     initial cutoff
   ENAUG  =  322.1 eV  augmentation charge cutoff
   NELM   =    200;   NELMIN=  2; NELMDL= -5     # of ELM steps 
   EDIFF  = 0.1E-05   stopping-criterion for ELM
   LREAL  =      F    real-space projection
   NLSPLINE    = F    spline interpolate recip. space projectors
   LCOMPAT=      F    compatible to vasp.4.4
   GGA_COMPAT  = T    GGA compatible to vasp.4.4-vasp.4.6
   LMAXPAW     = -100 max onsite density
   LMAXMIX     =    2 max onsite mixed and CHGCAR
   VOSKOWN=      0    Vosko Wilk Nusair interpolation
   ROPT   =    0.00000
 Ionic relaxation
   EDIFFG = -.5E-01   stopping-criterion for IOM
   NSW    =      0    number of steps for IOM
   NBLOCK =      1;   KBLOCK =      1    inner block; outer block 
   IBRION =     -1    ionic relax: 0-MD 1-quasi-New 2-CG
   NFREE  =      1    steps in history (QN), initial steepest desc. (CG)
   ISIF   =      2    stress and relaxation
   IWAVPR =     10    prediction:  0-non 1-charg 2-wave 3-comb
   ISYM   =      2    0-nonsym 1-usesym 2-fastsym
   LCORR  =      T    Harris-Foulkes like correction to forces

   POTIM  = 0.5000    time-step for ionic-motion
   TEIN   =    0.0    initial temperature
   TEBEG  =    0.0;   TEEND  =   0.0 temperature during run
   SMASS  =  -3.00    Nose mass-parameter (am)
   estimated Nose-frequenzy (Omega)   =  0.10E-29 period in steps =****** mass=  -0.303E-26a.u.
   SCALEE = 1.0000    scale energy and forces
   NPACO  =    256;   APACO  = 16.0  distance and # of slots for P.C.
   PSTRESS=    0.0 pullay stress

  Mass of Ions in am
   POMASS =  28.09
  Ionic Valenz
   ZVAL   =   4.00
  Atomic Wigner-Seitz radii
   RWIGS  =  -1.00
  virtual crystal weights 
   VCA    =   1.00
   NELECT =     216.0000    total number of electrons
   NUPDOWN=      -1.0000    fix difference up-down

 DOS related values:
   EMIN   =  10.00;   EMAX   =-10.00  energy-range for DOS
   EFERMI =   0.00
   ISMEAR =     0;   SIGMA  =   0.05  broadening in eV -4-tet -1-fermi 0-gaus

 Electronic relaxation 2 (details)
   IALGO  =     38    algorithm
   LDIAG  =      T    sub-space diagonalisation (order eigenvalues)
   LSUBROT=      F    optimize rotation matrix (better conditioning)
   TURBO    =      0    0=normal 1=particle mesh
   IRESTART =      0    0=no restart 2=restart with 2 vectors
   NREBOOT  =      0    no. of reboots
   NMIN     =      0    reboot dimension
   EREF     =   0.00    reference energy to select bands
   IMIX   =      4    mixing-type and parameters
     AMIX     =   0.20;   BMIX     =  1.00
     AMIX_MAG =   0.80;   BMIX_MAG =  1.00
     AMIN     =   0.10
     WC   =   100.;   INIMIX=   1;  MIXPRE=   1;  MAXMIX= -45

 Intra band minimization:
   WEIMIN = 0.0000     energy-eigenvalue tresh-hold
   EBREAK =  0.17E-08  absolut break condition
   DEPER  =   0.30     relativ break condition  

   TIME   =   0.40     timestep for ELM

  volume/ion in A,a.u.               =      20.02       135.09
  Fermi-wavevector in a.u.,A,eV,Ry     =   0.957088  1.808633 12.463162  0.916017
  Thomas-Fermi vector in A             =   2.086074
 
 Write flags
   LWAVE        =      T    write WAVECAR
   LDOWNSAMPLE  =      F    k-point downsampling of WAVECAR
   LCHARG       =      T    write CHGCAR
   LVTOT        =      F    write LOCPOT, total local potential
   LVHAR        =      F    write LOCPOT, Hartree potential only
   LELF         =      F    write electronic localiz. function (ELF)
   LORBIT       =     10    0 simple, 1 ext, 2 COOP (PROOUT), +10 PAW based schemes


 Dipole corrections
   LMONO  =      F    monopole corrections only (constant potential shift)
   LDIPOL =      F    correct potential (dipole corrections)
   IDIPOL =      0    1-x, 2-y, 3-z, 4-all directions 
   EPSILON=  1.0000000 bulk dielectric constant

 Exchange correlation treatment:
   GGA     =    --    GGA type
   LEXCH   =     8    internal setting for exchange type
   VOSKOWN=      0    Vosko Wilk Nusair interpolation
   LHFCALC =     F    Hartree Fock is set to
   LHFONE  =     F    Hartree Fock one center treatment
   AEXX    =    0.0000 exact exchange contribution

 Linear response parameters
   LEPSILON=     F    determine dielectric tensor
   LRPA    =     F    only Hartree local field effects (RPA)
   LNABLA  =     F    use nabla operator in PAW spheres
   LVEL    =     F    velocity operator in full k-point grid
   LINTERFAST=   F  fast interpolation
   KINTER  =     0    interpolate to denser k-point grid
   CSHIFT  =0.1000    complex shift for real part using Kramers Kronig
   OMEGAMAX=  -1.0    maximum frequency
   DEG_THRESHOLD= 0.2000000E-02 threshold for treating states as degnerate
   RTIME   =   -0.100 relaxation time in fs
  (WPLASMAI=    0.000 imaginary part of plasma frequency in eV, 0.658/RTIME)
   DFIELD  = 0.0000000 0.0000000 0.0000000 field for delta impulse in time
 
 Orbital magnetization related:
   ORBITALMAG=     F  switch on orbital magnetization
   LCHIMAG   =     F  perturbation theory with respect to B field
   DQ        =  0.001000  dq finite difference perturbation B field
   LLRAUG    =     F  two centre corrections for induced B field



--------------------------------------------------------------------------------------------------------


 Static calculation
 charge density and potential will be updated during run
 non-spin polarized calculation
 Variant of blocked Davidson
 Davidson routine will perform the subspace rotation
 perform sub-space diagonalisation
    after iterative eigenvector-optimisation
 modified Broyden-mixing scheme, WC =      100.0
 initial mixing is a Kerker type mixing with AMIX =  0.2000 and BMIX =      1.0000
 Hartree-type preconditioning will be used
 using additional bands           36
 reciprocal scheme for non local part
 use partial core corrections
 calculate Harris-corrections to forces 
   (improved forces if not selfconsistent)
 use gradient corrections 
 use of overlap-Matrix (Vanderbilt PP)
 Gauss-broadening in eV      SIGMA  =   0.05


--------------------------------------------------------------------------------------------------------


  energy-cutoff  :      550.00
  volume of cell :     1080.99
      direct lattice vectors                 reciprocal lattice vectors
     9.976465530  0.000000000  5.759915070     0.100235900 -0.035438742  0.000000000
     3.325488510  9.405901920  5.759915070     0.000000000  0.106316227  0.000000000
     0.000000000  0.000000000 11.519830140    -0.050117950 -0.035438742  0.086806836

  length of vectors
    11.519830124 11.519830136 11.519830140     0.106316227  0.106316227  0.106316227


 
 k-points in units of 2pi/SCALE and weight: pymatgen with grid density = 1000 / numb
   0.00000000  0.00000000  0.00000000       0.016
   0.02505897 -0.00885969  0.00000000       0.125
   0.05011795 -0.01771937  0.00000000       0.062
   0.02505897  0.01771937  0.00000000       0.094
   0.05011795  0.00885969  0.00000000       0.375
  -0.02505897  0.03543874  0.00000000       0.188
   0.05011795  0.03543874  0.00000000       0.047
  -0.03758846  0.05315811  0.02170171       0.094
 
 k-points in reciprocal lattice and weights: pymatgen with grid density = 1000 / numb
   0.00000000  0.00000000  0.00000000       0.016
   0.25000000  0.00000000  0.00000000       0.125
   0.50000000  0.00000000  0.00000000       0.062
   0.25000000  0.25000000  0.00000000       0.094
   0.50000000  0.25000000  0.00000000       0.375
  -0.25000000  0.25000000  0.00000000       0.188
   0.50000000  0.50000000  0.00000000       0.047
  -0.25000000  0.50000000  0.25000000       0.094
 
 position of ions in fractional coordinates (direct lattice) 
   0.29166667  0.29166667  0.29166667
   0.29166667  0.29166667  0.62500000
   0.29166667  0.29166667  0.95833333
   0.29166667  0.62500000  0.29166667
   0.29166667  0.62500000  0.62500000
   0.29166667  0.62500000  0.95833333
   0.29166667  0.95833333  0.29166667
   0.29166667  0.95833333  0.62500000
   0.29166667  0.95833333  0.95833333
   0.62500000  0.29166667  0.29166667
   0.62500000  0.29166667  0.62500000
   0.62500000  0.29166667  0.95833333
   0.62500000  0.62500000  0.29166667
   0.62500000  0.62500000  0.62500000
   0.62500000  0.62500000  0.95833333
   0.62500000  0.95833333  0.29166667
   0.62500000  0.95833333  0.62500000
   0.62500000  0.95833333  0.95833333
   0.95833333  0.29166667  0.29166667
   0.95833333  0.29166667  0.62500000
   0.95833333  0.29166667  0.95833333
   0.95833333  0.62500000  0.29166667
   0.95833333  0.62500000  0.62500000
   0.95833333  0.62500000  0.95833333
   0.95833333  0.95833333  0.29166667
   0.95833333  0.95833333  0.62500000
   0.95833333  0.95833333  0.95833333
   0.04166667  0.04166667  0.04166667
   0.04166667  0.04166667  0.37500000
   0.04166667  0.04166667  0.70833333
   0.04166667  0.37500000  0.04166667
   0.04166667  0.37500000  0.37500000
   0.04166667  0.37500000  0.70833333
   0.04166667  0.70833333  0.04166667
   0.04166667  0.70833333  0.37500000
   0.04166667  0.70833333  0.70833333
   0.37500000  0.04166667  0.04166667
   0.37500000  0.04166667  0.37500000
   0.37500000  0.04166667  0.70833333
   0.37500000  0.37500000  0.04166667
   0.37500000  0.37500000  0.37500000
   0.37500000  0.37500000  0.70833333
   0.37500000  0.70833333  0.04166667
   0.37500000  0.70833333  0.37500000
   0.37500000  0.70833333  0.70833333
   0.70833333  0.04166667  0.04166667
   0.70833333  0.04166667  0.37500000
   0.70833333  0.04166667  0.70833333
   0.70833333  0.37500000  0.04166667
   0.70833333  0.37500000  0.37500000
   0.70833333  0.37500000  0.70833333
   0.70833333  0.70833333  0.04166667
   0.70833333  0.70833333  0.37500000
   0.70833333  0.70833333  0.70833333
 
 position of ions in cartesian coordinates  (Angst):
   3.87973659  2.74338806  6.71990091
   3.87973659  2.74338806 10.55984429
   3.87973659  2.74338806 14.39978767
   4.98823276  5.87868870  8.63987260
   4.98823276  5.87868870 12.47981598
   4.98823276  5.87868870 16.31975937
   6.09672893  9.01398934 10.55984429
   6.09672893  9.01398934 14.39978767
   6.09672893  9.01398934 18.23973106
   7.20522510  2.74338806  8.63987260
   7.20522510  2.74338806 12.47981598
   7.20522510  2.74338806 16.31975937
   8.31372128  5.87868870 10.55984429
   8.31372128  5.87868870 14.39978767
   8.31372128  5.87868870 18.23973106
   9.42221745  9.01398934 12.47981598
   9.42221745  9.01398934 16.31975937
   9.42221745  9.01398934 20.15970275
  10.53071362  2.74338806 10.55984429
  10.53071362  2.74338806 14.39978767
  10.53071362  2.74338806 18.23973106
  11.63920979  5.87868870 12.47981598
  11.63920979  5.87868870 16.31975937
  11.63920979  5.87868870 20.15970275
  12.74770596  9.01398934 14.39978767
  12.74770596  9.01398934 18.23973106
  12.74770596  9.01398934 22.07967444
   0.55424808  0.39191258  0.95998584
   0.55424808  0.39191258  4.79992922
   0.55424808  0.39191258  8.63987260
   1.66274425  3.52721322  2.87995753
   1.66274425  3.52721322  6.71990091
   1.66274425  3.52721322 10.55984430
   2.77124042  6.66251386  4.79992922
   2.77124042  6.66251386  8.63987261
   2.77124042  6.66251386 12.47981599
   3.87973659  0.39191258  2.87995753
   3.87973659  0.39191258  6.71990091
   3.87973659  0.39191258 10.55984430
   4.98823277  3.52721322  4.79992922
   4.98823277  3.52721322  8.63987261
   4.98823277  3.52721322 12.47981599
   6.09672894  6.66251386  6.71990091
   6.09672894  6.66251386 10.55984430
   6.09672894  6.66251386 14.39978768
   7.20522511  0.39191258  4.79992922
   7.20522511  0.39191258  8.63987261
   7.20522511  0.39191258 12.47981599
   8.31372128  3.52721322  6.71990091
   8.31372128  3.52721322 10.55984430
   8.31372128  3.52721322 14.39978768
   9.42221745  6.66251386  8.63987260
   9.42221745  6.66251386 12.47981599
   9.42221745  6.66251386 16.31975937
 


--------------------------------------------------------------------------------------------------------


 k-point  1 :   0.0000 0.0000 0.0000  plane waves:   31415
 k-point  2 :   0.2500 0.0000 0.0000  plane waves:   31608
 k-point  3 :   0.5000 0.0000 0.0000  plane waves:   31638
 k-point  4 :   0.2500 0.2500 0.0000  plane waves:   31695
 k-point  5 :   0.5000 0.2500 0.0000  plane waves:   31649
 k-point  6 :  -0.2500 0.2500 0.0000  plane waves:   31674
 k-point  7 :   0.5000 0.5000 0.0000  plane waves:   31716
 k-point  8 :  -0.2500 0.5000 0.2500  plane waves:   31684

 maximum and minimum number of plane-waves per node :     31716    31415

 maximum number of plane-waves:     31716
 maximum index in each direction: 
   IXMAX=   22   IYMAX=   22   IZMAX=   22
   IXMIN=  -22   IYMIN=  -22   IZMIN=  -22


 serial   3D FFT for wavefunctions
 parallel 3D FFT for charge:
    minimum data exchange during FFTs selected (reduces bandwidth)


 total amount of memory used by VASP MPI-rank0   123398. kBytes
=======================================================================

   base      :      30000. kBytes
   nonl-proj :      43657. kBytes
   fftplans  :       5382. kBytes
   grid      :      19496. kBytes
   one-center:        165. kBytes
   wavefun   :      24698. kBytes
 
     INWAV:  cpu time    0.0000: real time    0.0000
 Broyden mixing: mesh for mixing (old mesh)
   NGX = 45   NGY = 45   NGZ = 45
  (NGX  =140   NGY  =140   NGZ  =140)
  gives a total of  91125 points

 initial charge density was supplied:
 charge density of overlapping atoms calculated
 number of electron     216.0000000 magnetization 
 keeping initial charge density in first step


--------------------------------------------------------------------------------------------------------


 Maximum index for augmentation-charges          503 (set IRDMAX)


--------------------------------------------------------------------------------------------------------


 First call to EWALD:  gamma=   0.173
 Maximum number of real-space cells 3x 3x 3
 Maximum number of reciprocal cells 3x 3x 3

    FEWALD:  cpu time    0.0203: real time    0.0204


--------------------------------------- Iteration      1(   1)  ---------------------------------------


    POTLOK:  cpu time    0.2125: real time    0.2262
    SETDIJ:  cpu time    0.0136: real time    0.0140
     EDDAV:  cpu time    3.8728: real time    3.9111
       DOS:  cpu time    0.0064: real time    0.0078
    --------------------------------------------
      LOOP:  cpu time    4.1054: real time    4.1592

 eigenvalue-minimisations  :  2304
 total energy-change (2. order) : 0.5646637E+03  (-0.8575042E+04)
 number of electron     216.0000000 magnetization 
 augmentation part      216.0000000 magnetization 

 Free energy of the ion-electron system (eV)
  ---------------------------------------------------
  alpha Z        PSCENC =        90.80688887
  Ewald energy   TEWEN  =     -6170.64793459
  -Hartree energ DENC   =      -297.14116512
  -exchange      EXHF   =         0.00000000
  -V(xc)+E(xc)   XCENC  =      -502.27972397
  PAW double counting   =      4758.68517920    -3808.64796066
  entropy T*S    EENTRO =        -0.02363964
  eigenvalues    EBANDS =       928.32269940
  atomic energy  EATOM  =      5565.58933440
  Solvation  Ediel_sol  =         0.00000000
  ---------------------------------------------------
  free energy    TOTEN  =       564.66367790 eV

  energy without entropy =      564.68731753  energy(sigma->0) =      564.67549772


--------------------------------------------------------------------------------------------------------




--------------------------------------- Iteration      1(   2)  ---------------------------------------


     EDDAV:  cpu time    4.2540: real time    4.6662
       DOS:  cpu time    0.0100: real time    0.0100
    --------------------------------------------
      LOOP:  cpu time    4.2640: real time    4.6762

 eigenvalue-minimisations  :  2832
 total energy-change (2. order) :-0.8126198E+03  (-0.7813440E+03)
 number of electron     216.0000000 magnetization 
 augmentation part      216.0000000 magnetization 

 Free energy of the ion-electron system (eV)
  ---------------------------------------------------
  alpha Z        PSCENC =        90.80688887
  Ewald energy   TEWEN  =     -6170.64793459
  -Hartree energ DENC   =      -297.14116512
  -exchange      EXHF   =         0.00000000
  -V(xc)+E(xc)   XCENC  =      -502.27972397
  PAW double counting   =      4758.68517920    -3808.64796066
  entropy T*S    EENTRO =        -0.00000000
  eigenvalues    EBANDS =       115.67924180
  atomic energy  EATOM  =      5565.58933440
  Solvation  Ediel_sol  =         0.00000000
  ---------------------------------------------------
  free energy    TOTEN  =      -247.95614007 eV

  energy without entropy =     -247.95614007  energy(sigma->0) =     -247.95614007


--------------------------------------------------------------------------------------------------------




--------------------------------------- Iteration      1(   3)  ---------------------------------------


     EDDAV:  cpu time    4.1197: real time    4.1567
       DOS:  cpu time    0.0054: real time    0.0055
    --------------------------------------------
      LOOP:  cpu time    4.1252: real time    4.1622

 eigenvalue-minimisations  :  2880
 total energy-change (2. order) :-0.4874698E+02  (-0.4823645E+02)
 number of electron     216.0000000 magnetization 
 augmentation part      216.0000000 magnetization 

 Free energy of the ion-electron system (eV)
  ---------------------------------------------------
  alpha Z        PSCENC =        90.80688887
  Ewald energy   TEWEN  =     -6170.64793459
  -Hartree energ DENC   =      -297.14116512
  -exchange      EXHF   =         0.00000000
  -V(xc)+E(xc)   XCENC  =      -502.27972397
  PAW double counting   =      4758.68517920    -3808.64796066
  entropy T*S    EENTRO =        -0.00000000
  eigenvalues    EBANDS =        66.93225764
  atomic energy  EATOM  =      5565.58933440
  Solvation  Ediel_sol  =         0.00000000
  ---------------------------------------------------
  free energy    TOTEN  =      -296.70312423 eV

  energy without entropy =     -296.70312423  energy(sigma->0) =     -296.70312423


--------------------------------------------------------------------------------------------------------




--------------------------------------- Iteration      1(   4)  ---------------------------------------


     EDDAV:  cpu time    4.3255: real time    4.3686
       DOS:  cpu time    0.0060: real time    0.0060
    --------------------------------------------
      LOOP:  cpu time    4.3315: real time    4.3747

 eigenvalue-minimisations  :  2904
 total energy-change (2. order) :-0.9471913E+00  (-0.9433187E+00)
 number of electron     216.0000000 magnetization 
 augmentation part      216.0000000 magnetization 

 Free energy of the ion-electron system (eV)
  ---------------------------------------------------
  alpha Z        PSCENC =        90.80688887
  Ewald energy   TEWEN  =     -6170.64793459
  -Hartree energ DENC   =      -297.14116512
  -exchange      EXHF   =         0.00000000
  -V(xc)+E(xc)   XCENC  =      -502.27972397
  PAW double counting   =      4758.68517920    -3808.64796066
  entropy T*S    EENTRO =        -0.00000000
  eigenvalues    EBANDS =        65.98506638
  atomic energy  EATOM  =      5565.58933440
  Solvation  Ediel_sol  =         0.00000000
  ---------------------------------------------------
  free energy    TOTEN  =      -297.65031548 eV

  energy without entropy =     -297.65031548  energy(sigma->0) =     -297.65031548


--------------------------------------------------------------------------------------------------------




--------------------------------------- Iteration      1(   5)  ---------------------------------------


     EDDAV:  cpu time    4.0498: real time    4.0845
       DOS:  cpu time    0.0052: real time    0.0052
    CHARGE:  cpu time    0.3026: real time    0.3061
    MIXING:  cpu time    0.0065: real time    0.0068
    --------------------------------------------
      LOOP:  cpu time    4.3641: real time    4.4026

 eigenvalue-minimisations  :  2712
 total energy-change (2. order) :-0.2000835E-01  (-0.1999789E-01)
 number of electron     215.9999999 magnetization 
 augmentation part      -12.7093860 magnetization 

 Broyden mixing:
  rms(total) = 0.25402E+01    rms(broyden)= 0.25402E+01
  rms(prec ) = 0.29096E+01
  weight for this iteration     100.00

 Free energy of the ion-electron system (eV)
  ---------------------------------------------------
  alpha Z        PSCENC =        90.80688887
  Ewald energy   TEWEN  =     -6170.64793459
  -Hartree energ DENC   =      -297.14116512
  -exchange      EXHF   =         0.00000000
  -V(xc)+E(xc)   XCENC  =      -502.27972397
  PAW double counting   =      4758.68517920    -3808.64796066
  entropy T*S    EENTRO =        -0.00000000
  eigenvalues    EBANDS =        65.96505803
  atomic energy  EATOM  =      5565.58933440
  Solvation  Ediel_sol  =         0.00000000
  ---------------------------------------------------
  free energy    TOTEN  =      -297.67032383 eV

  energy without entropy =     -297.67032383  energy(sigma->0) =     -297.67032383


--------------------------------------------------------------------------------------------------------




--------------------------------------- Iteration      1(   6)  ---------------------------------------


    POTLOK:  cpu time    0.0845: real time    0.0855
    SETDIJ:  cpu time    0.0055: real time    0.0056
     EDDAV:  cpu time    5.6227: real time    5.6812
       DOS:  cpu time    0.1538: real time    0.1557
    CHARGE:  cpu time    0.4718: real time    0.4779
    MIXING:  cpu time    0.0415: real time    0.0421
    --------------------------------------------
      LOOP:  cpu time    6.3800: real time    6.4479

 eigenvalue-minimisations  :  2808
 total energy-change (2. order) : 0.1886551E+01  (-0.4626990E-01)
 number of electron     215.9999999 magnetization 
 augmentation part      -12.6324273 magnetization 

 Broyden mixing:
  rms(total) = 0.20492E+01    rms(broyden)= 0.20492E+01
  rms(prec ) = 0.23393E+01
  weight for this iteration     100.00

 eigenvalues of (default mixing * dielectric matrix)
  average eigenvalue GAMMA=   5.1606
  5.1606

 Free energy of the ion-electron system (eV)
  ---------------------------------------------------
  alpha Z        PSCENC =        90.80688887
  Ewald energy   TEWEN  =     -6170.64793459
  -Hartree energ DENC   =      -316.69615419
  -exchange      EXHF   =         0.00000000
  -V(xc)+E(xc)   XCENC  =      -499.19188873
  PAW double counting   =      7189.41914414    -6240.86078097
  entropy T*S    EENTRO =        -0.00000000
  eigenvalues    EBANDS =        85.79761844
  atomic energy  EATOM  =      5565.58933440
  Solvation  Ediel_sol  =         0.00000000
  ---------------------------------------------------
  free energy    TOTEN  =      -295.78377263 eV

  energy without entropy =     -295.78377263  energy(sigma->0) =     -295.78377263


--------------------------------------------------------------------------------------------------------




--------------------------------------- Iteration      1(   7)  ---------------------------------------


    POTLOK:  cpu time    0.2738: real time    0.2770
    SETDIJ:  cpu time    0.1262: real time    0.1280
     EDDAV:  cpu time    4.4547: real time    4.5043
       DOS:  cpu time    0.1538: real time    0.1557
    CHARGE:  cpu time    0.5106: real time    0.5178
    MIXING:  cpu time    0.0280: real time    0.0283
    --------------------------------------------
      LOOP:  cpu time    5.5471: real time    5.6111

 eigenvalue-minimisations  :  2544
 total energy-change (2. order) : 0.3009742E+01  (-0.7419322E+00)
 number of electron     216.0000000 magnetization 
 augmentation part      -12.3479065 magnetization 

 Broyden mixing:
  rms(total) = 0.12521E+00    rms(broyden)= 0.12521E+00
  rms(prec ) = 0.16135E+00
  weight for this iteration     100.00

 eigenvalues of (default mixing * dielectric matrix)
  average eigenvalue GAMMA=   4.4044
  4.4044  4.4044

 Free energy of the ion-electron system (eV)
  ---------------------------------------------------
  alpha Z        PSCENC =        90.80688887
  Ewald energy   TEWEN  =     -6170.64793459
  -Hartree energ DENC   =      -408.14577770
  -exchange      EXHF   =         0.00000000
  -V(xc)+E(xc)   XCENC  =      -484.69376424
  PAW double counting   =     23971.37346945   -23028.73769873
  entropy T*S    EENTRO =        -0.00000000
  eigenvalues    EBANDS =       171.68145164
  atomic energy  EATOM  =      5565.58933440
  Solvation  Ediel_sol  =         0.00000000
  ---------------------------------------------------
  free energy    TOTEN  =      -292.77403090 eV

  energy without entropy =     -292.77403090  energy(sigma->0) =     -292.77403090


--------------------------------------------------------------------------------------------------------




--------------------------------------- Iteration      1(   8)  ---------------------------------------


    POTLOK:  cpu time    0.0834: real time    0.0848
    SETDIJ:  cpu time    0.1385: real time    0.1401
     EDDAV:  cpu time    4.4197: real time    4.4666
       DOS:  cpu time    0.0070: real time    0.0070
    CHARGE:  cpu time    0.3184: real time    0.3205
    MIXING:  cpu time    0.0449: real time    0.0451
    --------------------------------------------
      LOOP:  cpu time    5.0120: real time    5.0642

 eigenvalue-minimisations  :  2760
 total energy-change (2. order) :-0.1484433E-01  (-0.3325426E-01)
 number of electron     216.0000000 magnetization 
 augmentation part      -12.3772201 magnetization 

 Broyden mixing:
  rms(total) = 0.64202E-01    rms(broyden)= 0.64202E-01
  rms(prec ) = 0.75637E-01
  weight for this iteration     100.00

 eigenvalues of (default mixing * dielectric matrix)
  average eigenvalue GAMMA=   3.3205
  4.5583  4.5583  0.8450

 Free energy of the ion-electron system (eV)
  ---------------------------------------------------
  alpha Z        PSCENC =        90.80688887
  Ewald energy   TEWEN  =     -6170.64793459
  -Hartree energ DENC   =      -400.80450209
  -exchange      EXHF   =         0.00000000
  -V(xc)+E(xc)   XCENC  =      -485.52128289
  PAW double counting   =     23337.83556413   -22394.10613202
  entropy T*S    EENTRO =        -0.00000000
  eigenvalues    EBANDS =       164.05918897
  atomic energy  EATOM  =      5565.58933440
  Solvation  Ediel_sol  =         0.00000000
  ---------------------------------------------------
  free energy    TOTEN  =      -292.78887523 eV

  energy without entropy =     -292.78887523  energy(sigma->0) =     -292.78887523


--------------------------------------------------------------------------------------------------------




--------------------------------------- Iteration      1(   9)  ---------------------------------------


    POTLOK:  cpu time    0.0837: real time    0.0873
    SETDIJ:  cpu time    0.0508: real time    0.0511
     EDDAV:  cpu time    3.8916: real time    3.9231
       DOS:  cpu time    0.0066: real time    0.0066
    CHARGE:  cpu time    0.2958: real time    0.2976
    MIXING:  cpu time    0.0167: real time    0.0168
    --------------------------------------------
      LOOP:  cpu time    4.3452: real time    4.3826

 eigenvalue-minimisations  :  2736
 total energy-change (2. order) :-0.1315214E-01  (-0.1385183E-02)
 number of electron     216.0000000 magnetization 
 augmentation part      -12.3889280 magnetization 

 Broyden mixing:
  rms(total) = 0.39049E-01    rms(broyden)= 0.39049E-01
  rms(prec ) = 0.43197E-01
  weight for this iteration     100.00

 eigenvalues of (default mixing * dielectric matrix)
  average eigenvalue GAMMA=   2.7881
  4.3752  4.3752  1.2010  1.2010

 Free energy of the ion-electron system (eV)
  ---------------------------------------------------
  alpha Z        PSCENC =        90.80688887
  Ewald energy   TEWEN  =     -6170.64793459
  -Hartree energ DENC   =      -401.38850569
  -exchange      EXHF   =         0.00000000
  -V(xc)+E(xc)   XCENC  =      -485.28708958
  PAW double counting   =     23756.27265855   -22812.30085460
  entropy T*S    EENTRO =        -0.00000000
  eigenvalues    EBANDS =       164.15347527
  atomic energy  EATOM  =      5565.58933440
  Solvation  Ediel_sol  =         0.00000000
  ---------------------------------------------------
  free energy    TOTEN  =      -292.80202737 eV

  energy without entropy =     -292.80202737  energy(sigma->0) =     -292.80202737


--------------------------------------------------------------------------------------------------------




--------------------------------------- Iteration      1(  10)  ---------------------------------------


    POTLOK:  cpu time    0.0869: real time    0.0879
    SETDIJ:  cpu time    0.0037: real time    0.0037
     EDDAV:  cpu time    4.1749: real time    4.2096
       DOS:  cpu time    0.0071: real time    0.0071
    CHARGE:  cpu time    0.2943: real time    0.2963
    MIXING:  cpu time    0.0109: real time    0.0110
    --------------------------------------------
      LOOP:  cpu time    4.5778: real time    4.6156

 eigenvalue-minimisations  :  2928
 total energy-change (2. order) :-0.1637674E-02  (-0.5892841E-04)
 number of electron     216.0000000 magnetization 
 augmentation part      -12.3867835 magnetization 

 Broyden mixing:
  rms(total) = 0.25022E-01    rms(broyden)= 0.25022E-01
  rms(prec ) = 0.29577E-01
  weight for this iteration     100.00

 eigenvalues of (default mixing * dielectric matrix)
  average eigenvalue GAMMA=   3.5767
  6.4362  5.2679  4.1712  1.1170  0.8911

 Free energy of the ion-electron system (eV)
  ---------------------------------------------------
  alpha Z        PSCENC =        90.80688887
  Ewald energy   TEWEN  =     -6170.64793459
  -Hartree energ DENC   =      -401.88621585
  -exchange      EXHF   =         0.00000000
  -V(xc)+E(xc)   XCENC  =      -485.23502709
  PAW double counting   =     23549.97725901   -22606.06715955
  entropy T*S    EENTRO =        -0.00000000
  eigenvalues    EBANDS =       164.65918976
  atomic energy  EATOM  =      5565.58933440
  Solvation  Ediel_sol  =         0.00000000
  ---------------------------------------------------
  free energy    TOTEN  =      -292.80366505 eV

  energy without entropy =     -292.80366505  energy(sigma->0) =     -292.80366505


--------------------------------------------------------------------------------------------------------




--------------------------------------- Iteration      1(  11)  ---------------------------------------


    POTLOK:  cpu time    0.0846: real time    0.0856
    SETDIJ:  cpu time    0.0038: real time    0.0038
     EDDAV:  cpu time    4.6813: real time    4.7245
       DOS:  cpu time    0.1507: real time    0.1527
    CHARGE:  cpu time    0.5144: real time    0.5205
    MIXING:  cpu time    0.2843: real time    0.2878
    --------------------------------------------
      LOOP:  cpu time    5.7189: real time    5.7749

 eigenvalue-minimisations  :  2664
 total energy-change (2. order) :-0.3928379E-02  (-0.6536142E-03)
 number of electron     216.0000000 magnetization 
 augmentation part      -12.3887052 magnetization 

 Broyden mixing:
  rms(total) = 0.10577E-01    rms(broyden)= 0.10577E-01
  rms(prec ) = 0.10742E-01
  weight for this iteration     100.00

 eigenvalues of (default mixing * dielectric matrix)
  average eigenvalue GAMMA=   2.9822
  5.9182  4.5202  4.5202  0.8900  1.0222  1.0222

 Free energy of the ion-electron system (eV)
  ---------------------------------------------------
  alpha Z        PSCENC =        90.80688887
  Ewald energy   TEWEN  =     -6170.64793459
  -Hartree energ DENC   =      -402.73530343
  -exchange      EXHF   =         0.00000000
  -V(xc)+E(xc)   XCENC  =      -485.05181824
  PAW double counting   =     23378.19039387   -22434.19137254
  entropy T*S    EENTRO =        -0.00000000
  eigenvalues    EBANDS =       165.23221824
  atomic energy  EATOM  =      5565.58933440
  Solvation  Ediel_sol  =         0.00000000
  ---------------------------------------------------
  free energy    TOTEN  =      -292.80759343 eV

  energy without entropy =     -292.80759343  energy(sigma->0) =     -292.80759343


--------------------------------------------------------------------------------------------------------




--------------------------------------- Iteration      1(  12)  ---------------------------------------


    POTLOK:  cpu time    0.0732: real time    0.0744
    SETDIJ:  cpu time    0.2416: real time    0.2441
     EDDAV:  cpu time    4.9709: real time    5.0224
       DOS:  cpu time    0.2685: real time    0.2727
    CHARGE:  cpu time    0.6581: real time    0.6673
    MIXING:  cpu time    0.2688: real time    0.2721
    --------------------------------------------
      LOOP:  cpu time    6.4813: real time    6.5530

 eigenvalue-minimisations  :  2760
 total energy-change (2. order) : 0.3647761E-05  (-0.9783395E-05)
 number of electron     216.0000000 magnetization 
 augmentation part      -12.3888966 magnetization 

 Broyden mixing:
  rms(total) = 0.25923E-02    rms(broyden)= 0.25923E-02
  rms(prec ) = 0.27663E-02
  weight for this iteration     100.00

 eigenvalues of (default mixing * dielectric matrix)
  average eigenvalue GAMMA=   3.3660
  6.5049  5.3845  4.7731  3.9644  0.9944  0.9704  0.9704

 Free energy of the ion-electron system (eV)
  ---------------------------------------------------
  alpha Z        PSCENC =        90.80688887
  Ewald energy   TEWEN  =     -6170.64793459
  -Hartree energ DENC   =      -402.79055851
  -exchange      EXHF   =         0.00000000
  -V(xc)+E(xc)   XCENC  =      -485.04571590
  PAW double counting   =     23449.55118351   -22505.56168010
  entropy T*S    EENTRO =        -0.00000000
  eigenvalues    EBANDS =       165.29089254
  atomic energy  EATOM  =      5565.58933440
  Solvation  Ediel_sol  =         0.00000000
  ---------------------------------------------------
  free energy    TOTEN  =      -292.80758978 eV

  energy without entropy =     -292.80758978  energy(sigma->0) =     -292.80758978


--------------------------------------------------------------------------------------------------------




--------------------------------------- Iteration      1(  13)  ---------------------------------------


    POTLOK:  cpu time    0.1434: real time    0.1452
    SETDIJ:  cpu time    0.0748: real time    0.0754
     EDDAV:  cpu time    4.6664: real time    4.7162
       DOS:  cpu time    0.0070: real time    0.0070
    CHARGE:  cpu time    0.2948: real time    0.2967
    MIXING:  cpu time    0.0132: real time    0.0134
    --------------------------------------------
      LOOP:  cpu time    5.1996: real time    5.2540

 eigenvalue-minimisations  :  2736
 total energy-change (2. order) :-0.2817874E-04  (-0.3683053E-05)
 number of electron     216.0000000 magnetization 
 augmentation part      -12.3883697 magnetization 

 Broyden mixing:
  rms(total) = 0.23115E-02    rms(broyden)= 0.23115E-02
  rms(prec ) = 0.23463E-02
  weight for this iteration     100.00

 eigenvalues of (default mixing * dielectric matrix)
  average eigenvalue GAMMA=   3.0930
  6.4954  5.3799  4.5415  4.5415  0.9852  0.9852  0.9077  0.9077

 Free energy of the ion-electron system (eV)
  ---------------------------------------------------
  alpha Z        PSCENC =        90.80688887
  Ewald energy   TEWEN  =     -6170.64793459
  -Hartree energ DENC   =      -402.88717161
  -exchange      EXHF   =         0.00000000
  -V(xc)+E(xc)   XCENC  =      -485.04263035
  PAW double counting   =     23447.86576788   -22503.87790356
  entropy T*S    EENTRO =        -0.00000000
  eigenvalues    EBANDS =       165.38603100
  atomic energy  EATOM  =      5565.58933440
  Solvation  Ediel_sol  =         0.00000000
  ---------------------------------------------------
  free energy    TOTEN  =      -292.80761796 eV

  energy without entropy =     -292.80761796  energy(sigma->0) =     -292.80761796


--------------------------------------------------------------------------------------------------------




--------------------------------------- Iteration      1(  14)  ---------------------------------------


    POTLOK:  cpu time    0.0777: real time    0.0787
    SETDIJ:  cpu time    0.0098: real time    0.0099
     EDDAV:  cpu time    3.7785: real time    3.8117
       DOS:  cpu time    0.0071: real time    0.0071
    CHARGE:  cpu time    0.2944: real time    0.2962
    MIXING:  cpu time    0.0085: real time    0.0086
    --------------------------------------------
      LOOP:  cpu time    4.1760: real time    4.2122

 eigenvalue-minimisations  :  2256
 total energy-change (2. order) : 0.9735741E-05  (-0.2258625E-06)
 number of electron     216.0000000 magnetization 
 augmentation part      -12.3885140 magnetization 

 Broyden mixing:
  rms(total) = 0.23648E-03    rms(broyden)= 0.23648E-03
  rms(prec ) = 0.24309E-03
  weight for this iteration     100.00

 eigenvalues of (default mixing * dielectric matrix)
  average eigenvalue GAMMA=   3.0601
  6.3941  5.2521  4.8266  4.7154  2.3835  1.0448  0.9876  0.9686  0.9686

 Free energy of the ion-electron system (eV)
  ---------------------------------------------------
  alpha Z        PSCENC =        90.80688887
  Ewald energy   TEWEN  =     -6170.64793459
  -Hartree energ DENC   =      -402.85895985
  -exchange      EXHF   =         0.00000000
  -V(xc)+E(xc)   XCENC  =      -485.04618996
  PAW double counting   =     23466.03988989   -22522.04411751
  entropy T*S    EENTRO =        -0.00000000
  eigenvalues    EBANDS =       165.35348053
  atomic energy  EATOM  =      5565.58933440
  Solvation  Ediel_sol  =         0.00000000
  ---------------------------------------------------
  free energy    TOTEN  =      -292.80760822 eV

  energy without entropy =     -292.80760822  energy(sigma->0) =     -292.80760822


--------------------------------------------------------------------------------------------------------




--------------------------------------- Iteration      1(  15)  ---------------------------------------


    POTLOK:  cpu time    0.0865: real time    0.0875
    SETDIJ:  cpu time    0.0040: real time    0.0040
     EDDAV:  cpu time    2.9046: real time    2.9299
       DOS:  cpu time    0.0061: real time    0.0061
    --------------------------------------------
      LOOP:  cpu time    3.0011: real time    3.0274

 eigenvalue-minimisations  :  1728
 total energy-change (2. order) : 0.1356784E-06  (-0.1462543E-07)
 number of electron     216.0000000 magnetization 
 augmentation part      -12.3885140 magnetization 

 Free energy of the ion-electron system (eV)
  ---------------------------------------------------
  alpha Z        PSCENC =        90.80688887
  Ewald energy   TEWEN  =     -6170.64793459
  -Hartree energ DENC   =      -402.85911414
  -exchange      EXHF   =         0.00000000
  -V(xc)+E(xc)   XCENC  =      -485.04587260
  PAW double counting   =     23470.49769420   -22526.50178663
  entropy T*S    EENTRO =        -0.00000000
  eigenvalues    EBANDS =       165.35318241
  atomic energy  EATOM  =      5565.58933440
  Solvation  Ediel_sol  =         0.00000000
  ---------------------------------------------------
  free energy    TOTEN  =      -292.80760809 eV

  energy without entropy =     -292.80760809  energy(sigma->0) =     -292.80760809


--------------------------------------------------------------------------------------------------------




 average (electrostatic) potential at core
  the test charge radii are     0.9892
  (the norm of the test charge is              1.0000)
       1 -83.2484       2 -83.2484       3 -83.2484       4 -83.2484       5 -83.2484
       6 -83.2484       7 -83.2484       8 -83.2484       9 -83.2484      10 -83.2484
      11 -83.2484      12 -83.2484      13 -83.2484      14 -83.2484      15 -83.2484
      16 -83.2484      17 -83.2484      18 -83.2484      19 -83.2484      20 -83.2484
      21 -83.2484      22 -83.2484      23 -83.2484      24 -83.2484      25 -83.2484
      26 -83.2484      27 -83.2484      28 -83.2484      29 -83.2484      30 -83.2484
      31 -83.2484      32 -83.2484      33 -83.2484      34 -83.2484      35 -83.2484
      36 -83.2484      37 -83.2484      38 -83.2484      39 -83.2484      40 -83.2484
      41 -83.2484      42 -83.2484      43 -83.2484      44 -83.2484      45 -83.2484
      46 -83.2484      47 -83.2484      48 -83.2484      49 -83.2484      50 -83.2484
      51 -83.2484      52 -83.2484      53 -83.2484      54 -83.2484
 
 
 
 E-fermi :   6.0697     XC(G=0):  -9.4095     alpha+bet :-11.9812


 k-point     1 :       0.0000    0.0000    0.0000
  band No.  band energies     occupation 
      1      -6.1313      2.00000
      2      -4.7543      2.00000
      3      -4.7543      2.00000
      4      -4.7543      2.00000
      5      -4.7543      2.00000
      6      -4.7543      2.00000
      7      -4.7543      2.00000
      8      -4.7543      2.00000
      9      -4.7543      2.00000
     10      -4.2267      2.00000
     11      -4.2267      2.00000
     12      -4.2267      2.00000
     13      -4.2267      2.00000
     14      -4.2267      2.00000
     15      -4.2267      2.00000
     16      -2.8668      2.00000
     17      -2.8668      2.00000
     18      -2.8668      2.00000
     19      -2.8668      2.00000
     20      -2.8668      2.00000
     21      -2.8668      2.00000
     22      -2.8668      2.00000
     23      -2.8668      2.00000
     24      -2.8668      2.00000
     25      -2.8668      2.00000
     26      -2.8668      2.00000
     27      -2.8668      2.00000
     28      -0.9401      2.00000
     29      -0.9401      2.00000
     30      -0.9401      2.00000
     31      -0.9401      2.00000
     32      -0.9401      2.00000
     33      -0.9401      2.00000
     34      -0.9401      2.00000
     35      -0.9401      2.00000
     36      -0.9401      2.00000
     37      -0.9401      2.00000
     38      -0.9401      2.00000
     39      -0.9401      2.00000
     40       0.4959      2.00000
     41       0.4959      2.00000
     42       0.4959      2.00000
     43       0.4959      2.00000
     44       0.4959      2.00000
     45       0.4959      2.00000
     46       0.4959      2.00000
     47       0.4959      2.00000
     48       0.8193      2.00000
     49       0.8193      2.00000
     50       0.8193      2.00000
     51       0.8193      2.00000
     52       0.8193      2.00000
     53       0.8193      2.00000
     54       1.4175      2.00000
     55       1.4175      2.00000
     56       1.4175      2.00000
     57       1.4175      2.00000
     58       1.4175      2.00000
     59       1.4175      2.00000
     60       1.4175      2.00000
     61       1.4175      2.00000
     62       1.4175      2.00000
     63       1.4175      2.00000
     64       1.4175      2.00000
     65       1.4175      2.00000
     66       3.4120      2.00000
     67       3.4120      2.00000
     68       3.4120      2.00000
     69       3.4120      2.00000
     70       3.4120      2.00000
     71       3.4120      2.00000
     72       3.4120      2.00000
     73       3.4120      2.00000
     74       3.4120      2.00000
     75       3.4120      2.00000
     76       3.4120      2.00000
     77       3.4120      2.00000
     78       3.7177      2.00000
     79       3.7177      2.00000
     80       3.7177      2.00000
     81       3.7177      2.00000
     82       3.7177      2.00000
     83       3.7177      2.00000
     84       3.7177      2.00000
     85       3.7177      2.00000
     86       3.7177      2.00000
     87       3.7177      2.00000
     88       3.7177      2.00000
     89       3.7177      2.00000
     90       4.8280      2.00000
     91       4.8280      2.00000
     92       4.8280      2.00000
     93       4.8280      2.00000
     94       4.8280      2.00000
     95       4.8280      2.00000
     96       4.8280      2.00000
     97       4.8280      2.00000
     98       4.8280      2.00000
     99       4.8280      2.00000
    100       4.8280      2.00000
    101       4.8280      2.00000
    102       4.8280      2.00000
    103       4.8280      2.00000
    104       4.8280      2.00000
    105       4.8280      2.00000
    106       5.8268      2.00000
    107       5.8268      2.00000
    108       5.8268      2.00000
    109       6.5554      0.00000
    110       6.5554      0.00000
    111       6.5554      0.00000
    112       6.5554      0.00000
    113       6.5554      0.00000
    114       6.5554      0.00000
    115       7.3953      0.00000
    116       7.3953      0.00000
    117       7.3953      0.00000
    118       7.3953      0.00000
    119       7.3953      0.00000
    120       7.3953      0.00000
    121       7.3953      0.00000
    122       7.3953      0.00000
    123       7.3953      0.00000
    124       7.3953      0.00000
    125       7.3953      0.00000
    126       7.3953      0.00000
    127       7.5934      0.00000
    128       7.5934      0.00000
    129       7.5934      0.00000
    130       7.5934      0.00000
    131       7.5934      0.00000
    132       7.5934      0.00000
    133       7.5934      0.00000
    134       7.5934      0.00000
    135       7.8195      0.00000
    136       7.8195      0.00000
    137       7.8195      0.00000
    138       7.8195      0.00000
    139       7.8195      0.00000
    140       7.8195      0.00000
    141       8.3926      0.00000
    142       8.3926      0.00000
    143       8.3926      0.00000
    144       9.2022      0.00000

 k-point     2 :       0.2500    0.0000    0.0000
  band No.  band energies     occupation 
      1      -6.0402      2.00000
      2      -5.3314      2.00000
      3      -4.8787      2.00000
      4      -4.8787      2.00000
      5      -4.8787      2.00000
      6      -4.6125      2.00000
      7      -4.6125      2.00000
      8      -4.6125      2.00000
      9      -4.4650      2.00000
     10      -4.4650      2.00000
     11      -4.4650      2.00000
     12      -4.1338      2.00000
     13      -3.6920      2.00000
     14      -3.6920      2.00000
     15      -3.6920      2.00000
     16      -3.4651      2.00000
     17      -3.4651      2.00000
     18      -3.4651      2.00000
     19      -2.8618      2.00000
     20      -2.8618      2.00000
     21      -2.8618      2.00000
     22      -2.8618      2.00000
     23      -2.8618      2.00000
     24      -2.8618      2.00000
     25      -2.5938      2.00000
     26      -2.5938      2.00000
     27      -2.5938      2.00000
     28      -1.2264      2.00000
     29      -1.2264      2.00000
     30      -1.2264      2.00000
     31      -0.9775      2.00000
     32      -0.9775      2.00000
     33      -0.9775      2.00000
     34      -0.9775      2.00000
     35      -0.9775      2.00000
     36      -0.9775      2.00000
     37      -0.6338      2.00000
     38      -0.4729      2.00000
     39      -0.4729      2.00000
     40      -0.4729      2.00000
     41       0.0334      2.00000
     42       0.0334      2.00000
     43       0.0334      2.00000
     44       0.1140      2.00000
     45       0.1140      2.00000
     46       0.1140      2.00000
     47       0.9640      2.00000
     48       0.9640      2.00000
     49       0.9640      2.00000
     50       1.4029      2.00000
     51       1.4029      2.00000
     52       1.4029      2.00000
     53       1.5927      2.00000
     54       1.5927      2.00000
     55       1.5927      2.00000
     56       1.5927      2.00000
     57       1.5927      2.00000
     58       1.5927      2.00000
     59       1.6194      2.00000
     60       1.6194      2.00000
     61       1.6194      2.00000
     62       1.8134      2.00000
     63       1.8134      2.00000
     64       1.8134      2.00000
     65       1.9028      2.00000
     66       2.9262      2.00000
     67       2.9262      2.00000
     68       2.9262      2.00000
     69       3.2695      2.00000
     70       3.2695      2.00000
     71       3.2695      2.00000
     72       3.4074      2.00000
     73       3.4074      2.00000
     74       3.4074      2.00000
     75       3.4074      2.00000
     76       3.4074      2.00000
     77       3.4074      2.00000
     78       3.4293      2.00000
     79       3.4293      2.00000
     80       3.4293      2.00000
     81       3.4741      2.00000
     82       3.4741      2.00000
     83       3.4741      2.00000
     84       3.6929      2.00000
     85       3.6929      2.00000
     86       3.6929      2.00000
     87       3.9795      2.00000
     88       3.9795      2.00000
     89       3.9795      2.00000
     90       4.1090      2.00000
     91       4.1090      2.00000
     92       4.1090      2.00000
     93       4.5116      2.00000
     94       4.5116      2.00000
     95       4.5116      2.00000
     96       4.5489      2.00000
     97       4.5489      2.00000
     98       4.5489      2.00000
     99       4.6798      2.00000
    100       4.6798      2.00000
    101       4.8353      2.00000
    102       4.8353      2.00000
    103       4.8353      2.00000
    104       4.9695      2.00000
    105       5.0683      2.00000
    106       5.0683      2.00000
    107       5.6834      2.00000
    108       5.6834      2.00000
    109       6.7174      0.00000
    110       6.7174      0.00000
    111       6.7174      0.00000
    112       7.0424      0.00000
    113       7.0424      0.00000
    114       7.0424      0.00000
    115       7.0680      0.00000
    116       7.0680      0.00000
    117       7.0680      0.00000
    118       7.4250      0.00000
    119       7.6894      0.00000
    120       7.6894      0.00000
    121       7.6894      0.00000
    122       7.8523      0.00000
    123       7.8523      0.00000
    124       7.8523      0.00000
    125       7.8594      0.00000
    126       7.9654      0.00000
    127       7.9654      0.00000
    128       7.9654      0.00000
    129       7.9654      0.00000
    130       7.9654      0.00000
    131       7.9654      0.00000
    132       8.0393      0.00000
    133       8.0393      0.00000
    134       8.0393      0.00000
    135       8.1240      0.00000
    136       8.1240      0.00000
    137       8.1240      0.00000
    138       8.4379      0.00000
    139       8.6039      0.00000
    140       8.6039      0.00000
    141       8.6069      0.00000
    142       8.6069      0.00000
    143       8.6069      0.00000
    144       9.1267      0.00000

 k-point     3 :       0.5000    0.0000    0.0000
  band No.  band energies     occupation 
      1      -5.7700      2.00000
      2      -5.7700      2.00000
      3      -4.8317      2.00000
      4      -4.8317      2.00000
      5      -4.8317      2.00000
      6      -4.8317      2.00000
      7      -4.8317      2.00000
      8      -4.8317      2.00000
      9      -4.0252      2.00000
     10      -4.0252      2.00000
     11      -4.0252      2.00000
     12      -4.0252      2.00000
     13      -4.0252      2.00000
     14      -4.0252      2.00000
     15      -3.7997      2.00000
     16      -3.0628      2.00000
     17      -3.0628      2.00000
     18      -3.0628      2.00000
     19      -3.0628      2.00000
     20      -3.0628      2.00000
     21      -3.0628      2.00000
     22      -2.8568      2.00000
     23      -2.8568      2.00000
     24      -2.8568      2.00000
     25      -2.8568      2.00000
     26      -2.8568      2.00000
     27      -2.8568      2.00000
     28      -1.1392      2.00000
     29      -1.0130      2.00000
     30      -1.0130      2.00000
     31      -1.0130      2.00000
     32      -1.0130      2.00000
     33      -1.0130      2.00000
     34      -1.0130      2.00000
     35      -0.7351      2.00000
     36      -0.7351      2.00000
     37      -0.7351      2.00000
     38      -0.7351      2.00000
     39      -0.7351      2.00000
     40      -0.7351      2.00000
     41      -0.1760      2.00000
     42      -0.1760      2.00000
     43      -0.1760      2.00000
     44      -0.1760      2.00000
     45      -0.1760      2.00000
     46      -0.1760      2.00000
     47       1.3938      2.00000
     48       1.3938      2.00000
     49       1.3938      2.00000
     50       1.3938      2.00000
     51       1.3938      2.00000
     52       1.3938      2.00000
     53       1.8206      2.00000
     54       1.8206      2.00000
     55       1.8206      2.00000
     56       1.8206      2.00000
     57       1.8206      2.00000
     58       1.8206      2.00000
     59       2.1981      2.00000
     60       2.1981      2.00000
     61       2.1981      2.00000
     62       2.1981      2.00000
     63       2.1981      2.00000
     64       2.1981      2.00000
     65       2.7823      2.00000
     66       2.7823      2.00000
     67       2.7823      2.00000
     68       2.7823      2.00000
     69       2.7823      2.00000
     70       2.7823      2.00000
     71       3.0681      2.00000
     72       3.0681      2.00000
     73       3.0681      2.00000
     74       3.0681      2.00000
     75       3.0681      2.00000
     76       3.0681      2.00000
     77       3.2757      2.00000
     78       3.2757      2.00000
     79       3.2757      2.00000
     80       3.2757      2.00000
     81       3.2757      2.00000
     82       3.2757      2.00000
     83       3.4484      2.00000
     84       3.4484      2.00000
     85       3.8364      2.00000
     86       3.8364      2.00000
     87       3.8364      2.00000
     88       3.8364      2.00000
     89       3.8364      2.00000
     90       3.8364      2.00000
     91       4.0829      2.00000
     92       4.0829      2.00000
     93       4.0829      2.00000
     94       4.0829      2.00000
     95       4.0829      2.00000
     96       4.0829      2.00000
     97       4.5315      2.00000
     98       4.5315      2.00000
     99       4.5315      2.00000
    100       4.5315      2.00000
    101       4.5315      2.00000
    102       4.5315      2.00000
    103       4.6300      2.00000
    104       4.6300      2.00000
    105       5.3772      2.00000
    106       5.3772      2.00000
    107       5.3772      2.00000
    108       5.3772      2.00000
    109       6.8911      0.00000
    110       6.8911      0.00000
    111       6.8911      0.00000
    112       6.8911      0.00000
    113       6.8911      0.00000
    114       6.8911      0.00000
    115       7.3678      0.00000
    116       7.7933      0.00000
    117       7.7933      0.00000
    118       7.7933      0.00000
    119       7.7933      0.00000
    120       7.7933      0.00000
    121       7.7933      0.00000
    122       8.1817      0.00000
    123       8.1817      0.00000
    124       8.2812      0.00000
    125       8.2812      0.00000
    126       8.2812      0.00000
    127       8.2812      0.00000
    128       8.2812      0.00000
    129       8.2812      0.00000
    130       8.5448      0.00000
    131       8.5448      0.00000
    132       8.5448      0.00000
    133       8.5448      0.00000
    134       8.5448      0.00000
    135       8.5448      0.00000
    136       9.0396      0.00000
    137       9.0396      0.00000
    138       9.0397      0.00000
    139       9.0400      0.00000
    140       9.1692      0.00000
    141       9.1754      0.00000
    142       9.1822      0.00000
    143       9.1823      0.00000
    144       9.1824      0.00000

 k-point     4 :       0.2500    0.2500    0.0000
  band No.  band energies     occupation 
      1      -6.0097      2.00000
      2      -5.0730      2.00000
      3      -5.0730      2.00000
      4      -5.0730      2.00000
      5      -5.0730      2.00000
      6      -5.0491      2.00000
      7      -4.2531      2.00000
      8      -4.2531      2.00000
      9      -4.2531      2.00000
     10      -4.2531      2.00000
     11      -4.1281      2.00000
     12      -4.1281      2.00000
     13      -4.1281      2.00000
     14      -4.1281      2.00000
     15      -3.3996      2.00000
     16      -3.3996      2.00000
     17      -3.3996      2.00000
     18      -3.3996      2.00000
     19      -3.1972      2.00000
     20      -3.0891      2.00000
     21      -3.0891      2.00000
     22      -3.0891      2.00000
     23      -3.0891      2.00000
     24      -2.3359      2.00000
     25      -2.3359      2.00000
     26      -2.3359      2.00000
     27      -2.3359      2.00000
     28      -1.4248      2.00000
     29      -1.4248      2.00000
     30      -1.4248      2.00000
     31      -1.4248      2.00000
     32      -0.9670      2.00000
     33      -0.9670      2.00000
     34      -0.9670      2.00000
     35      -0.9670      2.00000
     36      -0.6317      2.00000
     37      -0.3869      2.00000
     38      -0.3869      2.00000
     39      -0.3869      2.00000
     40      -0.3869      2.00000
     41      -0.2662      2.00000
     42      -0.2662      2.00000
     43      -0.2662      2.00000
     44      -0.2662      2.00000
     45       0.6440      2.00000
     46       0.6440      2.00000
     47       0.6440      2.00000
     48       0.6440      2.00000
     49       1.4284      2.00000
     50       1.4284      2.00000
     51       1.4284      2.00000
     52       1.4284      2.00000
     53       1.5798      2.00000
[...]
   32        0.751   0.942   0.000   1.693
   33        0.751   0.942   0.000   1.693
   34        0.751   0.942   0.000   1.693
   35        0.751   0.942   0.000   1.693
   36        0.751   0.942   0.000   1.693
   37        0.751   0.942   0.000   1.693
   38        0.751   0.942   0.000   1.693
   39        0.751   0.942   0.000   1.693
   40        0.751   0.942   0.000   1.693
   41        0.751   0.942   0.000   1.693
   42        0.751   0.942   0.000   1.693
   43        0.751   0.942   0.000   1.693
   44        0.751   0.942   0.000   1.693
   45        0.751   0.942   0.000   1.693
   46        0.751   0.942   0.000   1.693
   47        0.751   0.942   0.000   1.693
   48        0.751   0.942   0.000   1.693
   49        0.751   0.942   0.000   1.693
   50        0.751   0.942   0.000   1.693
   51        0.751   0.942   0.000   1.693
   52        0.751   0.942   0.000   1.693
   53        0.751   0.942   0.000   1.693
   54        0.751   0.942   0.000   1.693
--------------------------------------------------
tot         40.551  50.886   0.000  91.437
 
    CHARGE:  cpu time    0.2877: real time    0.2899
    FORLOC:  cpu time    0.0317: real time    0.0322
    FORNL :  cpu time    1.5504: real time    1.5625
    STRESS:  cpu time    7.1315: real time    7.2342
    FORCOR:  cpu time    0.1346: real time    0.1898
    FORHAR:  cpu time    0.0471: real time    0.0475
    MIXING:  cpu time    0.2033: real time    0.2179
    OFIELD:  cpu time    0.0001: real time    0.0006

  FORCE on cell =-STRESS in cart. coord.  units (eV):
  Direction    XX          YY          ZZ          XY          YZ          ZX
  --------------------------------------------------------------------------------------
  Alpha Z    90.80689    90.80689    90.80689
  Ewald   -2056.89476 -2056.89477 -2056.89477    -0.00000    -0.00000     0.00000
  Hartree   134.28430   134.28430   134.28430    -0.00000    -0.00000    -0.00000
  E(xc)    -684.93888  -684.93887  -684.93889    -0.00001    -0.00001    -0.00001
  Local    -788.76076  -788.76086  -788.76037     0.00014     0.00024     0.00034
  n-local  2085.35599  2102.29948  2117.13344    -2.34118    -0.98135     0.69394
  augment  -314.66539  -314.66530  -314.66575    -0.00013    -0.00022    -0.00031
  Kinetic  1506.87724  1532.77345  1555.55779    -1.60662    -1.34740     0.95275
  Fock        0.00000     0.00000     0.00000     0.00000     0.00000     0.00000
  -------------------------------------------------------------------------------------
  Total      13.16386    13.16386    13.16386     0.00000     0.00000    -0.00000
  in kB      19.51061    19.51061    19.51061     0.00000     0.00000    -0.00000
  external pressure =       19.51 kB  Pullay stress =        0.00 kB


 VOLUME and BASIS-vectors are now :
 -----------------------------------------------------------------------------
  energy-cutoff  :      550.00
  volume of cell :     1080.99
      direct lattice vectors                 reciprocal lattice vectors
     9.976465530  0.000000000  5.759915070     0.100235900 -0.035438742  0.000000000
     3.325488510  9.405901920  5.759915070     0.000000000  0.106316227  0.000000000
     0.000000000  0.000000000 11.519830140    -0.050117950 -0.035438742  0.086806836

  length of vectors
    11.519830124 11.519830136 11.519830140     0.106316227  0.106316227  0.106316227


 FORCES acting on ions
    electron-ion (+dipol)            ewald-force                    non-local-force                 convergence-correction
 -----------------------------------------------------------------------------------------------
   -.962E-06 -.595E-06 -.155E-05   0.119E-06 -.632E-07 0.104E-10   -.474E-16 -.546E-16 0.303E-15   0.137E-07 0.971E-08 0.238E-07
   -.806E-06 -.484E-06 0.176E-05   0.119E-06 -.632E-07 0.464E-12   -.696E-16 -.729E-16 0.271E-15   0.137E-07 0.971E-08 -.217E-07
   -.233E-06 -.792E-07 0.418E-06   0.119E-06 -.632E-07 0.670E-12   -.157E-15 -.961E-16 0.266E-15   0.197E-07 0.139E-07 0.104E-08
   0.700E-07 0.199E-05 0.240E-06   0.119E-06 -.632E-07 0.102E-10   -.583E-16 -.555E-16 0.272E-15   0.598E-09 -.274E-07 0.103E-08
   -.817E-06 0.142E-05 0.183E-05   0.119E-06 -.632E-07 0.310E-12   -.722E-16 -.536E-16 0.307E-15   0.238E-07 -.115E-07 -.497E-08
   -.105E-05 0.131E-05 -.143E-05   0.119E-06 -.632E-07 0.505E-12   -.120E-15 -.680E-16 0.337E-15   0.238E-07 -.115E-07 0.704E-08
   -.313E-07 0.493E-06 0.673E-07   0.119E-06 -.632E-07 0.482E-11   -.489E-16 -.749E-16 0.287E-15   0.101E-07 -.131E-07 0.176E-07
   -.190E-05 -.109E-05 0.392E-07   0.119E-06 -.632E-07 -.510E-11   -.498E-16 -.585E-16 0.339E-15   0.273E-07 -.166E-08 0.103E-08
   -.232E-06 0.356E-06 0.425E-06   0.119E-06 -.632E-07 -.490E-11   -.144E-15 -.733E-16 0.277E-15   0.101E-07 -.131E-07 -.155E-07
   0.182E-05 -.483E-06 0.240E-06   0.119E-06 -.632E-07 0.102E-10   -.586E-16 -.469E-16 0.275E-15   -.257E-07 0.971E-08 0.103E-08
   0.985E-06 -.113E-05 0.183E-05   0.119E-06 -.632E-07 0.296E-12   -.694E-16 -.543E-16 0.266E-15   -.287E-08 0.263E-07 -.497E-08
   0.802E-06 -.131E-05 -.143E-05   0.119E-06 -.632E-07 0.511E-12   -.145E-15 -.118E-15 0.256E-15   -.287E-08 0.263E-07 0.704E-08
   0.189E-05 0.142E-05 0.265E-06   0.119E-06 -.632E-07 0.101E-10   -.586E-16 -.511E-16 0.247E-15   -.162E-07 -.115E-07 0.182E-07
   -.242E-07 0.684E-07 0.776E-07   0.119E-06 -.632E-07 0.142E-12   -.518E-16 -.493E-16 0.320E-15   0.599E-09 0.422E-09 0.104E-08
   0.184E-05 0.138E-05 0.292E-06   0.119E-06 -.632E-07 0.341E-12   -.137E-15 -.463E-16 0.268E-15   -.162E-07 -.115E-07 -.161E-07
   0.879E-06 -.109E-05 -.156E-05   0.119E-06 -.632E-07 0.465E-11   -.412E-16 -.692E-16 0.264E-15   -.128E-07 -.166E-08 0.242E-07
   0.968E-06 -.107E-05 0.180E-05   0.119E-06 -.632E-07 -.526E-11   -.677E-16 -.515E-16 0.337E-15   -.128E-07 -.166E-08 -.221E-07
   0.128E-05 -.270E-06 0.277E-06   0.119E-06 -.632E-07 -.506E-11   -.140E-15 -.828E-16 0.300E-15   -.611E-08 0.279E-08 0.103E-08
   0.373E-06 -.797E-07 0.673E-07   0.119E-06 -.632E-07 0.481E-11   -.534E-16 -.531E-16 0.312E-15   -.895E-08 0.139E-07 0.176E-07
   -.174E-05 -.131E-05 0.392E-07   0.119E-06 -.632E-07 -.513E-11   -.711E-16 -.540E-16 0.282E-15   0.753E-08 0.263E-07 0.103E-08
   0.177E-06 -.223E-06 0.425E-06   0.119E-06 -.632E-07 -.491E-11   -.151E-15 -.101E-15 0.248E-15   -.895E-08 0.139E-07 -.155E-07
   -.818E-06 0.131E-05 -.156E-05   0.119E-06 -.632E-07 0.465E-11   -.834E-16 -.255E-16 0.267E-15   -.582E-08 -.115E-07 0.242E-07
   -.769E-06 0.138E-05 0.180E-05   0.119E-06 -.632E-07 -.528E-11   -.778E-16 -.415E-16 0.295E-15   -.582E-08 -.115E-07 -.221E-07
   0.908E-07 0.141E-05 0.277E-06   0.119E-06 -.632E-07 -.508E-11   -.123E-15 -.580E-16 0.299E-15   0.599E-09 -.669E-08 0.103E-08
   0.381E-06 0.355E-06 0.707E-07   0.119E-06 -.632E-07 -.754E-12   -.306E-16 -.727E-16 0.295E-15   -.185E-07 -.131E-07 0.103E-08
   -.501E-06 -.269E-06 0.130E-05   0.119E-06 -.632E-07 -.107E-10   -.613E-16 -.498E-16 0.305E-15   0.395E-08 0.279E-08 -.477E-08
   -.624E-06 -.355E-06 -.960E-06   0.119E-06 -.632E-07 -.105E-10   -.139E-15 -.771E-16 0.280E-15   0.395E-08 0.279E-08 0.684E-08
   0.624E-06 0.355E-06 0.960E-06   -.119E-06 0.632E-07 0.105E-10   0.748E-16 -.165E-16 -.200E-15   -.395E-08 -.279E-08 -.684E-08
   0.501E-06 0.269E-06 -.130E-05   -.119E-06 0.632E-07 0.107E-10   0.305E-16 -.300E-16 -.235E-15   -.395E-08 -.279E-08 0.477E-08
   -.381E-06 -.355E-06 -.707E-07   -.119E-06 0.632E-07 0.753E-12   0.361E-16 -.456E-16 -.130E-15   0.185E-07 0.131E-07 -.103E-08
   -.908E-07 -.141E-05 -.277E-06   -.119E-06 0.632E-07 0.508E-11   0.611E-16 -.213E-16 -.220E-15   -.599E-09 0.669E-08 -.103E-08
   0.769E-06 -.138E-05 -.180E-05   -.119E-06 0.632E-07 0.529E-11   0.569E-16 -.192E-16 -.236E-15   0.582E-08 0.115E-07 0.221E-07
   0.818E-06 -.131E-05 0.156E-05   -.119E-06 0.632E-07 -.465E-11   0.507E-16 -.695E-16 -.228E-15   0.582E-08 0.115E-07 -.242E-07
   -.177E-06 0.223E-06 -.425E-06   -.119E-06 0.632E-07 0.491E-11   0.648E-16 -.374E-17 -.235E-15   0.895E-08 -.139E-07 0.155E-07
   0.174E-05 0.131E-05 -.392E-07   -.119E-06 0.632E-07 0.514E-11   0.256E-16 0.268E-16 -.257E-15   -.753E-08 -.263E-07 -.103E-08
   -.373E-06 0.796E-07 -.674E-07   -.119E-06 0.632E-07 -.481E-11   0.488E-16 -.338E-16 -.190E-15   0.895E-08 -.139E-07 -.176E-07
   -.128E-05 0.270E-06 -.277E-06   -.119E-06 0.632E-07 0.506E-11   0.710E-16 -.118E-16 -.209E-15   0.611E-08 -.279E-08 -.103E-08
   -.968E-06 0.107E-05 -.180E-05   -.119E-06 0.632E-07 0.527E-11   0.392E-16 -.108E-16 -.218E-15   0.128E-07 0.166E-08 0.221E-07
   -.879E-06 0.109E-05 0.156E-05   -.119E-06 0.632E-07 -.465E-11   0.288E-16 -.480E-16 -.145E-15   0.128E-07 0.166E-08 -.242E-07
   -.184E-05 -.138E-05 -.292E-06   -.119E-06 0.632E-07 -.342E-12   0.631E-16 -.356E-16 -.179E-15   0.162E-07 0.115E-07 0.161E-07
   0.242E-07 -.684E-07 -.776E-07   -.119E-06 0.632E-07 -.138E-12   0.386E-16 -.149E-16 -.205E-15   -.599E-09 -.422E-09 -.104E-08
   -.189E-05 -.142E-05 -.265E-06   -.119E-06 0.632E-07 -.101E-10   0.538E-16 -.476E-16 -.188E-15   0.162E-07 0.115E-07 -.182E-07
   -.802E-06 0.131E-05 0.143E-05   -.119E-06 0.632E-07 -.506E-12   0.573E-16 -.306E-16 -.211E-15   0.287E-08 -.263E-07 -.704E-08
   -.985E-06 0.113E-05 -.183E-05   -.119E-06 0.632E-07 -.300E-12   0.237E-16 0.243E-16 -.229E-15   0.287E-08 -.263E-07 0.497E-08
   -.182E-05 0.483E-06 -.240E-06   -.119E-06 0.632E-07 -.102E-10   0.414E-16 -.336E-16 -.155E-15   0.257E-07 -.971E-08 -.103E-08
   0.232E-06 -.356E-06 -.425E-06   -.119E-06 0.632E-07 0.489E-11   0.714E-16 -.154E-16 -.165E-15   -.101E-07 0.131E-07 0.155E-07
   0.190E-05 0.109E-05 -.392E-07   -.119E-06 0.632E-07 0.510E-11   0.253E-16 -.170E-16 -.230E-15   -.273E-07 0.166E-08 -.103E-08
   0.312E-07 -.493E-06 -.673E-07   -.119E-06 0.632E-07 -.482E-11   0.444E-16 -.531E-16 -.133E-15   -.101E-07 0.131E-07 -.176E-07
   0.105E-05 -.131E-05 0.143E-05   -.119E-06 0.632E-07 -.503E-12   0.542E-16 -.900E-17 -.192E-15   -.238E-07 0.115E-07 -.704E-08
   0.817E-06 -.142E-05 -.183E-05   -.119E-06 0.632E-07 -.312E-12   0.443E-16 0.252E-16 -.238E-15   -.238E-07 0.115E-07 0.497E-08
   -.700E-07 -.199E-05 -.240E-06   -.119E-06 0.632E-07 -.102E-10   0.335E-16 -.809E-16 -.272E-15   -.598E-09 0.274E-07 -.103E-08
   0.233E-06 0.792E-07 -.418E-06   -.119E-06 0.632E-07 -.673E-12   0.684E-16 -.134E-16 -.221E-15   -.197E-07 -.139E-07 -.104E-08
   0.806E-06 0.484E-06 -.176E-05   -.119E-06 0.632E-07 -.464E-12   0.237E-16 0.241E-16 -.247E-15   -.137E-07 -.971E-08 0.217E-07
   0.962E-06 0.595E-06 0.155E-05   -.119E-06 0.632E-07 -.104E-10   0.425E-16 -.471E-16 -.153E-15   -.137E-07 -.971E-08 -.238E-07
 -----------------------------------------------------------------------------------------------
   -.164E-09 -.119E-09 -.301E-09   0.819E-14 -.487E-13 0.633E-14   -.105E-14 -.232E-14 0.225E-14   -.386E-15 0.443E-13 0.217E-13
 
 
 POSITION                                       TOTAL-FORCE (eV/Angst)
 -----------------------------------------------------------------------------------
      3.87974      2.74339      6.71990         0.000000      0.000000     -0.000000
      3.87974      2.74339     10.55984         0.000000      0.000000     -0.000000
      3.87974      2.74339     14.39979         0.000000      0.000000     -0.000000
      4.98823      5.87869      8.63987        -0.000000      0.000000     -0.000000
      4.98823      5.87869     12.47982         0.000000      0.000000     -0.000000
      4.98823      5.87869     16.31976         0.000000      0.000000     -0.000000
      6.09673      9.01399     10.55984        -0.000000      0.000000     -0.000000
      6.09673      9.01399     14.39979         0.000000      0.000000     -0.000000
      6.09673      9.01399     18.23973         0.000000      0.000000     -0.000000
      7.20523      2.74339      8.63987        -0.000000      0.000000     -0.000000
      7.20523      2.74339     12.47982        -0.000000      0.000000     -0.000000
      7.20523      2.74339     16.31976         0.000000      0.000000     -0.000000
      8.31372      5.87869     10.55984        -0.000000      0.000000     -0.000000
      8.31372      5.87869     14.39979         0.000000      0.000000     -0.000000
      8.31372      5.87869     18.23973         0.000000      0.000000     -0.000000
      9.42222      9.01399     12.47982        -0.000000      0.000000     -0.000000
      9.42222      9.01399     16.31976         0.000000      0.000000     -0.000000
      9.42222      9.01399     20.15970         0.000000      0.000000     -0.000000
     10.53071      2.74339     10.55984        -0.000000      0.000000     -0.000000
     10.53071      2.74339     14.39979         0.000000      0.000000     -0.000000
     10.53071      2.74339     18.23973         0.000000      0.000000     -0.000000
     11.63921      5.87869     12.47982        -0.000000      0.000000     -0.000000
     11.63921      5.87869     16.31976         0.000000      0.000000     -0.000000
     11.63921      5.87869     20.15970         0.000000      0.000000     -0.000000
     12.74771      9.01399     14.39979        -0.000000      0.000000     -0.000000
     12.74771      9.01399     18.23973         0.000000      0.000000     -0.000000
     12.74771      9.01399     22.07967         0.000000      0.000000     -0.000000
      0.55425      0.39191      0.95999         0.000000     -0.000000      0.000000
      0.55425      0.39191      4.79993        -0.000000     -0.000000      0.000000
      0.55425      0.39191      8.63987        -0.000000     -0.000000      0.000000
      1.66274      3.52721      2.87996         0.000000     -0.000000      0.000000
      1.66274      3.52721      6.71990        -0.000000     -0.000000      0.000000
      1.66274      3.52721     10.55984         0.000000     -0.000000      0.000000
      2.77124      6.66251      4.79993        -0.000000     -0.000000      0.000000
      2.77124      6.66251      8.63987        -0.000000     -0.000000      0.000000
      2.77124      6.66251     12.47982         0.000000     -0.000000      0.000000
      3.87974      0.39191      2.87996         0.000000     -0.000000      0.000000
      3.87974      0.39191      6.71990         0.000000     -0.000000      0.000000
      3.87974      0.39191     10.55984        -0.000000     -0.000000      0.000000
      4.98823      3.52721      4.79993         0.000000     -0.000000      0.000000
      4.98823      3.52721      8.63987        -0.000000     -0.000000      0.000000
      4.98823      3.52721     12.47982        -0.000000     -0.000000      0.000000
      6.09673      6.66251      6.71990         0.000000     -0.000000      0.000000
      6.09673      6.66251     10.55984         0.000000     -0.000000      0.000000
      6.09673      6.66251     14.39979        -0.000000     -0.000000      0.000000
      7.20523      0.39191      4.79993         0.000000     -0.000000      0.000000
      7.20523      0.39191      8.63987         0.000000     -0.000000      0.000000
      7.20523      0.39191     12.47982        -0.000000     -0.000000      0.000000
      8.31372      3.52721      6.71990         0.000000     -0.000000      0.000000
      8.31372      3.52721     10.55984        -0.000000     -0.000000      0.000000
      8.31372      3.52721     14.39979        -0.000000     -0.000000      0.000000
      9.42222      6.66251      8.63987         0.000000     -0.000000      0.000000
      9.42222      6.66251     12.47982        -0.000000     -0.000000      0.000000
      9.42222      6.66251     16.31976        -0.000000     -0.000000      0.000000
 -----------------------------------------------------------------------------------
    total drift:                               -0.000000     -0.000000     -0.000000


--------------------------------------------------------------------------------------------------------



  FREE ENERGIE OF THE ION-ELECTRON SYSTEM (eV)
  ---------------------------------------------------
  free  energy   TOTEN  =      -292.80760809 eV

  energy  without entropy=     -292.80760809  energy(sigma->0) =     -292.80760809
 


--------------------------------------------------------------------------------------------------------


    POTLOK:  cpu time    0.1186: real time    0.1201


--------------------------------------------------------------------------------------------------------


 writing wavefunctions
     LOOP+:  cpu time   85.9358: real time   87.3104
    4ORBIT:  cpu time    0.0000: real time    0.0000
 


 total charge     
 
# of ion       s       p       d       tot
------------------------------------------
    1        0.751   0.942   0.000   1.693
    2        0.751   0.942   0.000   1.693
    3        0.751   0.942   0.000   1.693
    4        0.751   0.942   0.000   1.693
    5        0.751   0.942   0.000   1.693
    6        0.751   0.942   0.000   1.693
    7        0.751   0.942   0.000   1.693
    8        0.751   0.942   0.000   1.693
    9        0.751   0.942   0.000   1.693
   10        0.751   0.942   0.000   1.693
   11        0.751   0.942   0.000   1.693
   12        0.751   0.942   0.000   1.693
   13        0.751   0.942   0.000   1.693
   14        0.751   0.942   0.000   1.693
   15        0.751   0.942   0.000   1.693
   16        0.751   0.942   0.000   1.693
   17        0.751   0.942   0.000   1.693
   18        0.751   0.942   0.000   1.693
   19        0.751   0.942   0.000   1.693
   20        0.751   0.942   0.000   1.693
   21        0.751   0.942   0.000   1.693
   22        0.751   0.942   0.000   1.693
   23        0.751   0.942   0.000   1.693
   24        0.751   0.942   0.000   1.693
   25        0.751   0.942   0.000   1.693
   26        0.751   0.942   0.000   1.693
   27        0.751   0.942   0.000   1.693
   28        0.751   0.942   0.000   1.693
   29        0.751   0.942   0.000   1.693
   30        0.751   0.942   0.000   1.693
   31        0.751   0.942   0.000   1.693
   32        0.751   0.942   0.000   1.693
   33        0.751   0.942   0.000   1.693
   34        0.751   0.942   0.000   1.693
   35        0.751   0.942   0.000   1.693
   36        0.751   0.942   0.000   1.693
   37        0.751   0.942   0.000   1.693
   38        0.751   0.942   0.000   1.693
   39        0.751   0.942   0.000   1.693
   40        0.751   0.942   0.000   1.693
   41        0.751   0.942   0.000   1.693
   42        0.751   0.942   0.000   1.693
   43        0.751   0.942   0.000   1.693
   44        0.751   0.942   0.000   1.693
   45        0.751   0.942   0.000   1.693
   46        0.751   0.942   0.000   1.693
   47        0.751   0.942   0.000   1.693
   48        0.751   0.942   0.000   1.693
   49        0.751   0.942   0.000   1.693
   50        0.751   0.942   0.000   1.693
   51        0.751   0.942   0.000   1.693
   52        0.751   0.942   0.000   1.693
   53        0.751   0.942   0.000   1.693
   54        0.751   0.942   0.000   1.693
--------------------------------------------------
tot         40.551  50.886   0.000  91.437
 

 total amount of memory used by VASP MPI-rank0   123398. kBytes
=======================================================================

   base      :      30000. kBytes
   nonl-proj :      43657. kBytes
   fftplans  :       5382. kBytes
   grid      :      19496. kBytes
   one-center:        165. kBytes
   wavefun   :      24698. kBytes
 
  
  
 General timing and accounting informations for this job:
 ========================================================
  
                  Total CPU time used (sec):      100.020
                            User time (sec):       93.796
                          System time (sec):        6.224
                         Elapsed time (sec):      105.071
  
                   Maximum memory used (kb):      357184.
                   Average memory used (kb):           0.
  
                          Minor page faults:        41492
                          Major page faults:            0
                 Voluntary context switches:         5250
