<?xml version="1.0" encoding="ISO-8859-1"?>
<modeling>
 <generator>
  <i name="program" type="string">vasp </i>
  <i name="version" type="string">5.4.4.18Apr17-6-g9f103f2a35  </i>
  <i name="subversion" type="string">(build Jun 19 2019 10:34:07) complex            parallel </i>
  <i name="platform" type="string">LB-5.4 </i>
  <i name="date" type="string">2023 05 15 </i>
  <i name="time" type="string">18:34:05 </i>
 </generator>
 <incar>
  <i type="string" name="SYSTEM"> Si</i>
  <i type="string" name="PREC">normal</i>
  <i type="string" name="ALGO"> Normal</i>
  <i type="int" name="ISPIN">     1</i>
  <i name="AMIX">      0.20000000</i>
  <i type="int" name="NELM">   200</i>
  <i type="int" name="IBRION">     2</i>
  <i name="EDIFF">      0.00000100</i>
  <i name="EDIFFG">     -0.05000000</i>
  <i type="int" name="NSW">     0</i>
  <i type="int" name="ISIF">     2</i>
  <i type="int" name="ISYM">     2</i>
  <i name="ENCUT">    550.00000000</i>
  <i name="NELECT">    216.00000000</i>
  <i type="logical" name="LREAL"> F  </i>
  <i type="int" name="ISMEAR">     0</i>
  <i name="SIGMA">      0.05000000</i>
  <i type="logical" name="LWAVE"> T  </i>
  <i type="logical" name="LCHARG"> T  </i>
  <i type="int" name="LORBIT">    10</i>
  <v type="int" name="KPOINT_BSE">    -1     0     0     0</v>
  <i type="int" name="NELM">   200</i>
 </incar>
 <structure name="primitive_cell" >
  <crystal>
   <varray name="basis" >
    <v>       9.97646553       0.00000000       5.75991507 </v>
    <v>       3.32548851       9.40590192       5.75991507 </v>
    <v>       0.00000000       0.00000000      11.51983014 </v>
   </varray>
   <i name="volume">   1080.99386112 </i>
   <varray name="rec_basis" >
    <v>       0.10023590      -0.03543874       0.00000000 </v>
    <v>       0.00000000       0.10631623       0.00000000 </v>
    <v>      -0.05011795      -0.03543874       0.08680684 </v>
   </varray>
  </crystal>
  <varray name="positions" >
   <v>       0.29166667       0.29166667       0.29166667 </v>
   <v>       0.04166667       0.37500000       0.37500000 </v>
   <v>       0.37500000       0.37500000       0.04166667 </v>
   <v>       0.37500000       0.37500000       0.37500000 </v>
   <v>       0.37500000       0.04166667       0.37500000 </v>
   <v>      -0.04166667       0.29166667       0.29166667 </v>
   <v>      -0.37500000       0.29166667      -0.04166667 </v>
   <v>      -0.04166667       0.29166667      -0.37500000 </v>
   <v>      -0.37500000       0.29166667       0.29166667 </v>
   <v>      -0.37500000      -0.04166667       0.29166667 </v>
   <v>      -0.04166667      -0.37500000       0.29166667 </v>
   <v>       0.29166667      -0.04166667       0.29166667 </v>
   <v>       0.29166667      -0.37500000      -0.04166667 </v>
   <v>       0.29166667      -0.04166667      -0.37500000 </v>
   <v>       0.29166667      -0.37500000       0.29166667 </v>
   <v>       0.29166667       0.29166667      -0.04166667 </v>
   <v>       0.29166667       0.29166667      -0.37500000 </v>
   <v>      -0.29166667       0.37500000       0.04166667 </v>
   <v>       0.04166667       0.04166667       0.37500000 </v>
   <v>      -0.29166667       0.04166667       0.04166667 </v>
   <v>       0.04166667       0.04166667      -0.29166667 </v>
   <v>      -0.29166667       0.04166667       0.37500000 </v>
   <v>       0.37500000      -0.29166667       0.04166667 </v>
   <v>       0.04166667       0.37500000       0.04166667 </v>
   <v>       0.04166667       0.37500000      -0.29166667 </v>
   <v>       0.04166667      -0.29166667       0.04166667 </v>
   <v>       0.04166667      -0.29166667       0.37500000 </v>
   <v>       0.37500000       0.04166667       0.04166667 </v>
   <v>       0.37500000       0.04166667      -0.29166667 </v>
   <v>      -0.04166667      -0.04166667      -0.37500000 </v>
   <v>      -0.37500000      -0.37500000      -0.04166667 </v>
   <v>      -0.37500000      -0.04166667      -0.04166667 </v>
   <v>      -0.04166667      -0.37500000      -0.04166667 </v>
   <v>      -0.37500000      -0.04166667      -0.37500000 </v>
   <v>      -0.04166667      -0.37500000      -0.37500000 </v>
   <v>      -0.29166667       0.37500000       0.37500000 </v>
   <v>      -0.29166667       0.37500000      -0.29166667 </v>
   <v>      -0.29166667      -0.29166667       0.37500000 </v>
   <v>       0.37500000      -0.29166667      -0.29166667 </v>
   <v>       0.37500000      -0.29166667       0.37500000 </v>
   <v>       0.37500000       0.37500000      -0.29166667 </v>
   <v>      -0.37500000       0.29166667      -0.37500000 </v>
   <v>      -0.04166667       0.29166667      -0.04166667 </v>
   <v>      -0.37500000      -0.37500000       0.29166667 </v>
   <v>      -0.04166667      -0.04166667      -0.04166667 </v>
   <v>      -0.37500000      -0.37500000      -0.37500000 </v>
   <v>      -0.04166667      -0.04166667       0.29166667 </v>
   <v>       0.29166667      -0.37500000      -0.37500000 </v>
   <v>       0.29166667      -0.04166667      -0.04166667 </v>
   <v>      -0.29166667       0.04166667      -0.29166667 </v>
   <v>       0.04166667       0.04166667       0.04166667 </v>
   <v>      -0.29166667      -0.29166667      -0.29166667 </v>
   <v>      -0.29166667      -0.29166667       0.04166667 </v>
   <v>       0.04166667      -0.29166667      -0.29166667 </v>
  </varray>
 </structure>
 <varray name="primitive_index" >
  <v type="int" >        1 </v>
  <v type="int" >       32 </v>
  <v type="int" >       40 </v>
  <v type="int" >       41 </v>
  <v type="int" >       38 </v>
  <v type="int" >       19 </v>
  <v type="int" >       12 </v>
  <v type="int" >       20 </v>
  <v type="int" >       10 </v>
  <v type="int" >       16 </v>
  <v type="int" >       22 </v>
  <v type="int" >        7 </v>
  <v type="int" >        6 </v>
  <v type="int" >        8 </v>
  <v type="int" >        4 </v>
  <v type="int" >        3 </v>
  <v type="int" >        2 </v>
  <v type="int" >       49 </v>
  <v type="int" >       29 </v>
  <v type="int" >       46 </v>
  <v type="int" >       30 </v>
  <v type="int" >       47 </v>
  <v type="int" >       43 </v>
  <v type="int" >       31 </v>
  <v type="int" >       33 </v>
  <v type="int" >       34 </v>
  <v type="int" >       35 </v>
  <v type="int" >       37 </v>
  <v type="int" >       39 </v>
  <v type="int" >       26 </v>
  <v type="int" >       15 </v>
  <v type="int" >       18 </v>
  <v type="int" >       24 </v>
  <v type="int" >       17 </v>
  <v type="int" >       23 </v>
  <v type="int" >       50 </v>
  <v type="int" >       51 </v>
  <v type="int" >       53 </v>
  <v type="int" >       45 </v>
  <v type="int" >       44 </v>
  <v type="int" >       42 </v>
  <v type="int" >       11 </v>
  <v type="int" >       21 </v>
  <v type="int" >       13 </v>
  <v type="int" >       27 </v>
  <v type="int" >       14 </v>
  <v type="int" >       25 </v>
  <v type="int" >        5 </v>
  <v type="int" >        9 </v>
  <v type="int" >       48 </v>
  <v type="int" >       28 </v>
  <v type="int" >       54 </v>
  <v type="int" >       52 </v>
  <v type="int" >       36 </v>
 </varray>
 <kpoints>
  <generation param="Gamma">
   <v type="int" name="divisions">       4        4        4 </v>
   <v name="usershift">      0.00000000       0.00000000       0.00000000 </v>
   <v name="genvec1">      0.25000000       0.00000000       0.00000000 </v>
   <v name="genvec2">      0.00000000       0.25000000       0.00000000 </v>
   <v name="genvec3">     -0.00000000      -0.00000000       0.25000000 </v>
   <v name="shift">      0.00000000       0.00000000       0.00000000 </v>
  </generation>
  <varray name="kpointlist" >
   <v>       0.00000000       0.00000000       0.00000000 </v>
   <v>       0.25000000       0.00000000       0.00000000 </v>
   <v>       0.50000000       0.00000000       0.00000000 </v>
   <v>       0.25000000       0.25000000       0.00000000 </v>
   <v>       0.50000000       0.25000000       0.00000000 </v>
   <v>      -0.25000000       0.25000000       0.00000000 </v>
   <v>       0.50000000       0.50000000       0.00000000 </v>
   <v>      -0.25000000       0.50000000       0.25000000 </v>
  </varray>
  <varray name="weights" >
   <v>       0.01562500 </v>
   <v>       0.12500000 </v>
   <v>       0.06250000 </v>
   <v>       0.09375000 </v>
   <v>       0.37500000 </v>
   <v>       0.18750000 </v>
   <v>       0.04687500 </v>
   <v>       0.09375000 </v>
  </varray>
 </kpoints>
 <parameters>
  <separator name="general" >
   <i type="string" name="SYSTEM">Si</i>
   <i type="logical" name="LCOMPAT"> F  </i>
  </separator>
  <separator name="electronic" >
   <i type="string" name="PREC">normal</i>
   <i name="ENMAX">    550.00000000</i>
   <i name="ENAUG">    342.92400000</i>
   <i name="EDIFF">      0.00000100</i>
   <i type="int" name="IALGO">    38</i>
   <i type="int" name="IWAVPR">    10</i>
   <i type="int" name="NBANDS">   144</i>
   <i name="NELECT">    216.00000000</i>
   <i type="int" name="TURBO">     0</i>
   <i type="int" name="IRESTART">     0</i>
   <i type="int" name="NREBOOT">     0</i>
   <i type="int" name="NMIN">     0</i>
   <i name="EREF">      0.00000000</i>
   <separator name="electronic smearing" >
    <i type="int" name="ISMEAR">     0</i>
    <i name="SIGMA">      0.05000000</i>
    <i name="KSPACING">      0.50000000</i>
    <i type="logical" name="KGAMMA"> T  </i>
   </separator>
   <separator name="electronic projectors" >
    <i type="logical" name="LREAL"> F  </i>
    <v name="ROPT">      0.00000000      0.00000000</v>
    <i type="int" name="LMAXPAW">  -100</i>
    <i type="int" name="LMAXMIX">     2</i>
    <i type="logical" name="NLSPLINE"> F  </i>
   </separator>
   <separator name="electronic startup" >
    <i type="int" name="ISTART">     0</i>
    <i type="int" name="ICHARG">     2</i>
    <i type="int" name="INIWAV">     1</i>
   </separator>
   <separator name="electronic spin" >
    <i type="int" name="ISPIN">     1</i>
    <i type="logical" name="LNONCOLLINEAR"> F  </i>
    <v name="MAGMOM">      1.00000000      1.00000000      1.00000000      1.00000000      1.00000000      1.00000000      1.00000000      1.00000000      1.00000000      1.00000000      1.00000000      1.00000000      1.00000000      1.00000000      1.00000000      1.00000000      1.00000000      1.00000000      1.00000000      1.00000000
      1.00000000      1.00000000      1.00000000      1.00000000      1.00000000      1.00000000      1.00000000      1.00000000      1.00000000      1.00000000      1.00000000      1.00000000      1.00000000      1.00000000      1.00000000      1.00000000      1.00000000      1.00000000      1.00000000      1.00000000
      1.00000000      1.00000000      1.00000000      1.00000000      1.00000000      1.00000000      1.00000000      1.00000000      1.00000000      1.00000000      1.00000000      1.00000000      1.00000000      1.00000000</v>
    <i name="NUPDOWN">     -1.00000000</i>
    <i type="logical" name="LSORBIT"> F  </i>
    <v name="SAXIS">      0.00000000      0.00000000      1.00000000</v>
    <i type="logical" name="LSPIRAL"> F  </i>
    <v name="QSPIRAL">      0.00000000      0.00000000      0.00000000</v>
    <i type="logical" name="LZEROZ"> F  </i>
   </separator>
   <separator name="electronic exchange-correlation" >
    <i type="logical" name="LASPH"> F  </i>
    <i type="logical" name="LMETAGGA"> F  </i>
   </separator>
   <separator name="electronic convergence" >
    <i type="int" name="NELM">   200</i>
    <i type="int" name="NELMDL">    -5</i>
    <i type="int" name="NELMIN">     2</i>
    <i name="ENINI">    550.00000000</i>
    <separator name="electronic convergence detail" >
     <i type="logical" name="LDIAG"> T  </i>
     <i type="logical" name="LSUBROT"> F  </i>
     <i name="WEIMIN">      0.00000000</i>
     <i name="EBREAK">      0.00000000</i>
     <i name="DEPER">      0.30000000</i>
     <i type="int" name="NRMM">     4</i>
     <i name="TIME">      0.40000000</i>
    </separator>
   </separator>
   <separator name="electronic mixer" >
    <i name="AMIX">      0.20000000</i>
    <i name="BMIX">      1.00000000</i>
    <i name="AMIN">      0.10000000</i>
    <i name="AMIX_MAG">      0.80000000</i>
    <i name="BMIX_MAG">      1.00000000</i>
    <separator name="electronic mixer details" >
     <i type="int" name="IMIX">     4</i>
     <i type="logical" name="MIXFIRST"> F  </i>
     <i type="int" name="MAXMIX">   -45</i>
     <i name="WC">    100.00000000</i>
     <i type="int" name="INIMIX">     1</i>
     <i type="int" name="MIXPRE">     1</i>
     <i type="int" name="MREMOVE">     5</i>
    </separator>
   </separator>
   <separator name="electronic dipolcorrection" >
    <i type="logical" name="LDIPOL"> F  </i>
    <i type="logical" name="LMONO"> F  </i>
    <i type="int" name="IDIPOL">     0</i>
    <i name="EPSILON">      1.00000000</i>
    <v name="DIPOL">   -100.00000000   -100.00000000   -100.00000000</v>
    <i name="EFIELD">      0.00000000</i>
   </separator>
  </separator>
  <separator name="grids" >
   <i type="int" name="NGX">    70</i>
   <i type="int" name="NGY">    70</i>
   <i type="int" name="NGZ">    70</i>
   <i type="int" name="NGXF">   140</i>
   <i type="int" name="NGYF">   140</i>
   <i type="int" name="NGZF">   140</i>
   <i type="logical" name="ADDGRID"> F  </i>
  </separator>
  <separator name="ionic" >
   <i type="int" name="NSW">     0</i>
   <i type="int" name="IBRION">    -1</i>
   <i type="int" name="MDALGO">     0</i>
   <i type="int" name="ISIF">     2</i>
   <i name="PSTRESS">      0.00000000</i>
   <i name="EDIFFG">     -0.05000000</i>
   <i type="int" name="NFREE">     1</i>
   <i name="POTIM">      0.50000000</i>
   <i name="SMASS">     -3.00000000</i>
   <i name="SCALEE">      1.00000000</i>
  </separator>
  <separator name="ionic md" >
   <i name="TEBEG">      0.00010000</i>
   <i name="TEEND">      0.00010000</i>
   <i type="int" name="NBLOCK">     1</i>
   <i type="int" name="KBLOCK">     1</i>
   <i type="int" name="NPACO">   256</i>
   <i name="APACO">     16.00000000</i>
  </separator>
  <separator name="symmetry" >
   <i type="int" name="ISYM">     2</i>
   <i name="SYMPREC">      0.00001000</i>
  </separator>
  <separator name="dos" >
   <i type="int" name="LORBIT">    10</i>
   <v name="RWIGS">     -1.00000000     -1.00000000</v>
   <i type="int" name="NEDOS">   301</i>
   <i name="EMIN">     10.00000000</i>
   <i name="EMAX">    -10.00000000</i>
   <i name="EFERMI">      0.00000000</i>
  </separator>
  <separator name="writing" >
   <i type="int" name="NWRITE">     2</i>
   <i type="logical" name="LWAVE"> T  </i>
   <i type="logical" name="LDOWNSAMPLE"> F  </i>
   <i type="logical" name="LCHARG"> T  </i>
   <i type="logical" name="LPARD"> F  </i>
   <i type="logical" name="LVTOT"> F  </i>
   <i type="logical" name="LVHAR"> F  </i>
   <i type="logical" name="LELF"> F  </i>
   <i type="logical" name="LOPTICS"> F  </i>
   <v name="STM">      0.00000000      0.00000000      0.00000000      0.00000000      0.00000000      0.00000000      0.00000000</v>
  </separator>
  <separator name="performance" >
   <i type="int" name="NPAR">    24</i>
   <i type="int" name="NSIM">     4</i>
   <i type="int" name="NBLK">    -1</i>
   <i type="logical" name="LPLANE"> T  </i>
   <i type="logical" name="LSCALAPACK"> T  </i>
   <i type="logical" name="LSCAAWARE"> F  </i>
   <i type="logical" name="LSCALU"> F  </i>
   <i type="logical" name="LASYNC"> F  </i>
   <i type="logical" name="LORBITALREAL"> F  </i>
  </separator>
  <separator name="miscellaneous" >
   <i type="int" name="IDIOT">     3</i>
   <i type="int" name="ISPECIAL">     0</i>
   <i type="logical" name="LMUSIC"> F  </i>
   <v name="POMASS">     30.97400000     28.08500000</v>
   <v name="DARWINR">      0.00000000      0.00000000</v>
   <v name="DARWINV">      1.00000000      1.00000000</v>
   <i type="logical" name="LCORR"> T  </i>
  </separator>
  <i type="logical" name="GGA_COMPAT"> T  </i>
  <i type="logical" name="LBERRY"> F  </i>
  <i type="int" name="ICORELEVEL">     0</i>
  <i type="logical" name="LDAU"> F  </i>
  <i type="int" name="I_CONSTRAINED_M">     0</i>
  <separator name="electronic exchange-correlation" >
   <i type="string" name="GGA">--</i>
   <i type="int" name="VOSKOWN">     0</i>
   <i type="logical" name="LHFCALC"> F  </i>
   <i type="string" name="PRECFOCK"></i>
   <i type="logical" name="LSYMGRAD"> F  </i>
   <i type="logical" name="LHFONE"> F  </i>
   <i type="logical" name="LRHFCALC"> F  </i>
   <i type="logical" name="LTHOMAS"> F  </i>
   <i type="logical" name="LMODELHF"> F  </i>
   <i name="ENCUT4O">     -1.00000000</i>
   <i type="int" name="EXXOEP">     0</i>
   <i type="int" name="FOURORBIT">     0</i>
   <i name="AEXX">      0.00000000</i>
   <i name="HFALPHA">      0.00000000</i>
   <i name="MCALPHA">      0.00000000</i>
   <i name="ALDAX">      1.00000000</i>
   <i name="AGGAX">      1.00000000</i>
   <i name="ALDAC">      1.00000000</i>
   <i name="AGGAC">      1.00000000</i>
   <i type="int" name="NKREDX">     1</i>
   <i type="int" name="NKREDY">     1</i>
   <i type="int" name="NKREDZ">     1</i>
   <i type="logical" name="SHIFTRED"> F  </i>
   <i type="logical" name="ODDONLY"> F  </i>
   <i type="logical" name="EVENONLY"> F  </i>
   <i type="int" name="LMAXFOCK">     0</i>
   <i type="int" name="NMAXFOCKAE">     0</i>
   <i type="logical" name="LFOCKAEDFT"> F  </i>
   <i name="HFSCREEN">      0.00000000</i>
   <i name="HFSCREENC">      0.00000000</i>
   <i type="int" name="NBANDSGWLOW">     0</i>
  </separator>
  <separator name="vdW DFT" >
   <i type="logical" name="LUSE_VDW"> F  </i>
   <i name="Zab_VDW">     -0.84910000</i>
   <i name="PARAM1">      0.12340000</i>
   <i name="PARAM2">      1.00000000</i>
   <i name="PARAM3">      0.00000000</i>
  </separator>
  <separator name="model GW" >
   <i type="int" name="MODEL_GW">     0</i>
   <i name="MODEL_EPS0">     12.01104290</i>
   <i name="MODEL_ALPHA">      1.00000000</i>
  </separator>
  <separator name="linear response parameters" >
   <i type="logical" name="LEPSILON"> F  </i>
   <i type="logical" name="LRPA"> F  </i>
   <i type="logical" name="LNABLA"> F  </i>
   <i type="logical" name="LVEL"> F  </i>
   <i type="int" name="KINTER">     0</i>
   <i name="CSHIFT">      0.10000000</i>
   <i name="OMEGAMAX">     -1.00000000</i>
   <i name="DEG_THRESHOLD">      0.00200000</i>
   <i name="RTIME">     -0.10000000</i>
   <i name="WPLASMAI">      0.00000000</i>
   <v name="DFIELD">      0.00000000      0.00000000      0.00000000</v>
   <v name="WPLASMA">      0.00000000      0.00000000      0.00000000      0.00000000      0.00000000      0.00000000      0.00000000      0.00000000      0.00000000</v>
  </separator>
  <separator name="orbital magnetization" >
   <i type="logical" name="NUCIND"> F  </i>
   <v name="MAGPOS">      0.00000000      0.00000000      0.00000000</v>
   <i type="logical" name="LNICSALL"> T  </i>
   <i type="logical" name="ORBITALMAG"> F  </i>
   <i type="logical" name="LMAGBLOCH"> F  </i>
   <i type="logical" name="LCHIMAG"> F  </i>
   <i type="logical" name="LGAUGE"> T  </i>
   <i type="int" name="MAGATOM">     0</i>
   <v name="MAGDIPOL">      0.00000000      0.00000000      0.00000000</v>
   <v name="AVECCONST">      0.00000000      0.00000000      0.00000000</v>
  </separator>
  <separator name="response functions" >
   <i type="logical" name="LADDER"> F  </i>
   <i type="logical" name="LRPAFORCE"> F  </i>
   <i type="logical" name="LFXC"> F  </i>
   <i type="logical" name="LHARTREE"> T  </i>
   <i type="int" name="IBSE">     0</i>
   <v type="int" name="KPOINT">    -1     0     0     0</v>
   <i type="logical" name="LTCTE"> F  </i>
   <i type="logical" name="LTETE"> F  </i>
   <i type="logical" name="LTRIPLET"> F  </i>
   <i type="logical" name="LFXCEPS"> F  </i>
   <i type="logical" name="LFXHEG"> F  </i>
   <i type="int" name="NATURALO">     2</i>
   <i type="logical" name="L2ORDER"> F  </i>
   <i type="logical" name="LMP2LT"> F  </i>
   <i type="logical" name="LUSEW"> F  </i>
   <i name="ENCUTGW">     -2.00000000</i>
   <i name="ENCUTGWSOFT">     -2.00000000</i>
   <i name="ENCUTLF">     -1.00000000</i>
   <i type="int" name="LMAXMP2">    -1</i>
   <i name="SCISSOR">      0.00000000</i>
   <i type="int" name="NOMEGA">     0</i>
   <i type="int" name="NOMEGAR">     0</i>
   <i type="int" name="NBANDSGW">    -1</i>
   <i type="int" name="NBANDSO">    -1</i>
   <i type="int" name="NBANDSV">    -1</i>
   <i type="int" name="NELM">   200</i>
   <i type="int" name="NELMHF">     1</i>
   <i type="int" name="DIM">     3</i>
   <i type="int" name="ANTIRES">     0</i>
   <i name="OMEGAMAX">    -30.00000000</i>
   <i name="OMEGAMIN">    -30.00000000</i>
   <i name="OMEGATL">   -200.00000000</i>
   <i type="int" name="OMEGAGRID">   140</i>
   <i name="CSHIFT">     -0.10000000</i>
   <i type="logical" name="SELFENERGY"> F  </i>
   <i type="logical" name="LSPECTRAL"> F  </i>
   <i type="logical" name="LSPECTRALGW"> F  </i>
   <i type="logical" name="LSINGLES"> F  </i>
   <i type="logical" name="LFERMIGW"> F  </i>
   <i type="logical" name="ODDONLYGW"> F  </i>
   <i type="logical" name="EVENONLYGW"> F  </i>
   <i type="int" name="NKREDLFX">     1</i>
   <i type="int" name="NKREDLFY">     1</i>
   <i type="int" name="NKREDLFZ">     1</i>
   <i type="int" name="MAXMEM">  2800</i>
   <i type="int" name="TELESCOPE">     0</i>
   <i type="int" name="TAUPAR">     1</i>
   <i type="int" name="OMEGAPAR">    -1</i>
   <i name="LAMBDA">      1.00000000</i>
  </separator>
  <separator name="External order field" >
   <i name="OFIELD_KAPPA">      0.00000000</i>
   <v name="OFIELD_K">      0.00000000      0.00000000      0.00000000</v>
   <i name="OFIELD_Q6_NEAR">      0.00000000</i>
   <i name="OFIELD_Q6_FAR">      0.00000000</i>
   <i name="OFIELD_A">      0.00000000</i>
  </separator>
 </parameters>
 <atominfo>
  <atoms>      54 </atoms>
  <types>       2 </types>
  <array name="atoms" >
   <dimension dim="1">ion</dimension>
   <field type="string">element</field>
   <field type="int">atomtype</field>
   <set>
    <rc><c>P </c><c>   1</c></rc>
    <rc><c>Si</c><c>   2</c></rc>
    <rc><c>Si</c><c>   2</c></rc>
    <rc><c>Si</c><c>   2</c></rc>
    <rc><c>Si</c><c>   2</c></rc>
    <rc><c>Si</c><c>   2</c></rc>
    <rc><c>Si</c><c>   2</c></rc>
    <rc><c>Si</c><c>   2</c></rc>
    <rc><c>Si</c><c>   2</c></rc>
    <rc><c>Si</c><c>   2</c></rc>
    <rc><c>Si</c><c>   2</c></rc>
    <rc><c>Si</c><c>   2</c></rc>
    <rc><c>Si</c><c>   2</c></rc>
    <rc><c>Si</c><c>   2</c></rc>
    <rc><c>Si</c><c>   2</c></rc>
    <rc><c>Si</c><c>   2</c></rc>
    <rc><c>Si</c><c>   2</c></rc>
    <rc><c>Si</c><c>   2</c></rc>
    <rc><c>Si</c><c>   2</c></rc>
    <rc><c>Si</c><c>   2</c></rc>
    <rc><c>Si</c><c>   2</c></rc>
    <rc><c>Si</c><c>   2</c></rc>
    <rc><c>Si</c><c>   2</c></rc>
    <rc><c>Si</c><c>   2</c></rc>
    <rc><c>Si</c><c>   2</c></rc>
    <rc><c>Si</c><c>   2</c></rc>
    <rc><c>Si</c><c>   2</c></rc>
    <rc><c>Si</c><c>   2</c></rc>
    <rc><c>Si</c><c>   2</c></rc>
    <rc><c>Si</c><c>   2</c></rc>
    <rc><c>Si</c><c>   2</c></rc>
    <rc><c>Si</c><c>   2</c></rc>
    <rc><c>Si</c><c>   2</c></rc>
    <rc><c>Si</c><c>   2</c></rc>
    <rc><c>Si</c><c>   2</c></rc>
    <rc><c>Si</c><c>   2</c></rc>
    <rc><c>Si</c><c>   2</c></rc>
    <rc><c>Si</c><c>   2</c></rc>
    <rc><c>Si</c><c>   2</c></rc>
    <rc><c>Si</c><c>   2</c></rc>
    <rc><c>Si</c><c>   2</c></rc>
    <rc><c>Si</c><c>   2</c></rc>
    <rc><c>Si</c><c>   2</c></rc>
    <rc><c>Si</c><c>   2</c></rc>
    <rc><c>Si</c><c>   2</c></rc>
    <rc><c>Si</c><c>   2</c></rc>
    <rc><c>Si</c><c>   2</c></rc>
    <rc><c>Si</c><c>   2</c></rc>
    <rc><c>Si</c><c>   2</c></rc>
    <rc><c>Si</c><c>   2</c></rc>
    <rc><c>Si</c><c>   2</c></rc>
    <rc><c>Si</c><c>   2</c></rc>
    <rc><c>Si</c><c>   2</c></rc>
    <rc><c>Si</c><c>   2</c></rc>
   </set>
  </array>
  <array name="atomtypes" >
   <dimension dim="1">type</dimension>
   <field type="int">atomspertype</field>
   <field type="string">element</field>
   <field>mass</field>
   <field>valence</field>
   <field type="string">pseudopotential</field>
   <set>
    <rc><c>   1</c><c>P </c><c>     30.97400000</c><c>      5.00000000</c><c>  PAW_PBE P 06Sep2000                   </c></rc>
    <rc><c>  53</c><c>Si</c><c>     28.08500000</c><c>      4.00000000</c><c>  PAW_PBE Si 05Jan2001                  </c></rc>
   </set>
  </array>
 </atominfo>
 <structure name="initialpos" >
  <crystal>
   <varray name="basis" >
    <v>       9.97646553       0.00000000       5.75991507 </v>
    <v>       3.32548851       9.40590192       5.75991507 </v>
    <v>       0.00000000       0.00000000      11.51983014 </v>
   </varray>
   <i name="volume">   1080.99386112 </i>
   <varray name="rec_basis" >
    <v>       0.10023590      -0.03543874       0.00000000 </v>
    <v>       0.00000000       0.10631623       0.00000000 </v>
    <v>      -0.05011795      -0.03543874       0.08680684 </v>
   </varray>
  </crystal>
  <varray name="positions" >
   <v>       0.29166667       0.29166667       0.29166667 </v>
   <v>       0.29166667       0.29166667       0.62500000 </v>
   <v>       0.29166667       0.29166667       0.95833333 </v>
   <v>       0.29166667       0.62500000       0.29166667 </v>
   <v>       0.29166667       0.62500000       0.62500000 </v>
   <v>       0.29166667       0.62500000       0.95833333 </v>
   <v>       0.29166667       0.95833333       0.29166667 </v>
   <v>       0.29166667       0.95833333       0.62500000 </v>
   <v>       0.29166667       0.95833333       0.95833333 </v>
   <v>       0.62500000       0.29166667       0.29166667 </v>
   <v>       0.62500000       0.29166667       0.62500000 </v>
   <v>       0.62500000       0.29166667       0.95833333 </v>
   <v>       0.62500000       0.62500000       0.29166667 </v>
   <v>       0.62500000       0.62500000       0.62500000 </v>
   <v>       0.62500000       0.62500000       0.95833333 </v>
   <v>       0.62500000       0.95833333       0.29166667 </v>
   <v>       0.62500000       0.95833333       0.62500000 </v>
   <v>       0.62500000       0.95833333       0.95833333 </v>
   <v>       0.95833333       0.29166667       0.29166667 </v>
   <v>       0.95833333       0.29166667       0.62500000 </v>
   <v>       0.95833333       0.29166667       0.95833333 </v>
   <v>       0.95833333       0.62500000       0.29166667 </v>
   <v>       0.95833333       0.62500000       0.62500000 </v>
   <v>       0.95833333       0.62500000       0.95833333 </v>
   <v>       0.95833333       0.95833333       0.29166667 </v>
   <v>       0.95833333       0.95833333       0.62500000 </v>
   <v>       0.95833333       0.95833333       0.95833333 </v>
   <v>       0.04166667       0.04166667       0.04166667 </v>
   <v>       0.04166667       0.04166667       0.37500000 </v>
   <v>       0.04166667       0.04166667       0.70833333 </v>
   <v>       0.04166667       0.37500000       0.04166667 </v>
   <v>       0.04166667       0.37500000       0.37500000 </v>
   <v>       0.04166667       0.37500000       0.70833333 </v>
   <v>       0.04166667       0.70833333       0.04166667 </v>
   <v>       0.04166667       0.70833333       0.37500000 </v>
   <v>       0.04166667       0.70833333       0.70833333 </v>
   <v>       0.37500000       0.04166667       0.04166667 </v>
   <v>       0.37500000       0.04166667       0.37500000 </v>
   <v>       0.37500000       0.04166667       0.70833333 </v>
   <v>       0.37500000       0.37500000       0.04166667 </v>
   <v>       0.37500000       0.37500000       0.37500000 </v>
   <v>       0.37500000       0.37500000       0.70833333 </v>
   <v>       0.37500000       0.70833333       0.04166667 </v>
   <v>       0.37500000       0.70833333       0.37500000 </v>
   <v>       0.37500000       0.70833333       0.70833333 </v>
   <v>       0.70833333       0.04166667       0.04166667 </v>
   <v>       0.70833333       0.04166667       0.37500000 </v>
   <v>       0.70833333       0.04166667       0.70833333 </v>
   <v>       0.70833333       0.37500000       0.04166667 </v>
   <v>       0.70833333       0.37500000       0.37500000 </v>
   <v>       0.70833333       0.37500000       0.70833333 </v>
   <v>       0.70833333       0.70833333       0.04166667 </v>
   <v>       0.70833333       0.70833333       0.37500000 </v>
   <v>       0.70833333       0.70833333       0.70833333 </v>
  </varray>
 </structure>
 <calculation>
  <scstep>
   <time name="dav">    3.47    3.54</time>
   <time name="total">    3.82    3.90</time>
   <energy>
    <i name="alphaZ">     93.56316191 </i>
    <i name="ewald">  -6229.80980546 </i>
    <i name="hartreedc">   -311.93506175 </i>
    <i name="XCdc">   -489.62529972 </i>
    <i name="pawpsdc">   4810.32140949 </i>
    <i name="pawaedc">  -3869.71602298 </i>
    <i name="eentropy">     -0.02338853 </i>
    <i name="bandstr">    921.89595728 </i>
    <i name="atom">   5638.56506835 </i>
    <i name="e_fr_energy">    563.23601859 </i>
    <i name="e_wo_entrp">    563.25940712 </i>
    <i name="e_0_energy">    563.24771285 </i>
   </energy>
  </scstep>
  <scstep>
   <time name="dav">    3.95    3.99</time>
   <time name="total">    3.95    3.99</time>
   <energy>
    <i name="e_fr_energy">   -252.51850605 </i>
    <i name="e_wo_entrp">   -252.51850605 </i>
    <i name="e_0_energy">   -252.51850605 </i>
   </energy>
  </scstep>
  <scstep>
   <time name="dav">    4.74    4.79</time>
   <time name="total">    4.97    5.02</time>
   <energy>
    <i name="e_fr_energy">   -302.73878094 </i>
    <i name="e_wo_entrp">   -302.73878094 </i>
    <i name="e_0_energy">   -302.73878094 </i>
   </energy>
  </scstep>
  <scstep>
   <time name="dav">    8.56    8.66</time>
   <time name="total">    8.57    8.67</time>
   <energy>
    <i name="e_fr_energy">   -303.75027922 </i>
    <i name="e_wo_entrp">   -303.75027922 </i>
    <i name="e_0_energy">   -303.75027922 </i>
   </energy>
  </scstep>
  <scstep>
   <time name="dav">    4.96    5.01</time>
   <time name="total">    5.29    5.35</time>
   <energy>
    <i name="e_fr_energy">   -303.77185826 </i>
    <i name="e_wo_entrp">   -303.77185826 </i>
    <i name="e_0_energy">   -303.77185826 </i>
   </energy>
  </scstep>
  <scstep>
   <time name="dav">    4.58    4.63</time>
   <time name="total">    5.14    5.19</time>
   <energy>
    <i name="e_fr_energy">   -301.96201346 </i>
    <i name="e_wo_entrp">   -301.96201346 </i>
    <i name="e_0_energy">   -301.96201346 </i>
   </energy>
  </scstep>
  <scstep>
   <time name="dav">    5.05    5.10</time>
   <time name="total">    6.29    6.36</time>
   <energy>
    <i name="e_fr_energy">   -298.99519935 </i>
    <i name="e_wo_entrp">   -298.99519679 </i>
    <i name="e_0_energy">   -298.99519807 </i>
   </energy>
  </scstep>
  <scstep>
   <time name="dav">    4.81    4.87</time>
   <time name="total">    5.22    5.27</time>
   <energy>
    <i name="e_fr_energy">   -298.95568226 </i>
    <i name="e_wo_entrp">   -298.95568226 </i>
    <i name="e_0_energy">   -298.95568226 </i>
   </energy>
  </scstep>
  <scstep>
   <time name="dav">    4.37    4.41</time>
   <time name="total">    5.02    5.14</time>
   <energy>
    <i name="e_fr_energy">   -298.97699891 </i>
    <i name="e_wo_entrp">   -298.97699891 </i>
    <i name="e_0_energy">   -298.97699891 </i>
   </energy>
  </scstep>
  <scstep>
   <time name="dav">    4.17    4.55</time>
   <time name="total">    5.56    6.10</time>
   <energy>
    <i name="e_fr_energy">   -298.97802757 </i>
    <i name="e_wo_entrp">   -298.97802757 </i>
    <i name="e_0_energy">   -298.97802757 </i>
   </energy>
  </scstep>
  <scstep>
   <time name="dav">    6.45    6.52</time>
   <time name="total">    7.52    7.60</time>
   <energy>
    <i name="e_fr_energy">   -298.98594902 </i>
    <i name="e_wo_entrp">   -298.98594902 </i>
    <i name="e_0_energy">   -298.98594902 </i>
   </energy>
  </scstep>
  <scstep>
   <time name="dav">    4.20    4.24</time>
   <time name="total">    4.60    4.64</time>
   <energy>
    <i name="e_fr_energy">   -298.98549810 </i>
    <i name="e_wo_entrp">   -298.98549810 </i>
    <i name="e_0_energy">   -298.98549810 </i>
   </energy>
  </scstep>
  <scstep>
   <time name="dav">    4.00    4.04</time>
   <time name="total">    4.28    4.31</time>
   <energy>
    <i name="e_fr_energy">   -298.98615970 </i>
    <i name="e_wo_entrp">   -298.98615970 </i>
    <i name="e_0_energy">   -298.98615970 </i>
   </energy>
  </scstep>
  <scstep>
   <time name="dav">    4.50    4.54</time>
   <time name="total">    4.77    4.81</time>
   <energy>
    <i name="e_fr_energy">   -298.98701125 </i>
    <i name="e_wo_entrp">   -298.98701125 </i>
    <i name="e_0_energy">   -298.98701125 </i>
   </energy>
  </scstep>
  <scstep>
   <time name="dav">    3.97    4.01</time>
   <time name="total">    4.24    4.28</time>
   <energy>
    <i name="e_fr_energy">   -298.98699859 </i>
    <i name="e_wo_entrp">   -298.98699859 </i>
    <i name="e_0_energy">   -298.98699859 </i>
   </energy>
  </scstep>
  <scstep>
   <time name="dav">    4.59    4.63</time>
   <time name="total">    4.86    4.90</time>
   <energy>
    <i name="e_fr_energy">   -298.98698955 </i>
    <i name="e_wo_entrp">   -298.98698955 </i>
    <i name="e_0_energy">   -298.98698955 </i>
   </energy>
  </scstep>
  <scstep>
   <time name="dav">    3.86    3.89</time>
   <time name="total">    4.13    4.16</time>
   <energy>
    <i name="e_fr_energy">   -298.98699623 </i>
    <i name="e_wo_entrp">   -298.98699623 </i>
    <i name="e_0_energy">   -298.98699623 </i>
   </energy>
  </scstep>
  <scstep>
   <time name="dav">    4.11    4.15</time>
   <time name="total">    4.63    4.68</time>
   <energy>
    <i name="e_fr_energy">   -298.98699780 </i>
    <i name="e_wo_entrp">   -298.98699780 </i>
    <i name="e_0_energy">   -298.98699780 </i>
   </energy>
  </scstep>
  <scstep>
   <time name="dav">    3.94    3.99</time>
   <time name="total">    4.57    4.62</time>
   <energy>
    <i name="e_fr_energy">   -298.98699975 </i>
    <i name="e_wo_entrp">   -298.98699975 </i>
    <i name="e_0_energy">   -298.98699975 </i>
   </energy>
  </scstep>
  <scstep>
   <time name="dav">    3.53    3.57</time>
   <time name="total">    3.94    3.98</time>
   <energy>
    <i name="alphaZ">     93.56316191 </i>
    <i name="ewald">  -6229.80980546 </i>
    <i name="hartreedc">   -415.25453308 </i>
    <i name="XCdc">   -475.43972472 </i>
    <i name="pawpsdc">  23287.25005309 </i>
    <i name="pawaedc"> -22352.42280894 </i>
    <i name="eentropy">     -0.00000000 </i>
    <i name="bandstr">    154.56158824 </i>
    <i name="atom">   5638.56506835 </i>
    <i name="e_fr_energy">   -298.98700060 </i>
    <i name="e_wo_entrp">   -298.98700060 </i>
    <i name="e_0_energy">   -298.98700060 </i>
   </energy>
  </scstep>
  <structure>
   <crystal>
    <varray name="basis" >
     <v>       9.97646553       0.00000000       5.75991507 </v>
     <v>       3.32548851       9.40590192       5.75991507 </v>
     <v>       0.00000000       0.00000000      11.51983014 </v>
    </varray>
    <i name="volume">   1080.99386112 </i>
    <varray name="rec_basis" >
     <v>       0.10023590      -0.03543874       0.00000000 </v>
     <v>       0.00000000       0.10631623       0.00000000 </v>
     <v>      -0.05011795      -0.03543874       0.08680684 </v>
    </varray>
   </crystal>
   <varray name="positions" >
    <v>       0.29166667       0.29166667       0.29166667 </v>
    <v>       0.29166667       0.29166667       0.62500000 </v>
    <v>       0.29166667       0.29166667       0.95833333 </v>
    <v>       0.29166667       0.62500000       0.29166667 </v>
    <v>       0.29166667       0.62500000       0.62500000 </v>
    <v>       0.29166667       0.62500000       0.95833333 </v>
    <v>       0.29166667       0.95833333       0.29166667 </v>
    <v>       0.29166667       0.95833333       0.62500000 </v>
    <v>       0.29166667       0.95833333       0.95833333 </v>
    <v>       0.62500000       0.29166667       0.29166667 </v>
    <v>       0.62500000       0.29166667       0.62500000 </v>
    <v>       0.62500000       0.29166667       0.95833333 </v>
    <v>       0.62500000       0.62500000       0.29166667 </v>
    <v>       0.62500000       0.62500000       0.62500000 </v>
    <v>       0.62500000       0.62500000       0.95833333 </v>
    <v>       0.62500000       0.95833333       0.29166667 </v>
    <v>       0.62500000       0.95833333       0.62500000 </v>
    <v>       0.62500000       0.95833333       0.95833333 </v>
    <v>       0.95833333       0.29166667       0.29166667 </v>
    <v>       0.95833333       0.29166667       0.62500000 </v>
    <v>       0.95833333       0.29166667       0.95833333 </v>
    <v>       0.95833333       0.62500000       0.29166667 </v>
    <v>       0.95833333       0.62500000       0.62500000 </v>
    <v>       0.95833333       0.62500000       0.95833333 </v>
    <v>       0.95833333       0.95833333       0.29166667 </v>
    <v>       0.95833333       0.95833333       0.62500000 </v>
    <v>       0.95833333       0.95833333       0.95833333 </v>
    <v>       0.04166667       0.04166667       0.04166667 </v>
    <v>       0.04166667       0.04166667       0.37500000 </v>
    <v>       0.04166667       0.04166667       0.70833333 </v>
    <v>       0.04166667       0.37500000       0.04166667 </v>
    <v>       0.04166667       0.37500000       0.37500000 </v>
    <v>       0.04166667       0.37500000       0.70833333 </v>
    <v>       0.04166667       0.70833333       0.04166667 </v>
    <v>       0.04166667       0.70833333       0.37500000 </v>
    <v>       0.04166667       0.70833333       0.70833333 </v>
    <v>       0.37500000       0.04166667       0.04166667 </v>
    <v>       0.37500000       0.04166667       0.37500000 </v>
    <v>       0.37500000       0.04166667       0.70833333 </v>
    <v>       0.37500000       0.37500000       0.04166667 </v>
    <v>       0.37500000       0.37500000       0.37500000 </v>
    <v>       0.37500000       0.37500000       0.70833333 </v>
    <v>       0.37500000       0.70833333       0.04166667 </v>
    <v>       0.37500000       0.70833333       0.37500000 </v>
    <v>       0.37500000       0.70833333       0.70833333 </v>
    <v>       0.70833333       0.04166667       0.04166667 </v>
    <v>       0.70833333       0.04166667       0.37500000 </v>
    <v>       0.70833333       0.04166667       0.70833333 </v>
    <v>       0.70833333       0.37500000       0.04166667 </v>
    <v>       0.70833333       0.37500000       0.37500000 </v>
    <v>       0.70833333       0.37500000       0.70833333 </v>
    <v>       0.70833333       0.70833333       0.04166667 </v>
    <v>       0.70833333       0.70833333       0.37500000 </v>
    <v>       0.70833333       0.70833333       0.70833333 </v>
   </varray>
  </structure>
  <varray name="forces" >
   <v>      -0.00000000      -0.00000000       0.00000000 </v>
   <v>      -0.23295112      -0.16472132      -0.03108134 </v>
   <v>      -0.23295112      -0.16472132       0.03108134 </v>
   <v>      -0.12544797       0.13934351      -0.21728226 </v>
   <v>      -0.06173727       0.02182742      -0.00000000 </v>
   <v>      -0.12544797       0.13934351       0.21728226 </v>
   <v>      -0.10750315       0.19009913      -0.18620092 </v>
   <v>      -0.10750315       0.19009913       0.18620092 </v>
   <v>      -0.06953109       0.02458295       0.00000000 </v>
   <v>       0.08955833      -0.16472132      -0.21728226 </v>
   <v>      -0.00000000      -0.06548227      -0.00000000 </v>
   <v>       0.08955833      -0.16472132       0.21728226 </v>
   <v>       0.03086864       0.02182742      -0.05346605 </v>
   <v>       0.03086864       0.02182742       0.05346605 </v>
   <v>       0.00466422       0.00329810       0.00000000 </v>
   <v>       0.21500631       0.19009913       0.00000000 </v>
   <v>       0.00233211      -0.00329810       0.00403933 </v>
   <v>       0.00233211      -0.00329810      -0.00403933 </v>
   <v>       0.14339279      -0.16472132      -0.18620092 </v>
   <v>       0.14339279      -0.16472132       0.18620092 </v>
   <v>      -0.00000000      -0.07374885       0.00000000 </v>
   <v>       0.25089594       0.13934351      -0.00000000 </v>
   <v>      -0.00233211       0.00329810       0.00403933 </v>
   <v>      -0.00233211       0.00329810      -0.00403933 </v>
   <v>       0.03476554       0.02458295      -0.06021569 </v>
   <v>      -0.00466422      -0.00329810       0.00000000 </v>
   <v>       0.03476554       0.02458295       0.06021569 </v>
   <v>      -0.00000000      -0.00000000       0.00000000 </v>
   <v>      -0.04532018      -0.03204621       0.05537630 </v>
   <v>      -0.04532018      -0.03204621      -0.05537630 </v>
   <v>      -0.00667433       0.07726077      -0.01156028 </v>
   <v>       0.00879213      -0.00310849       0.00000000 </v>
   <v>      -0.00667433       0.07726077       0.01156028 </v>
   <v>      -0.03864585      -0.01316835      -0.06693658 </v>
   <v>      -0.03864585      -0.01316835       0.06693658 </v>
   <v>      -0.00187946       0.00066449       0.00000000 </v>
   <v>       0.07061738      -0.03204621      -0.01156028 </v>
   <v>      -0.00000000       0.00932546       0.00000000 </v>
   <v>       0.07061738      -0.03204621       0.01156028 </v>
   <v>      -0.00439607      -0.00310849       0.00761421 </v>
   <v>      -0.00439607      -0.00310849      -0.00761421 </v>
   <v>       0.21268619       0.15039185      -0.00000000 </v>
   <v>       0.07729171      -0.01316835       0.00000000 </v>
   <v>       0.10634310      -0.15039185       0.18419165 </v>
   <v>       0.10634310      -0.15039185      -0.18419165 </v>
   <v>      -0.02529719      -0.03204621      -0.06693658 </v>
   <v>      -0.02529719      -0.03204621       0.06693658 </v>
   <v>      -0.00000000      -0.00199346       0.00000000 </v>
   <v>       0.01334866       0.07726077       0.00000000 </v>
   <v>      -0.10634310       0.15039185       0.18419165 </v>
   <v>      -0.10634310       0.15039185      -0.18419165 </v>
   <v>       0.00093973       0.00066449      -0.00162766 </v>
   <v>      -0.21268619      -0.15039185      -0.00000000 </v>
   <v>       0.00093973       0.00066449       0.00162766 </v>
  </varray>
  <varray name="stress" >
   <v>       2.27952490       0.00000000       0.00000000 </v>
   <v>       0.00000000       2.27952491      -0.00000000 </v>
   <v>       0.00000000       0.00000000       2.27952491 </v>
  </varray>
  <energy>
   <i name="e_fr_energy">   -298.98700060 </i>
   <i name="e_wo_entrp">   -298.98700060 </i>
   <i name="e_0_energy">     -0.00000000 </i>
  </energy>
  <time name="totalsc">  113.85  115.63</time>
  <eigenvalues>
   <array>
    <dimension dim="1">band</dimension>
    <dimension dim="2">kpoint</dimension>
    <dimension dim="3">spin</dimension>
    <field>eigene</field>
    <field>occ</field>
    <set>
     <set comment="spin 1">
      <set comment="kpoint 1">
       <r>   -6.7616    1.0000 </r>
       <r>   -5.8220    1.0000 </r>
       <r>   -4.7869    1.0000 </r>
       <r>   -4.7869    1.0000 </r>
       <r>   -4.7869    1.0000 </r>
       <r>   -4.7229    1.0000 </r>
       <r>   -4.7229    1.0000 </r>
       <r>   -4.7229    1.0000 </r>
       <r>   -4.6885    1.0000 </r>
       <r>   -4.3487    1.0000 </r>
       <r>   -4.2202    1.0000 </r>
       <r>   -4.2202    1.0000 </r>
       <r>   -4.2202    1.0000 </r>
       <r>   -4.2046    1.0000 </r>
       <r>   -4.2046    1.0000 </r>
       <r>   -3.4139    1.0000 </r>
       <r>   -2.9560    1.0000 </r>
       <r>   -2.9560    1.0000 </r>
       <r>   -2.9560    1.0000 </r>
       <r>   -2.8577    1.0000 </r>
       <r>   -2.8577    1.0000 </r>
       <r>   -2.8577    1.0000 </r>
       <r>   -2.8284    1.0000 </r>
       <r>   -2.8284    1.0000 </r>
       <r>   -2.7964    1.0000 </r>
       <r>   -2.7964    1.0000 </r>
       <r>   -2.7964    1.0000 </r>
       <r>   -1.4380    1.0000 </r>
       <r>   -1.0836    1.0000 </r>
       <r>   -1.0836    1.0000 </r>
       <r>   -1.0836    1.0000 </r>
       <r>   -0.9369    1.0000 </r>
       <r>   -0.9369    1.0000 </r>
       <r>   -0.9369    1.0000 </r>
       <r>   -0.9010    1.0000 </r>
       <r>   -0.9010    1.0000 </r>
       <r>   -0.8711    1.0000 </r>
       <r>   -0.8711    1.0000 </r>
       <r>   -0.8711    1.0000 </r>
       <r>    0.2428    1.0000 </r>
       <r>    0.3240    1.0000 </r>
       <r>    0.3240    1.0000 </r>
       <r>    0.3240    1.0000 </r>
       <r>    0.5080    1.0000 </r>
       <r>    0.5080    1.0000 </r>
       <r>    0.5080    1.0000 </r>
       <r>    0.5261    1.0000 </r>
       <r>    0.7867    1.0000 </r>
       <r>    0.7984    1.0000 </r>
       <r>    0.7984    1.0000 </r>
       <r>    0.7984    1.0000 </r>
       <r>    0.8363    1.0000 </r>
       <r>    0.8363    1.0000 </r>
       <r>    1.1867    1.0000 </r>
       <r>    1.1867    1.0000 </r>
       <r>    1.1867    1.0000 </r>
       <r>    1.4012    1.0000 </r>
       <r>    1.4012    1.0000 </r>
       <r>    1.4740    1.0000 </r>
       <r>    1.4740    1.0000 </r>
       <r>    1.4740    1.0000 </r>
       <r>    1.4949    1.0000 </r>
       <r>    1.4949    1.0000 </r>
       <r>    1.4949    1.0000 </r>
       <r>    1.4963    1.0000 </r>
       <r>    2.9527    1.0000 </r>
       <r>    2.9527    1.0000 </r>
       <r>    2.9527    1.0000 </r>
       <r>    3.3887    1.0000 </r>
       <r>    3.3887    1.0000 </r>
       <r>    3.3887    1.0000 </r>
       <r>    3.4235    1.0000 </r>
       <r>    3.4235    1.0000 </r>
       <r>    3.4235    1.0000 </r>
       <r>    3.4483    1.0000 </r>
       <r>    3.4483    1.0000 </r>
       <r>    3.4483    1.0000 </r>
       <r>    3.6742    1.0000 </r>
       <r>    3.6742    1.0000 </r>
       <r>    3.6742    1.0000 </r>
       <r>    3.7235    1.0000 </r>
       <r>    3.7235    1.0000 </r>
       <r>    3.7235    1.0000 </r>
       <r>    3.7298    1.0000 </r>
       <r>    3.7298    1.0000 </r>
       <r>    3.7438    1.0000 </r>
       <r>    3.7633    1.0000 </r>
       <r>    3.7633    1.0000 </r>
       <r>    3.7633    1.0000 </r>
       <r>    4.5829    1.0000 </r>
       <r>    4.5829    1.0000 </r>
       <r>    4.5829    1.0000 </r>
       <r>    4.8116    1.0000 </r>
       <r>    4.8116    1.0000 </r>
       <r>    4.8145    1.0000 </r>
       <r>    4.8145    1.0000 </r>
       <r>    4.8145    1.0000 </r>
       <r>    4.8789    1.0000 </r>
       <r>    4.8789    1.0000 </r>
       <r>    4.8789    1.0000 </r>
       <r>    4.8816    1.0000 </r>
       <r>    4.8816    1.0000 </r>
       <r>    4.8822    1.0000 </r>
       <r>    4.8822    1.0000 </r>
       <r>    4.8822    1.0000 </r>
       <r>    5.8149    1.0000 </r>
       <r>    5.8149    1.0000 </r>
       <r>    5.8149    1.0000 </r>
       <r>    6.2612    0.0000 </r>
       <r>    6.5073    0.0000 </r>
       <r>    6.5073    0.0000 </r>
       <r>    6.5073    0.0000 </r>
       <r>    6.5693    0.0000 </r>
       <r>    6.5693    0.0000 </r>
       <r>    6.9119    0.0000 </r>
       <r>    7.3044    0.0000 </r>
       <r>    7.3044    0.0000 </r>
       <r>    7.3044    0.0000 </r>
       <r>    7.3722    0.0000 </r>
       <r>    7.3722    0.0000 </r>
       <r>    7.4118    0.0000 </r>
       <r>    7.4118    0.0000 </r>
       <r>    7.4118    0.0000 </r>
       <r>    7.4304    0.0000 </r>
       <r>    7.4304    0.0000 </r>
       <r>    7.4304    0.0000 </r>
       <r>    7.5425    0.0000 </r>
       <r>    7.5703    0.0000 </r>
       <r>    7.5703    0.0000 </r>
       <r>    7.5703    0.0000 </r>
       <r>    7.6450    0.0000 </r>
       <r>    7.6521    0.0000 </r>
       <r>    7.6521    0.0000 </r>
       <r>    7.6521    0.0000 </r>
       <r>    7.8360    0.0000 </r>
       <r>    7.8360    0.0000 </r>
       <r>    7.8360    0.0000 </r>
       <r>    7.8446    0.0000 </r>
       <r>    7.8446    0.0000 </r>
       <r>    7.8520    0.0000 </r>
       <r>    8.3454    0.0000 </r>
       <r>    8.3454    0.0000 </r>
       <r>    8.3454    0.0000 </r>
       <r>    9.1383    0.0000 </r>
      </set>
      <set comment="kpoint 2">
       <r>   -6.7447    1.0000 </r>
       <r>   -5.7919    1.0000 </r>
       <r>   -5.2285    1.0000 </r>
       <r>   -4.8844    1.0000 </r>
       <r>   -4.8844    1.0000 </r>
       <r>   -4.6936    1.0000 </r>
       <r>   -4.6106    1.0000 </r>
       <r>   -4.6106    1.0000 </r>
       <r>   -4.5175    1.0000 </r>
       <r>   -4.4438    1.0000 </r>
       <r>   -4.4438    1.0000 </r>
       <r>   -4.1945    1.0000 </r>
       <r>   -3.8635    1.0000 </r>
       <r>   -3.6896    1.0000 </r>
       <r>   -3.6896    1.0000 </r>
       <r>   -3.5872    1.0000 </r>
       <r>   -3.4525    1.0000 </r>
       <r>   -3.4525    1.0000 </r>
       <r>   -3.0995    1.0000 </r>
       <r>   -2.9042    1.0000 </r>
       <r>   -2.9042    1.0000 </r>
       <r>   -2.8528    1.0000 </r>
       <r>   -2.8060    1.0000 </r>
       <r>   -2.8060    1.0000 </r>
       <r>   -2.6705    1.0000 </r>
       <r>   -2.5846    1.0000 </r>
       <r>   -2.5846    1.0000 </r>
       <r>   -1.5190    1.0000 </r>
       <r>   -1.2347    1.0000 </r>
       <r>   -1.2347    1.0000 </r>
       <r>   -1.2009    1.0000 </r>
       <r>   -1.0526    1.0000 </r>
       <r>   -1.0526    1.0000 </r>
       <r>   -0.9728    1.0000 </r>
       <r>   -0.9293    1.0000 </r>
       <r>   -0.9293    1.0000 </r>
       <r>   -0.6743    1.0000 </r>
       <r>   -0.5211    1.0000 </r>
       <r>   -0.4898    1.0000 </r>
       <r>   -0.4898    1.0000 </r>
       <r>   -0.1157    1.0000 </r>
       <r>   -0.0088    1.0000 </r>
       <r>   -0.0088    1.0000 </r>
       <r>    0.1143    1.0000 </r>
       <r>    0.1143    1.0000 </r>
       <r>    0.1468    1.0000 </r>
       <r>    0.8368    1.0000 </r>
       <r>    0.8726    1.0000 </r>
       <r>    0.8726    1.0000 </r>
       <r>    1.2532    1.0000 </r>
       <r>    1.2778    1.0000 </r>
       <r>    1.2778    1.0000 </r>
       <r>    1.4156    1.0000 </r>
       <r>    1.4715    1.0000 </r>
       <r>    1.4715    1.0000 </r>
       <r>    1.6073    1.0000 </r>
       <r>    1.6073    1.0000 </r>
       <r>    1.6496    1.0000 </r>
       <r>    1.6754    1.0000 </r>
       <r>    1.6754    1.0000 </r>
       <r>    1.6776    1.0000 </r>
       <r>    1.7708    1.0000 </r>
       <r>    1.8358    1.0000 </r>
       <r>    1.8358    1.0000 </r>
       <r>    1.9432    1.0000 </r>
       <r>    2.6720    1.0000 </r>
       <r>    2.8045    1.0000 </r>
       <r>    2.8045    1.0000 </r>
       <r>    3.0614    1.0000 </r>
       <r>    3.0614    1.0000 </r>
       <r>    3.1547    1.0000 </r>
       <r>    3.2721    1.0000 </r>
       <r>    3.3537    1.0000 </r>
       <r>    3.3537    1.0000 </r>
       <r>    3.4169    1.0000 </r>
       <r>    3.4169    1.0000 </r>
       <r>    3.4218    1.0000 </r>
       <r>    3.4410    1.0000 </r>
       <r>    3.4410    1.0000 </r>
       <r>    3.4562    1.0000 </r>
       <r>    3.5088    1.0000 </r>
       <r>    3.5222    1.0000 </r>
       <r>    3.5222    1.0000 </r>
       <r>    3.6541    1.0000 </r>
       <r>    3.6541    1.0000 </r>
       <r>    3.7160    1.0000 </r>
       <r>    3.8887    1.0000 </r>
       <r>    3.9900    1.0000 </r>
       <r>    3.9900    1.0000 </r>
       <r>    4.0602    1.0000 </r>
       <r>    4.0602    1.0000 </r>
       <r>    4.1286    1.0000 </r>
       <r>    4.4343    1.0000 </r>
       <r>    4.4343    1.0000 </r>
       <r>    4.4753    1.0000 </r>
       <r>    4.5323    1.0000 </r>
       <r>    4.5669    1.0000 </r>
       <r>    4.5669    1.0000 </r>
       <r>    4.6559    1.0000 </r>
       <r>    4.6559    1.0000 </r>
       <r>    4.8216    1.0000 </r>
       <r>    4.8216    1.0000 </r>
       <r>    4.8591    1.0000 </r>
       <r>    4.9721    1.0000 </r>
       <r>    5.0641    1.0000 </r>
       <r>    5.0641    1.0000 </r>
       <r>    5.6749    1.0000 </r>
       <r>    5.6749    1.0000 </r>
       <r>    6.5135    0.0000 </r>
       <r>    6.6853    0.0000 </r>
       <r>    6.6853    0.0000 </r>
       <r>    6.8058    0.0000 </r>
       <r>    6.9992    0.0000 </r>
       <r>    6.9992    0.0000 </r>
       <r>    7.0792    0.0000 </r>
       <r>    7.1121    0.0000 </r>
       <r>    7.1121    0.0000 </r>
       <r>    7.3223    0.0000 </r>
       <r>    7.5068    0.0000 </r>
       <r>    7.6663    0.0000 </r>
       <r>    7.6663    0.0000 </r>
       <r>    7.7520    0.0000 </r>
       <r>    7.8203    0.0000 </r>
       <r>    7.8203    0.0000 </r>
       <r>    7.8578    0.0000 </r>
       <r>    7.9141    0.0000 </r>
       <r>    7.9291    0.0000 </r>
       <r>    7.9291    0.0000 </r>
       <r>    7.9827    0.0000 </r>
       <r>    7.9827    0.0000 </r>
       <r>    7.9995    0.0000 </r>
       <r>    8.0393    0.0000 </r>
       <r>    8.0410    0.0000 </r>
       <r>    8.0410    0.0000 </r>
       <r>    8.1395    0.0000 </r>
       <r>    8.1576    0.0000 </r>
       <r>    8.1576    0.0000 </r>
       <r>    8.3908    0.0000 </r>
       <r>    8.5487    0.0000 </r>
       <r>    8.5487    0.0000 </r>
       <r>    8.5976    0.0000 </r>
       <r>    8.6239    0.0000 </r>
       <r>    8.6239    0.0000 </r>
       <r>    8.9832    0.0000 </r>
      </set>
      <set comment="kpoint 3">
       <r>   -6.7269    1.0000 </r>
       <r>   -5.7267    1.0000 </r>
       <r>   -5.4697    1.0000 </r>
       <r>   -4.8785    1.0000 </r>
       <r>   -4.8785    1.0000 </r>
       <r>   -4.7767    1.0000 </r>
       <r>   -4.7767    1.0000 </r>
       <r>   -4.7545    1.0000 </r>
       <r>   -4.3901    1.0000 </r>
       <r>   -4.0500    1.0000 </r>
       <r>   -4.0395    1.0000 </r>
       <r>   -4.0395    1.0000 </r>
       <r>   -3.9952    1.0000 </r>
       <r>   -3.9952    1.0000 </r>
       <r>   -3.8173    1.0000 </r>
       <r>   -3.3839    1.0000 </r>
       <r>   -3.0939    1.0000 </r>
       <r>   -3.0782    1.0000 </r>
       <r>   -3.0782    1.0000 </r>
       <r>   -3.0454    1.0000 </r>
       <r>   -3.0454    1.0000 </r>
       <r>   -2.9242    1.0000 </r>
       <r>   -2.8821    1.0000 </r>
       <r>   -2.8821    1.0000 </r>
       <r>   -2.8479    1.0000 </r>
       <r>   -2.7997    1.0000 </r>
       <r>   -2.7997    1.0000 </r>
       <r>   -1.4706    1.0000 </r>
       <r>   -1.2122    1.0000 </r>
       <r>   -1.1130    1.0000 </r>
       <r>   -1.1130    1.0000 </r>
       <r>   -1.0070    1.0000 </r>
       <r>   -0.9694    1.0000 </r>
       <r>   -0.9694    1.0000 </r>
       <r>   -0.8727    1.0000 </r>
       <r>   -0.7522    1.0000 </r>
       <r>   -0.7522    1.0000 </r>
       <r>   -0.7243    1.0000 </r>
       <r>   -0.7109    1.0000 </r>
       <r>   -0.7109    1.0000 </r>
       <r>   -0.2387    1.0000 </r>
       <r>   -0.2387    1.0000 </r>
       <r>   -0.2318    1.0000 </r>
       <r>   -0.1616    1.0000 </r>
       <r>   -0.1523    1.0000 </r>
       <r>   -0.1523    1.0000 </r>
       <r>    1.1569    1.0000 </r>
       <r>    1.1750    1.0000 </r>
       <r>    1.1750    1.0000 </r>
       <r>    1.4158    1.0000 </r>
       <r>    1.4158    1.0000 </r>
       <r>    1.4506    1.0000 </r>
       <r>    1.6531    1.0000 </r>
       <r>    1.6531    1.0000 </r>
       <r>    1.7455    1.0000 </r>
       <r>    1.8630    1.0000 </r>
       <r>    1.8681    1.0000 </r>
       <r>    1.8681    1.0000 </r>
       <r>    1.8807    1.0000 </r>
       <r>    2.1472    1.0000 </r>
       <r>    2.1472    1.0000 </r>
       <r>    2.2184    1.0000 </r>
       <r>    2.2184    1.0000 </r>
       <r>    2.2378    1.0000 </r>
       <r>    2.5072    1.0000 </r>
       <r>    2.7314    1.0000 </r>
       <r>    2.7450    1.0000 </r>
       <r>    2.7450    1.0000 </r>
       <r>    2.8015    1.0000 </r>
       <r>    2.8015    1.0000 </r>
       <r>    2.9762    1.0000 </r>
       <r>    2.9762    1.0000 </r>
       <r>    3.0140    1.0000 </r>
       <r>    3.0818    1.0000 </r>
       <r>    3.1091    1.0000 </r>
       <r>    3.1091    1.0000 </r>
       <r>    3.1209    1.0000 </r>
       <r>    3.1209    1.0000 </r>
       <r>    3.2542    1.0000 </r>
       <r>    3.3292    1.0000 </r>
       <r>    3.3295    1.0000 </r>
       <r>    3.3295    1.0000 </r>
       <r>    3.4020    1.0000 </r>
       <r>    3.4309    1.0000 </r>
       <r>    3.7287    1.0000 </r>
       <r>    3.7885    1.0000 </r>
       <r>    3.7885    1.0000 </r>
       <r>    3.8888    1.0000 </r>
       <r>    3.8888    1.0000 </r>
       <r>    3.8888    1.0000 </r>
       <r>    3.9214    1.0000 </r>
       <r>    3.9214    1.0000 </r>
       <r>    4.0831    1.0000 </r>
       <r>    4.0942    1.0000 </r>
       <r>    4.0942    1.0000 </r>
       <r>    4.1130    1.0000 </r>
       <r>    4.4516    1.0000 </r>
       <r>    4.4516    1.0000 </r>
       <r>    4.5444    1.0000 </r>
       <r>    4.5444    1.0000 </r>
       <r>    4.5468    1.0000 </r>
       <r>    4.5679    1.0000 </r>
       <r>    4.6352    1.0000 </r>
       <r>    4.6352    1.0000 </r>
       <r>    5.3090    1.0000 </r>
       <r>    5.3090    1.0000 </r>
       <r>    5.4248    1.0000 </r>
       <r>    5.4248    1.0000 </r>
       <r>    6.6068    0.0000 </r>
       <r>    6.8058    0.0000 </r>
       <r>    6.8058    0.0000 </r>
       <r>    6.9458    0.0000 </r>
       <r>    6.9551    0.0000 </r>
       <r>    6.9551    0.0000 </r>
       <r>    7.2798    0.0000 </r>
       <r>    7.5516    0.0000 </r>
       <r>    7.7419    0.0000 </r>
       <r>    7.7419    0.0000 </r>
       <r>    7.7838    0.0000 </r>
       <r>    7.8211    0.0000 </r>
       <r>    7.8211    0.0000 </r>
       <r>    8.0438    0.0000 </r>
       <r>    8.1826    0.0000 </r>
       <r>    8.2402    0.0000 </r>
       <r>    8.2454    0.0000 </r>
       <r>    8.2454    0.0000 </r>
       <r>    8.3018    0.0000 </r>
       <r>    8.3018    0.0000 </r>
       <r>    8.3068    0.0000 </r>
       <r>    8.3730    0.0000 </r>
       <r>    8.4859    0.0000 </r>
       <r>    8.4859    0.0000 </r>
       <r>    8.5373    0.0000 </r>
       <r>    8.5552    0.0000 </r>
       <r>    8.5552    0.0000 </r>
       <r>    8.8689    0.0000 </r>
       <r>    8.8689    0.0000 </r>
       <r>    8.9977    0.0000 </r>
       <r>    9.0776    0.0000 </r>
       <r>    9.0776    0.0000 </r>
       <r>    9.1382    0.0000 </r>
       <r>    9.1389    0.0000 </r>
       <r>    9.1506    0.0000 </r>
       <r>    9.1956    0.0000 </r>
      </set>
      <set comment="kpoint 4">
       <r>   -6.7395    1.0000 </r>
       <r>   -5.7753    1.0000 </r>
       <r>   -5.0712    1.0000 </r>
       <r>   -5.0712    1.0000 </r>
       <r>   -5.0488    1.0000 </r>
       <r>   -4.9860    1.0000 </r>
       <r>   -4.7035    1.0000 </r>
       <r>   -4.2772    1.0000 </r>
       <r>   -4.2772    1.0000 </r>
       <r>   -4.2222    1.0000 </r>
       <r>   -4.1265    1.0000 </r>
       <r>   -4.1066    1.0000 </r>
       <r>   -4.1033    1.0000 </r>
       <r>   -4.1033    1.0000 </r>
       <r>   -3.6665    1.0000 </r>
       <r>   -3.4114    1.0000 </r>
       <r>   -3.4114    1.0000 </r>
       <r>   -3.3747    1.0000 </r>
       <r>   -3.2619    1.0000 </r>
       <r>   -3.1382    1.0000 </r>
       <r>   -3.0734    1.0000 </r>
       <r>   -3.0734    1.0000 </r>
       <r>   -3.0575    1.0000 </r>
       <r>   -2.5105    1.0000 </r>
       <r>   -2.3473    1.0000 </r>
       <r>   -2.3473    1.0000 </r>
       <r>   -2.3129    1.0000 </r>
       <r>   -1.6523    1.0000 </r>
       <r>   -1.4582    1.0000 </r>
       <r>   -1.4582    1.0000 </r>
       <r>   -1.4030    1.0000 </r>
       <r>   -1.1074    1.0000 </r>
       <r>   -1.0165    1.0000 </r>
       <r>   -0.9936    1.0000 </r>
       <r>   -0.9936    1.0000 </r>
       <r>   -0.6785    1.0000 </r>
       <r>   -0.4937    1.0000 </r>
       <r>   -0.4334    1.0000 </r>
       <r>   -0.4334    1.0000 </r>
       <r>   -0.3668    1.0000 </r>
       <r>   -0.3043    1.0000 </r>
       <r>   -0.2813    1.0000 </r>
       <r>   -0.2813    1.0000 </r>
       <r>   -0.2506    1.0000 </r>
       <r>    0.5443    1.0000 </r>
       <r>    0.5852    1.0000 </r>
       <r>    0.5852    1.0000 </r>
       <r>    0.6632    1.0000 </r>
       <r>    1.1261    1.0000 </r>
       <r>    1.2504    1.0000 </r>
       <r>    1.2504    1.0000 </r>
       <r>    1.4117    1.0000 </r>
       <r>    1.5189    1.0000 </r>
       <r>    1.5189    1.0000 </r>
       <r>    1.5194    1.0000 </r>
       <r>    1.5875    1.0000 </r>
       <r>    1.6870    1.0000 </r>
       <r>    1.7099    1.0000 </r>
       <r>    1.7121    1.0000 </r>
       <r>    1.7121    1.0000 </r>
       <r>    1.8937    1.0000 </r>
       <r>    1.9401    1.0000 </r>
       <r>    1.9401    1.0000 </r>
       <r>    1.9622    1.0000 </r>
       <r>    2.3024    1.0000 </r>
       <r>    2.6957    1.0000 </r>
       <r>    2.7221    1.0000 </r>
       <r>    2.7221    1.0000 </r>
       <r>    2.9887    1.0000 </r>
       <r>    3.0530    1.0000 </r>
       <r>    3.0582    1.0000 </r>
       <r>    3.0582    1.0000 </r>
       <r>    3.0859    1.0000 </r>
       <r>    3.1018    1.0000 </r>
       <r>    3.1018    1.0000 </r>
       <r>    3.3234    1.0000 </r>
       <r>    3.3809    1.0000 </r>
       <r>    3.3809    1.0000 </r>
       <r>    3.4342    1.0000 </r>
       <r>    3.6250    1.0000 </r>
       <r>    3.6250    1.0000 </r>
       <r>    3.6853    1.0000 </r>
       <r>    3.7733    1.0000 </r>
       <r>    3.7733    1.0000 </r>
       <r>    3.7745    1.0000 </r>
       <r>    3.8217    1.0000 </r>
       <r>    3.8243    1.0000 </r>
       <r>    3.9674    1.0000 </r>
       <r>    3.9674    1.0000 </r>
       <r>    4.0131    1.0000 </r>
       <r>    4.1120    1.0000 </r>
       <r>    4.1120    1.0000 </r>
       <r>    4.1504    1.0000 </r>
       <r>    4.2552    1.0000 </r>
       <r>    4.2699    1.0000 </r>
       <r>    4.2699    1.0000 </r>
       <r>    4.2818    1.0000 </r>
       <r>    4.3765    1.0000 </r>
       <r>    4.3765    1.0000 </r>
       <r>    4.4403    1.0000 </r>
       <r>    4.4417    1.0000 </r>
       <r>    5.0711    1.0000 </r>
       <r>    5.0711    1.0000 </r>
       <r>    5.1198    1.0000 </r>
       <r>    5.1639    1.0000 </r>
       <r>    5.1662    1.0000 </r>
       <r>    5.4082    1.0000 </r>
       <r>    5.4082    1.0000 </r>
       <r>    6.3632    0.0000 </r>
       <r>    6.7000    0.0000 </r>
       <r>    7.0093    0.0000 </r>
       <r>    7.0918    0.0000 </r>
       <r>    7.1436    0.0000 </r>
       <r>    7.1436    0.0000 </r>
       <r>    7.2310    0.0000 </r>
       <r>    7.3847    0.0000 </r>
       <r>    7.4615    0.0000 </r>
       <r>    7.5463    0.0000 </r>
       <r>    7.5463    0.0000 </r>
       <r>    7.5591    0.0000 </r>
       <r>    7.5769    0.0000 </r>
       <r>    7.5769    0.0000 </r>
       <r>    7.5897    0.0000 </r>
       <r>    7.8067    0.0000 </r>
       <r>    7.8905    0.0000 </r>
       <r>    7.9608    0.0000 </r>
       <r>    7.9608    0.0000 </r>
       <r>    8.1079    0.0000 </r>
       <r>    8.1475    0.0000 </r>
       <r>    8.2206    0.0000 </r>
       <r>    8.2206    0.0000 </r>
       <r>    8.2783    0.0000 </r>
       <r>    8.2816    0.0000 </r>
       <r>    8.3099    0.0000 </r>
       <r>    8.3099    0.0000 </r>
       <r>    8.3280    0.0000 </r>
       <r>    8.3924    0.0000 </r>
       <r>    8.3924    0.0000 </r>
       <r>    8.4062    0.0000 </r>
       <r>    8.4115    0.0000 </r>
       <r>    8.8445    0.0000 </r>
       <r>    8.8445    0.0000 </r>
       <r>    8.9319    0.0000 </r>
       <r>    9.0664    0.0000 </r>
      </set>
      <set comment="kpoint 5">
       <r>   -6.7223    1.0000 </r>
       <r>   -5.6766    1.0000 </r>
       <r>   -5.4410    1.0000 </r>
       <r>   -5.1921    1.0000 </r>
       <r>   -5.0921    1.0000 </r>
       <r>   -4.8412    1.0000 </r>
       <r>   -4.5890    1.0000 </r>
       <r>   -4.4022    1.0000 </r>
       <r>   -4.2427    1.0000 </r>
       <r>   -4.1618    1.0000 </r>
       <r>   -4.0085    1.0000 </r>
       <r>   -3.9672    1.0000 </r>
       <r>   -3.8856    1.0000 </r>
       <r>   -3.7930    1.0000 </r>
       <r>   -3.6440    1.0000 </r>
       <r>   -3.5229    1.0000 </r>
       <r>   -3.5092    1.0000 </r>
       <r>   -3.4278    1.0000 </r>
       <r>   -3.3320    1.0000 </r>
       <r>   -3.2868    1.0000 </r>
       <r>   -3.2025    1.0000 </r>
       <r>   -3.1903    1.0000 </r>
       <r>   -2.7040    1.0000 </r>
       <r>   -2.5404    1.0000 </r>
       <r>   -2.4895    1.0000 </r>
       <r>   -2.4114    1.0000 </r>
       <r>   -2.3716    1.0000 </r>
       <r>   -1.6493    1.0000 </r>
       <r>   -1.3787    1.0000 </r>
       <r>   -1.3617    1.0000 </r>
       <r>   -1.2892    1.0000 </r>
       <r>   -1.2878    1.0000 </r>
       <r>   -1.0770    1.0000 </r>
       <r>   -1.0107    1.0000 </r>
       <r>   -0.9414    1.0000 </r>
       <r>   -0.9360    1.0000 </r>
       <r>   -0.6666    1.0000 </r>
       <r>   -0.5853    1.0000 </r>
       <r>   -0.5774    1.0000 </r>
       <r>   -0.5482    1.0000 </r>
       <r>   -0.5392    1.0000 </r>
       <r>   -0.2388    1.0000 </r>
       <r>   -0.1872    1.0000 </r>
       <r>    0.0917    1.0000 </r>
       <r>    0.1389    1.0000 </r>
       <r>    0.1423    1.0000 </r>
       <r>    0.7966    1.0000 </r>
       <r>    0.8155    1.0000 </r>
       <r>    0.9154    1.0000 </r>
       <r>    1.5025    1.0000 </r>
       <r>    1.5344    1.0000 </r>
       <r>    1.6745    1.0000 </r>
       <r>    1.8156    1.0000 </r>
       <r>    1.8405    1.0000 </r>
       <r>    1.9391    1.0000 </r>
       <r>    1.9401    1.0000 </r>
       <r>    2.0689    1.0000 </r>
       <r>    2.1094    1.0000 </r>
       <r>    2.2734    1.0000 </r>
       <r>    2.2810    1.0000 </r>
       <r>    2.3544    1.0000 </r>
       <r>    2.3709    1.0000 </r>
       <r>    2.3727    1.0000 </r>
       <r>    2.3931    1.0000 </r>
       <r>    2.4951    1.0000 </r>
       <r>    2.5454    1.0000 </r>
       <r>    2.5883    1.0000 </r>
       <r>    2.6721    1.0000 </r>
       <r>    2.7268    1.0000 </r>
       <r>    2.7777    1.0000 </r>
       <r>    2.7905    1.0000 </r>
       <r>    2.8913    1.0000 </r>
       <r>    2.9057    1.0000 </r>
       <r>    2.9686    1.0000 </r>
       <r>    2.9878    1.0000 </r>
       <r>    3.0102    1.0000 </r>
       <r>    3.1257    1.0000 </r>
       <r>    3.1746    1.0000 </r>
       <r>    3.1837    1.0000 </r>
       <r>    3.2182    1.0000 </r>
       <r>    3.2472    1.0000 </r>
       <r>    3.2818    1.0000 </r>
       <r>    3.4018    1.0000 </r>
       <r>    3.5516    1.0000 </r>
       <r>    3.5858    1.0000 </r>
       <r>    3.6401    1.0000 </r>
       <r>    3.6629    1.0000 </r>
       <r>    3.7069    1.0000 </r>
       <r>    3.8526    1.0000 </r>
       <r>    3.8734    1.0000 </r>
       <r>    3.9014    1.0000 </r>
       <r>    3.9624    1.0000 </r>
       <r>    4.0053    1.0000 </r>
       <r>    4.1515    1.0000 </r>
       <r>    4.1552    1.0000 </r>
       <r>    4.2132    1.0000 </r>
       <r>    4.2389    1.0000 </r>
       <r>    4.2893    1.0000 </r>
       <r>    4.2905    1.0000 </r>
       <r>    4.3299    1.0000 </r>
       <r>    4.4408    1.0000 </r>
       <r>    4.4585    1.0000 </r>
       <r>    4.8011    1.0000 </r>
       <r>    4.8622    1.0000 </r>
       <r>    4.8709    1.0000 </r>
       <r>    5.0437    1.0000 </r>
       <r>    5.2211    1.0000 </r>
       <r>    5.4646    1.0000 </r>
       <r>    6.5535    0.0000 </r>
       <r>    7.0202    0.0000 </r>
       <r>    7.2010    0.0000 </r>
       <r>    7.2961    0.0000 </r>
       <r>    7.3179    0.0000 </r>
       <r>    7.4977    0.0000 </r>
       <r>    7.5444    0.0000 </r>
       <r>    7.5606    0.0000 </r>
       <r>    7.7190    0.0000 </r>
       <r>    7.8517    0.0000 </r>
       <r>    7.8855    0.0000 </r>
       <r>    7.9363    0.0000 </r>
       <r>    7.9942    0.0000 </r>
       <r>    8.0450    0.0000 </r>
       <r>    8.1658    0.0000 </r>
       <r>    8.2195    0.0000 </r>
       <r>    8.2765    0.0000 </r>
       <r>    8.3605    0.0000 </r>
       <r>    8.3910    0.0000 </r>
       <r>    8.4355    0.0000 </r>
       <r>    8.4812    0.0000 </r>
       <r>    8.4853    0.0000 </r>
       <r>    8.5226    0.0000 </r>
       <r>    8.6045    0.0000 </r>
       <r>    8.7027    0.0000 </r>
       <r>    8.7183    0.0000 </r>
       <r>    8.7935    0.0000 </r>
       <r>    8.8006    0.0000 </r>
       <r>    8.8968    0.0000 </r>
       <r>    8.9032    0.0000 </r>
       <r>    8.9487    0.0000 </r>
       <r>    8.9491    0.0000 </r>
       <r>    8.9919    0.0000 </r>
       <r>    9.0429    0.0000 </r>
       <r>    9.0587    0.0000 </r>
       <r>    9.0673    0.0000 </r>
      </set>
      <set comment="kpoint 6">
       <r>   -6.7277    1.0000 </r>
       <r>   -5.7207    1.0000 </r>
       <r>   -5.3961    1.0000 </r>
       <r>   -5.1772    1.0000 </r>
       <r>   -4.9430    1.0000 </r>
       <r>   -4.7773    1.0000 </r>
       <r>   -4.5321    1.0000 </r>
       <r>   -4.4899    1.0000 </r>
       <r>   -4.4823    1.0000 </r>
       <r>   -4.2725    1.0000 </r>
       <r>   -4.0594    1.0000 </r>
       <r>   -4.0221    1.0000 </r>
       <r>   -3.9224    1.0000 </r>
       <r>   -3.8632    1.0000 </r>
       <r>   -3.6496    1.0000 </r>
       <r>   -3.4570    1.0000 </r>
       <r>   -3.4102    1.0000 </r>
       <r>   -3.3755    1.0000 </r>
       <r>   -3.1834    1.0000 </r>
       <r>   -3.1058    1.0000 </r>
       <r>   -3.0388    1.0000 </r>
       <r>   -2.9408    1.0000 </r>
       <r>   -2.9050    1.0000 </r>
       <r>   -2.8981    1.0000 </r>
       <r>   -2.6743    1.0000 </r>
       <r>   -2.6068    1.0000 </r>
       <r>   -2.1765    1.0000 </r>
       <r>   -1.7981    1.0000 </r>
       <r>   -1.3603    1.0000 </r>
       <r>   -1.1163    1.0000 </r>
       <r>   -1.1157    1.0000 </r>
       <r>   -1.0430    1.0000 </r>
       <r>   -0.9464    1.0000 </r>
       <r>   -0.8866    1.0000 </r>
       <r>   -0.8435    1.0000 </r>
       <r>   -0.8229    1.0000 </r>
       <r>   -0.7974    1.0000 </r>
       <r>   -0.7761    1.0000 </r>
       <r>   -0.6989    1.0000 </r>
       <r>   -0.6687    1.0000 </r>
       <r>   -0.6323    1.0000 </r>
       <r>   -0.6309    1.0000 </r>
       <r>    0.2286    1.0000 </r>
       <r>    0.2725    1.0000 </r>
       <r>    0.3912    1.0000 </r>
       <r>    0.4502    1.0000 </r>
       <r>    0.5091    1.0000 </r>
       <r>    0.5777    1.0000 </r>
       <r>    0.5845    1.0000 </r>
       <r>    1.4432    1.0000 </r>
       <r>    1.4435    1.0000 </r>
       <r>    1.5596    1.0000 </r>
       <r>    1.7699    1.0000 </r>
       <r>    1.8073    1.0000 </r>
       <r>    1.8593    1.0000 </r>
       <r>    1.9141    1.0000 </r>
       <r>    1.9520    1.0000 </r>
       <r>    1.9642    1.0000 </r>
       <r>    2.0525    1.0000 </r>
       <r>    2.1588    1.0000 </r>
       <r>    2.2101    1.0000 </r>
       <r>    2.2188    1.0000 </r>
       <r>    2.2733    1.0000 </r>
       <r>    2.4051    1.0000 </r>
       <r>    2.4104    1.0000 </r>
       <r>    2.5051    1.0000 </r>
       <r>    2.5750    1.0000 </r>
       <r>    2.6976    1.0000 </r>
       <r>    2.7613    1.0000 </r>
       <r>    2.8034    1.0000 </r>
       <r>    2.8481    1.0000 </r>
       <r>    2.8610    1.0000 </r>
       <r>    2.8941    1.0000 </r>
       <r>    3.0793    1.0000 </r>
       <r>    3.1135    1.0000 </r>
       <r>    3.1439    1.0000 </r>
       <r>    3.2028    1.0000 </r>
       <r>    3.2301    1.0000 </r>
       <r>    3.2956    1.0000 </r>
       <r>    3.3794    1.0000 </r>
       <r>    3.4183    1.0000 </r>
       <r>    3.4305    1.0000 </r>
       <r>    3.4794    1.0000 </r>
       <r>    3.4807    1.0000 </r>
       <r>    3.5413    1.0000 </r>
       <r>    3.6107    1.0000 </r>
       <r>    3.7193    1.0000 </r>
       <r>    3.8411    1.0000 </r>
       <r>    3.8536    1.0000 </r>
       <r>    3.8712    1.0000 </r>
       <r>    3.9442    1.0000 </r>
       <r>    3.9520    1.0000 </r>
       <r>    4.1599    1.0000 </r>
       <r>    4.2099    1.0000 </r>
       <r>    4.2345    1.0000 </r>
       <r>    4.3280    1.0000 </r>
       <r>    4.4188    1.0000 </r>
       <r>    4.5018    1.0000 </r>
       <r>    4.5599    1.0000 </r>
       <r>    4.5667    1.0000 </r>
       <r>    4.5741    1.0000 </r>
       <r>    4.6131    1.0000 </r>
       <r>    4.7435    1.0000 </r>
       <r>    4.7473    1.0000 </r>
       <r>    4.8566    1.0000 </r>
       <r>    4.8987    1.0000 </r>
       <r>    5.0016    1.0000 </r>
       <r>    5.6947    1.0000 </r>
       <r>    6.6731    0.0000 </r>
       <r>    6.9682    0.0000 </r>
       <r>    7.0112    0.0000 </r>
       <r>    7.1001    0.0000 </r>
       <r>    7.2597    0.0000 </r>
       <r>    7.3313    0.0000 </r>
       <r>    7.5179    0.0000 </r>
       <r>    7.5951    0.0000 </r>
       <r>    7.6148    0.0000 </r>
       <r>    7.6494    0.0000 </r>
       <r>    7.7111    0.0000 </r>
       <r>    7.7388    0.0000 </r>
       <r>    7.7481    0.0000 </r>
       <r>    7.8293    0.0000 </r>
       <r>    7.9136    0.0000 </r>
       <r>    8.1362    0.0000 </r>
       <r>    8.2277    0.0000 </r>
       <r>    8.2937    0.0000 </r>
       <r>    8.2940    0.0000 </r>
       <r>    8.3090    0.0000 </r>
       <r>    8.3495    0.0000 </r>
       <r>    8.4011    0.0000 </r>
       <r>    8.4327    0.0000 </r>
       <r>    8.5073    0.0000 </r>
       <r>    8.5091    0.0000 </r>
       <r>    8.5352    0.0000 </r>
       <r>    8.5483    0.0000 </r>
       <r>    8.6466    0.0000 </r>
       <r>    8.7044    0.0000 </r>
       <r>    8.7178    0.0000 </r>
       <r>    8.8370    0.0000 </r>
       <r>    8.9960    0.0000 </r>
       <r>    9.0336    0.0000 </r>
       <r>    9.1047    0.0000 </r>
       <r>    9.1539    0.0000 </r>
       <r>    9.1866    0.0000 </r>
      </set>
      <set comment="kpoint 7">
       <r>   -6.7173    1.0000 </r>
       <r>   -5.6289    1.0000 </r>
       <r>   -5.4112    1.0000 </r>
       <r>   -5.1787    1.0000 </r>
       <r>   -5.1787    1.0000 </r>
       <r>   -5.1463    1.0000 </r>
       <r>   -4.6436    1.0000 </r>
       <r>   -3.9342    1.0000 </r>
       <r>   -3.9342    1.0000 </r>
       <r>   -3.8556    1.0000 </r>
       <r>   -3.8466    1.0000 </r>
       <r>   -3.7966    1.0000 </r>
       <r>   -3.7966    1.0000 </r>
       <r>   -3.7810    1.0000 </r>
       <r>   -3.7040    1.0000 </r>
       <r>   -3.6696    1.0000 </r>
       <r>   -3.6352    1.0000 </r>
       <r>   -3.6352    1.0000 </r>
       <r>   -3.6041    1.0000 </r>
       <r>   -3.5886    1.0000 </r>
       <r>   -3.5886    1.0000 </r>
       <r>   -3.5731    1.0000 </r>
       <r>   -2.3566    1.0000 </r>
       <r>   -2.0403    1.0000 </r>
       <r>   -1.9358    1.0000 </r>
       <r>   -1.9358    1.0000 </r>
       <r>   -1.9295    1.0000 </r>
       <r>   -1.8662    1.0000 </r>
       <r>   -1.8595    1.0000 </r>
       <r>   -1.8408    1.0000 </r>
       <r>   -1.8408    1.0000 </r>
       <r>   -1.8290    1.0000 </r>
       <r>   -0.9679    1.0000 </r>
       <r>   -0.8915    1.0000 </r>
       <r>   -0.8915    1.0000 </r>
       <r>   -0.8757    1.0000 </r>
       <r>   -0.7334    1.0000 </r>
       <r>   -0.7293    1.0000 </r>
       <r>   -0.7220    1.0000 </r>
       <r>   -0.7220    1.0000 </r>
       <r>   -0.0451    1.0000 </r>
       <r>    0.0805    1.0000 </r>
       <r>    0.0805    1.0000 </r>
       <r>    0.1735    1.0000 </r>
       <r>    0.2120    1.0000 </r>
       <r>    0.2209    1.0000 </r>
       <r>    0.2209    1.0000 </r>
       <r>    0.2392    1.0000 </r>
       <r>    1.5708    1.0000 </r>
       <r>    1.6849    1.0000 </r>
       <r>    1.6849    1.0000 </r>
       <r>    1.9899    1.0000 </r>
       <r>    2.1409    1.0000 </r>
       <r>    2.1409    1.0000 </r>
       <r>    2.1517    1.0000 </r>
       <r>    2.1770    1.0000 </r>
       <r>    2.1864    1.0000 </r>
       <r>    2.1994    1.0000 </r>
       <r>    2.1994    1.0000 </r>
       <r>    2.2007    1.0000 </r>
       <r>    2.2624    1.0000 </r>
       <r>    2.2952    1.0000 </r>
       <r>    2.2952    1.0000 </r>
       <r>    2.2999    1.0000 </r>
       <r>    2.3020    1.0000 </r>
       <r>    2.3162    1.0000 </r>
       <r>    2.3162    1.0000 </r>
       <r>    2.3230    1.0000 </r>
       <r>    2.7659    1.0000 </r>
       <r>    2.8594    1.0000 </r>
       <r>    2.8594    1.0000 </r>
       <r>    2.9825    1.0000 </r>
       <r>    3.0381    1.0000 </r>
       <r>    3.0381    1.0000 </r>
       <r>    3.0613    1.0000 </r>
       <r>    3.0770    1.0000 </r>
       <r>    3.0770    1.0000 </r>
       <r>    3.0933    1.0000 </r>
       <r>    3.2957    1.0000 </r>
       <r>    3.3506    1.0000 </r>
       <r>    3.3506    1.0000 </r>
       <r>    3.4369    1.0000 </r>
       <r>    3.5004    1.0000 </r>
       <r>    3.5162    1.0000 </r>
       <r>    3.5162    1.0000 </r>
       <r>    3.5424    1.0000 </r>
       <r>    3.5865    1.0000 </r>
       <r>    3.5865    1.0000 </r>
       <r>    3.5922    1.0000 </r>
       <r>    3.6039    1.0000 </r>
       <r>    3.7755    1.0000 </r>
       <r>    3.7966    1.0000 </r>
       <r>    3.8388    1.0000 </r>
       <r>    3.8388    1.0000 </r>
       <r>    4.0421    1.0000 </r>
       <r>    4.0423    1.0000 </r>
       <r>    4.1003    1.0000 </r>
       <r>    4.1008    1.0000 </r>
       <r>    4.1040    1.0000 </r>
       <r>    4.1040    1.0000 </r>
       <r>    4.5872    1.0000 </r>
       <r>    4.5872    1.0000 </r>
       <r>    4.6536    1.0000 </r>
       <r>    4.6536    1.0000 </r>
       <r>    5.2242    1.0000 </r>
       <r>    5.2242    1.0000 </r>
       <r>    5.2801    1.0000 </r>
       <r>    5.2838    1.0000 </r>
       <r>    6.4865    0.0000 </r>
       <r>    6.5091    0.0000 </r>
       <r>    7.3260    0.0000 </r>
       <r>    7.4341    0.0000 </r>
       <r>    7.6478    0.0000 </r>
       <r>    7.7655    0.0000 </r>
       <r>    7.8615    0.0000 </r>
       <r>    7.8615    0.0000 </r>
       <r>    7.9228    0.0000 </r>
       <r>    7.9228    0.0000 </r>
       <r>    7.9272    0.0000 </r>
       <r>    7.9364    0.0000 </r>
       <r>    8.3083    0.0000 </r>
       <r>    8.3083    0.0000 </r>
       <r>    8.3154    0.0000 </r>
       <r>    8.4605    0.0000 </r>
       <r>    8.5332    0.0000 </r>
       <r>    8.5497    0.0000 </r>
       <r>    8.5497    0.0000 </r>
       <r>    8.5939    0.0000 </r>
       <r>    8.6557    0.0000 </r>
       <r>    8.6962    0.0000 </r>
       <r>    8.6968    0.0000 </r>
       <r>    8.6968    0.0000 </r>
       <r>    8.7107    0.0000 </r>
       <r>    8.7120    0.0000 </r>
       <r>    8.7120    0.0000 </r>
       <r>    8.7135    0.0000 </r>
       <r>    8.8127    0.0000 </r>
       <r>    8.8321    0.0000 </r>
       <r>    8.8951    0.0000 </r>
       <r>    8.8951    0.0000 </r>
       <r>    9.2283    0.0000 </r>
       <r>    9.2283    0.0000 </r>
       <r>    9.3370    0.0000 </r>
       <r>    9.3984    0.0000 </r>
      </set>
      <set comment="kpoint 8">
       <r>   -6.7169    1.0000 </r>
       <r>   -5.5314    1.0000 </r>
       <r>   -5.4902    1.0000 </r>
       <r>   -5.4616    1.0000 </r>
       <r>   -5.0732    1.0000 </r>
       <r>   -4.6348    1.0000 </r>
[...]
        <r>  0.0000  0.0054  0.0000 </r>
       </set>
       <set comment="band 138">
        <r>  0.0000  0.0013  0.0000 </r>
        <r>  0.0006  0.0024  0.0000 </r>
        <r>  0.0006  0.0024  0.0000 </r>
        <r>  0.0009  0.0027  0.0000 </r>
        <r>  0.0023  0.0012  0.0000 </r>
        <r>  0.0006  0.0024  0.0000 </r>
        <r>  0.0009  0.0027  0.0000 </r>
        <r>  0.0006  0.0024  0.0000 </r>
        <r>  0.0001  0.0018  0.0000 </r>
        <r>  0.0006  0.0024  0.0000 </r>
        <r>  0.0023  0.0012  0.0000 </r>
        <r>  0.0009  0.0027  0.0000 </r>
        <r>  0.0023  0.0012  0.0000 </r>
        <r>  0.0023  0.0012  0.0000 </r>
        <r>  0.0000  0.0023  0.0000 </r>
        <r>  0.0006  0.0024  0.0000 </r>
        <r>  0.0000  0.0101  0.0000 </r>
        <r>  0.0000  0.0023  0.0000 </r>
        <r>  0.0006  0.0024  0.0000 </r>
        <r>  0.0009  0.0027  0.0000 </r>
        <r>  0.0001  0.0018  0.0000 </r>
        <r>  0.0006  0.0024  0.0000 </r>
        <r>  0.0000  0.0023  0.0000 </r>
        <r>  0.0000  0.0101  0.0000 </r>
        <r>  0.0001  0.0018  0.0000 </r>
        <r>  0.0000  0.0023  0.0000 </r>
        <r>  0.0001  0.0018  0.0000 </r>
        <r>  0.0000  0.0039  0.0000 </r>
        <r>  0.0000  0.0030  0.0000 </r>
        <r>  0.0000  0.0030  0.0000 </r>
        <r>  0.0004  0.0009  0.0000 </r>
        <r>  0.0000  0.0050  0.0000 </r>
        <r>  0.0000  0.0030  0.0000 </r>
        <r>  0.0004  0.0009  0.0000 </r>
        <r>  0.0000  0.0030  0.0000 </r>
        <r>  0.0004  0.0035  0.0000 </r>
        <r>  0.0000  0.0030  0.0000 </r>
        <r>  0.0000  0.0050  0.0000 </r>
        <r>  0.0004  0.0009  0.0000 </r>
        <r>  0.0000  0.0050  0.0000 </r>
        <r>  0.0000  0.0050  0.0000 </r>
        <r>  0.0012  0.0056  0.0000 </r>
        <r>  0.0000  0.0030  0.0000 </r>
        <r>  0.0003  0.0020  0.0000 </r>
        <r>  0.0012  0.0056  0.0000 </r>
        <r>  0.0000  0.0030  0.0000 </r>
        <r>  0.0004  0.0009  0.0000 </r>
        <r>  0.0004  0.0035  0.0000 </r>
        <r>  0.0000  0.0030  0.0000 </r>
        <r>  0.0012  0.0056  0.0000 </r>
        <r>  0.0003  0.0020  0.0000 </r>
        <r>  0.0004  0.0035  0.0000 </r>
        <r>  0.0012  0.0056  0.0000 </r>
        <r>  0.0004  0.0035  0.0000 </r>
       </set>
       <set comment="band 139">
        <r>  0.0000  0.0000  0.0000 </r>
        <r>  0.0012  0.0026  0.0000 </r>
        <r>  0.0012  0.0026  0.0000 </r>
        <r>  0.0012  0.0005  0.0000 </r>
        <r>  0.0028  0.0027  0.0000 </r>
        <r>  0.0012  0.0026  0.0000 </r>
        <r>  0.0012  0.0005  0.0000 </r>
        <r>  0.0012  0.0025  0.0000 </r>
        <r>  0.0000  0.0034  0.0000 </r>
        <r>  0.0012  0.0026  0.0000 </r>
        <r>  0.0028  0.0028  0.0000 </r>
        <r>  0.0012  0.0005  0.0000 </r>
        <r>  0.0028  0.0027  0.0000 </r>
        <r>  0.0027  0.0027  0.0000 </r>
        <r>  0.0003  0.0038  0.0000 </r>
        <r>  0.0012  0.0025  0.0000 </r>
        <r>  0.0000  0.0040  0.0000 </r>
        <r>  0.0003  0.0038  0.0000 </r>
        <r>  0.0012  0.0026  0.0000 </r>
        <r>  0.0012  0.0005  0.0000 </r>
        <r>  0.0000  0.0034  0.0000 </r>
        <r>  0.0012  0.0026  0.0000 </r>
        <r>  0.0003  0.0038  0.0000 </r>
        <r>  0.0000  0.0040  0.0000 </r>
        <r>  0.0000  0.0034  0.0000 </r>
        <r>  0.0003  0.0038  0.0000 </r>
        <r>  0.0000  0.0034  0.0000 </r>
        <r>  0.0023  0.0000  0.0000 </r>
        <r>  0.0022  0.0021  0.0000 </r>
        <r>  0.0022  0.0021  0.0000 </r>
        <r>  0.0013  0.0052  0.0000 </r>
        <r>  0.0001  0.0018  0.0000 </r>
        <r>  0.0022  0.0021  0.0000 </r>
        <r>  0.0013  0.0052  0.0000 </r>
        <r>  0.0022  0.0021  0.0000 </r>
        <r>  0.0001  0.0028  0.0000 </r>
        <r>  0.0022  0.0021  0.0000 </r>
        <r>  0.0001  0.0018  0.0000 </r>
        <r>  0.0013  0.0052  0.0000 </r>
        <r>  0.0001  0.0018  0.0000 </r>
        <r>  0.0001  0.0018  0.0000 </r>
        <r>  0.0007  0.0029  0.0000 </r>
        <r>  0.0022  0.0021  0.0000 </r>
        <r>  0.0011  0.0011  0.0000 </r>
        <r>  0.0007  0.0029  0.0000 </r>
        <r>  0.0022  0.0021  0.0000 </r>
        <r>  0.0013  0.0052  0.0000 </r>
        <r>  0.0001  0.0028  0.0000 </r>
        <r>  0.0022  0.0021  0.0000 </r>
        <r>  0.0007  0.0029  0.0000 </r>
        <r>  0.0011  0.0011  0.0000 </r>
        <r>  0.0001  0.0028  0.0000 </r>
        <r>  0.0007  0.0029  0.0000 </r>
        <r>  0.0001  0.0028  0.0000 </r>
       </set>
       <set comment="band 140">
        <r>  0.0006  0.0000  0.0000 </r>
        <r>  0.0002  0.0041  0.0000 </r>
        <r>  0.0002  0.0041  0.0000 </r>
        <r>  0.0000  0.0037  0.0000 </r>
        <r>  0.0000  0.0028  0.0000 </r>
        <r>  0.0002  0.0041  0.0000 </r>
        <r>  0.0000  0.0037  0.0000 </r>
        <r>  0.0002  0.0041  0.0000 </r>
        <r>  0.0000  0.0049  0.0000 </r>
        <r>  0.0002  0.0041  0.0000 </r>
        <r>  0.0000  0.0028  0.0000 </r>
        <r>  0.0000  0.0037  0.0000 </r>
        <r>  0.0000  0.0028  0.0000 </r>
        <r>  0.0000  0.0028  0.0000 </r>
        <r>  0.0001  0.0035  0.0000 </r>
        <r>  0.0002  0.0041  0.0000 </r>
        <r>  0.0013  0.0000  0.0000 </r>
        <r>  0.0001  0.0035  0.0000 </r>
        <r>  0.0002  0.0040  0.0000 </r>
        <r>  0.0000  0.0037  0.0000 </r>
        <r>  0.0000  0.0049  0.0000 </r>
        <r>  0.0002  0.0041  0.0000 </r>
        <r>  0.0001  0.0036  0.0000 </r>
        <r>  0.0013  0.0000  0.0000 </r>
        <r>  0.0000  0.0049  0.0000 </r>
        <r>  0.0001  0.0036  0.0000 </r>
        <r>  0.0000  0.0049  0.0000 </r>
        <r>  0.0000  0.0033  0.0000 </r>
        <r>  0.0008  0.0023  0.0000 </r>
        <r>  0.0008  0.0023  0.0000 </r>
        <r>  0.0011  0.0029  0.0000 </r>
        <r>  0.0001  0.0022  0.0000 </r>
        <r>  0.0008  0.0023  0.0000 </r>
        <r>  0.0011  0.0029  0.0000 </r>
        <r>  0.0008  0.0023  0.0000 </r>
        <r>  0.0001  0.0036  0.0000 </r>
        <r>  0.0008  0.0023  0.0000 </r>
        <r>  0.0001  0.0022  0.0000 </r>
        <r>  0.0011  0.0029  0.0000 </r>
        <r>  0.0001  0.0022  0.0000 </r>
        <r>  0.0001  0.0022  0.0000 </r>
        <r>  0.0002  0.0034  0.0000 </r>
        <r>  0.0008  0.0023  0.0000 </r>
        <r>  0.0000  0.0029  0.0000 </r>
        <r>  0.0002  0.0034  0.0000 </r>
        <r>  0.0008  0.0023  0.0000 </r>
        <r>  0.0011  0.0029  0.0000 </r>
        <r>  0.0001  0.0035  0.0000 </r>
        <r>  0.0008  0.0023  0.0000 </r>
        <r>  0.0002  0.0034  0.0000 </r>
        <r>  0.0000  0.0029  0.0000 </r>
        <r>  0.0001  0.0035  0.0000 </r>
        <r>  0.0002  0.0034  0.0000 </r>
        <r>  0.0001  0.0035  0.0000 </r>
       </set>
       <set comment="band 141">
        <r>  0.0000  0.0034  0.0000 </r>
        <r>  0.0021  0.0033  0.0000 </r>
        <r>  0.0020  0.0033  0.0000 </r>
        <r>  0.0000  0.0017  0.0000 </r>
        <r>  0.0004  0.0030  0.0000 </r>
        <r>  0.0021  0.0033  0.0000 </r>
        <r>  0.0000  0.0017  0.0000 </r>
        <r>  0.0020  0.0033  0.0000 </r>
        <r>  0.0000  0.0102  0.0000 </r>
        <r>  0.0021  0.0033  0.0000 </r>
        <r>  0.0003  0.0030  0.0000 </r>
        <r>  0.0000  0.0017  0.0000 </r>
        <r>  0.0004  0.0030  0.0000 </r>
        <r>  0.0004  0.0030  0.0000 </r>
        <r>  0.0000  0.0003  0.0000 </r>
        <r>  0.0020  0.0033  0.0000 </r>
        <r>  0.0005  0.0037  0.0000 </r>
        <r>  0.0000  0.0003  0.0000 </r>
        <r>  0.0020  0.0033  0.0000 </r>
        <r>  0.0000  0.0017  0.0000 </r>
        <r>  0.0000  0.0103  0.0000 </r>
        <r>  0.0021  0.0033  0.0000 </r>
        <r>  0.0000  0.0003  0.0000 </r>
        <r>  0.0005  0.0037  0.0000 </r>
        <r>  0.0000  0.0102  0.0000 </r>
        <r>  0.0000  0.0003  0.0000 </r>
        <r>  0.0000  0.0104  0.0000 </r>
        <r>  0.0000  0.0076  0.0000 </r>
        <r>  0.0005  0.0025  0.0000 </r>
        <r>  0.0005  0.0026  0.0000 </r>
        <r>  0.0031  0.0070  0.0000 </r>
        <r>  0.0000  0.0063  0.0000 </r>
        <r>  0.0005  0.0026  0.0000 </r>
        <r>  0.0031  0.0069  0.0000 </r>
        <r>  0.0005  0.0026  0.0000 </r>
        <r>  0.0013  0.0012  0.0000 </r>
        <r>  0.0005  0.0025  0.0000 </r>
        <r>  0.0000  0.0064  0.0000 </r>
        <r>  0.0031  0.0070  0.0000 </r>
        <r>  0.0000  0.0063  0.0000 </r>
        <r>  0.0000  0.0063  0.0000 </r>
        <r>  0.0013  0.0029  0.0000 </r>
        <r>  0.0005  0.0026  0.0000 </r>
        <r>  0.0000  0.0014  0.0000 </r>
        <r>  0.0014  0.0028  0.0000 </r>
        <r>  0.0005  0.0026  0.0000 </r>
        <r>  0.0031  0.0069  0.0000 </r>
        <r>  0.0013  0.0012  0.0000 </r>
        <r>  0.0005  0.0026  0.0000 </r>
        <r>  0.0014  0.0029  0.0000 </r>
        <r>  0.0000  0.0014  0.0000 </r>
        <r>  0.0013  0.0012  0.0000 </r>
        <r>  0.0014  0.0028  0.0000 </r>
        <r>  0.0013  0.0013  0.0000 </r>
       </set>
       <set comment="band 142">
        <r>  0.0025  0.0000  0.0000 </r>
        <r>  0.0022  0.0042  0.0000 </r>
        <r>  0.0021  0.0042  0.0000 </r>
        <r>  0.0013  0.0012  0.0000 </r>
        <r>  0.0019  0.0044  0.0000 </r>
        <r>  0.0021  0.0041  0.0000 </r>
        <r>  0.0014  0.0013  0.0000 </r>
        <r>  0.0021  0.0043  0.0000 </r>
        <r>  0.0019  0.0007  0.0000 </r>
        <r>  0.0022  0.0041  0.0000 </r>
        <r>  0.0017  0.0043  0.0000 </r>
        <r>  0.0013  0.0013  0.0000 </r>
        <r>  0.0018  0.0042  0.0000 </r>
        <r>  0.0020  0.0043  0.0000 </r>
        <r>  0.0005  0.0017  0.0000 </r>
        <r>  0.0020  0.0041  0.0000 </r>
        <r>  0.0040  0.0000  0.0000 </r>
        <r>  0.0006  0.0017  0.0000 </r>
        <r>  0.0021  0.0042  0.0000 </r>
        <r>  0.0013  0.0013  0.0000 </r>
        <r>  0.0020  0.0007  0.0000 </r>
        <r>  0.0021  0.0042  0.0000 </r>
        <r>  0.0005  0.0017  0.0000 </r>
        <r>  0.0039  0.0000  0.0000 </r>
        <r>  0.0019  0.0007  0.0000 </r>
        <r>  0.0006  0.0017  0.0000 </r>
        <r>  0.0018  0.0007  0.0000 </r>
        <r>  0.0000  0.0002  0.0000 </r>
        <r>  0.0000  0.0048  0.0000 </r>
        <r>  0.0000  0.0050  0.0000 </r>
        <r>  0.0016  0.0060  0.0000 </r>
        <r>  0.0000  0.0030  0.0000 </r>
        <r>  0.0000  0.0047  0.0000 </r>
        <r>  0.0016  0.0057  0.0000 </r>
        <r>  0.0000  0.0049  0.0000 </r>
        <r>  0.0000  0.0042  0.0000 </r>
        <r>  0.0000  0.0048  0.0000 </r>
        <r>  0.0000  0.0030  0.0000 </r>
        <r>  0.0016  0.0059  0.0000 </r>
        <r>  0.0000  0.0029  0.0000 </r>
        <r>  0.0000  0.0028  0.0000 </r>
        <r>  0.0002  0.0151  0.0000 </r>
        <r>  0.0000  0.0050  0.0000 </r>
        <r>  0.0000  0.0001  0.0000 </r>
        <r>  0.0001  0.0148  0.0000 </r>
        <r>  0.0000  0.0050  0.0000 </r>
        <r>  0.0016  0.0057  0.0000 </r>
        <r>  0.0001  0.0041  0.0000 </r>
        <r>  0.0000  0.0047  0.0000 </r>
        <r>  0.0002  0.0149  0.0000 </r>
        <r>  0.0000  0.0001  0.0000 </r>
        <r>  0.0000  0.0043  0.0000 </r>
        <r>  0.0002  0.0146  0.0000 </r>
        <r>  0.0000  0.0044  0.0000 </r>
       </set>
       <set comment="band 143">
        <r>  0.0000  0.0016  0.0000 </r>
        <r>  0.0007  0.0034  0.0000 </r>
        <r>  0.0008  0.0037  0.0000 </r>
        <r>  0.0002  0.0032  0.0000 </r>
        <r>  0.0000  0.0087  0.0000 </r>
        <r>  0.0007  0.0036  0.0000 </r>
        <r>  0.0002  0.0032  0.0000 </r>
        <r>  0.0008  0.0034  0.0000 </r>
        <r>  0.0029  0.0065  0.0000 </r>
        <r>  0.0008  0.0037  0.0000 </r>
        <r>  0.0000  0.0088  0.0000 </r>
        <r>  0.0001  0.0031  0.0000 </r>
        <r>  0.0000  0.0092  0.0000 </r>
        <r>  0.0000  0.0089  0.0000 </r>
        <r>  0.0000  0.0011  0.0000 </r>
        <r>  0.0006  0.0037  0.0000 </r>
        <r>  0.0000  0.0062  0.0000 </r>
        <r>  0.0000  0.0011  0.0000 </r>
        <r>  0.0007  0.0033  0.0000 </r>
        <r>  0.0002  0.0033  0.0000 </r>
        <r>  0.0030  0.0061  0.0000 </r>
        <r>  0.0008  0.0034  0.0000 </r>
        <r>  0.0000  0.0012  0.0000 </r>
        <r>  0.0000  0.0062  0.0000 </r>
        <r>  0.0030  0.0059  0.0000 </r>
        <r>  0.0000  0.0012  0.0000 </r>
        <r>  0.0030  0.0062  0.0000 </r>
        <r>  0.0000  0.0043  0.0000 </r>
        <r>  0.0008  0.0015  0.0000 </r>
        <r>  0.0007  0.0015  0.0000 </r>
        <r>  0.0001  0.0083  0.0000 </r>
        <r>  0.0003  0.0021  0.0000 </r>
        <r>  0.0007  0.0015  0.0000 </r>
        <r>  0.0001  0.0084  0.0000 </r>
        <r>  0.0008  0.0014  0.0000 </r>
        <r>  0.0000  0.0029  0.0000 </r>
        <r>  0.0007  0.0014  0.0000 </r>
        <r>  0.0004  0.0022  0.0000 </r>
        <r>  0.0001  0.0084  0.0000 </r>
        <r>  0.0004  0.0023  0.0000 </r>
        <r>  0.0004  0.0022  0.0000 </r>
        <r>  0.0055  0.0028  0.0000 </r>
        <r>  0.0008  0.0015  0.0000 </r>
        <r>  0.0001  0.0020  0.0000 </r>
        <r>  0.0056  0.0029  0.0000 </r>
        <r>  0.0009  0.0015  0.0000 </r>
        <r>  0.0001  0.0086  0.0000 </r>
        <r>  0.0000  0.0028  0.0000 </r>
        <r>  0.0008  0.0014  0.0000 </r>
        <r>  0.0053  0.0029  0.0000 </r>
        <r>  0.0001  0.0020  0.0000 </r>
        <r>  0.0000  0.0028  0.0000 </r>
        <r>  0.0053  0.0030  0.0000 </r>
        <r>  0.0000  0.0027  0.0000 </r>
       </set>
       <set comment="band 144">
        <r>  0.0000  0.0000  0.0000 </r>
        <r>  0.0005  0.0061  0.0000 </r>
        <r>  0.0004  0.0063  0.0000 </r>
        <r>  0.0016  0.0038  0.0000 </r>
        <r>  0.0004  0.0024  0.0000 </r>
        <r>  0.0005  0.0062  0.0000 </r>
        <r>  0.0018  0.0037  0.0000 </r>
        <r>  0.0004  0.0060  0.0000 </r>
        <r>  0.0018  0.0023  0.0000 </r>
        <r>  0.0005  0.0059  0.0000 </r>
        <r>  0.0010  0.0028  0.0000 </r>
        <r>  0.0012  0.0036  0.0000 </r>
        <r>  0.0004  0.0024  0.0000 </r>
        <r>  0.0011  0.0028  0.0000 </r>
        <r>  0.0006  0.0070  0.0000 </r>
        <r>  0.0005  0.0060  0.0000 </r>
        <r>  0.0000  0.0006  0.0000 </r>
        <r>  0.0008  0.0072  0.0000 </r>
        <r>  0.0003  0.0062  0.0000 </r>
        <r>  0.0013  0.0036  0.0000 </r>
        <r>  0.0025  0.0025  0.0000 </r>
        <r>  0.0006  0.0062  0.0000 </r>
        <r>  0.0007  0.0071  0.0000 </r>
        <r>  0.0000  0.0003  0.0000 </r>
        <r>  0.0018  0.0023  0.0000 </r>
        <r>  0.0007  0.0071  0.0000 </r>
        <r>  0.0024  0.0024  0.0000 </r>
        <r>  0.0013  0.0000  0.0000 </r>
        <r>  0.0002  0.0075  0.0000 </r>
        <r>  0.0002  0.0076  0.0000 </r>
        <r>  0.0004  0.0018  0.0000 </r>
        <r>  0.0010  0.0039  0.0000 </r>
        <r>  0.0002  0.0072  0.0000 </r>
        <r>  0.0003  0.0018  0.0000 </r>
        <r>  0.0002  0.0076  0.0000 </r>
        <r>  0.0009  0.0051  0.0000 </r>
        <r>  0.0002  0.0074  0.0000 </r>
        <r>  0.0009  0.0029  0.0000 </r>
        <r>  0.0003  0.0024  0.0000 </r>
        <r>  0.0011  0.0039  0.0000 </r>
        <r>  0.0011  0.0028  0.0000 </r>
        <r>  0.0001  0.0057  0.0000 </r>
        <r>  0.0002  0.0077  0.0000 </r>
        <r>  0.0043  0.0001  0.0000 </r>
        <r>  0.0001  0.0055  0.0000 </r>
        <r>  0.0002  0.0075  0.0000 </r>
        <r>  0.0003  0.0024  0.0000 </r>
        <r>  0.0007  0.0034  0.0000 </r>
        <r>  0.0003  0.0075  0.0000 </r>
        <r>  0.0001  0.0056  0.0000 </r>
        <r>  0.0041  0.0000  0.0000 </r>
        <r>  0.0008  0.0050  0.0000 </r>
        <r>  0.0001  0.0053  0.0000 </r>
        <r>  0.0007  0.0034  0.0000 </r>
       </set>
      </set>
     </set>
    </set>
   </array>
  </projected>
 </calculation>
 <structure name="finalpos" >
  <crystal>
   <varray name="basis" >
    <v>       9.97646553       0.00000000       5.75991507 </v>
    <v>       3.32548851       9.40590192       5.75991507 </v>
    <v>       0.00000000       0.00000000      11.51983014 </v>
   </varray>
   <i name="volume">   1080.99386112 </i>
   <varray name="rec_basis" >
    <v>       0.10023590      -0.03543874       0.00000000 </v>
    <v>       0.00000000       0.10631623       0.00000000 </v>
    <v>      -0.05011795      -0.03543874       0.08680684 </v>
   </varray>
  </crystal>
  <varray name="positions" >
   <v>       0.29166667       0.29166667       0.29166667 </v>
   <v>       0.29166667       0.29166667       0.62500000 </v>
   <v>       0.29166667       0.29166667       0.95833333 </v>
   <v>       0.29166667       0.62500000       0.29166667 </v>
   <v>       0.29166667       0.62500000       0.62500000 </v>
   <v>       0.29166667       0.62500000       0.95833333 </v>
   <v>       0.29166667       0.95833333       0.29166667 </v>
   <v>       0.29166667       0.95833333       0.62500000 </v>
   <v>       0.29166667       0.95833333       0.95833333 </v>
   <v>       0.62500000       0.29166667       0.29166667 </v>
   <v>       0.62500000       0.29166667       0.62500000 </v>
   <v>       0.62500000       0.29166667       0.95833333 </v>
   <v>       0.62500000       0.62500000       0.29166667 </v>
   <v>       0.62500000       0.62500000       0.62500000 </v>
   <v>       0.62500000       0.62500000       0.95833333 </v>
   <v>       0.62500000       0.95833333       0.29166667 </v>
   <v>       0.62500000       0.95833333       0.62500000 </v>
   <v>       0.62500000       0.95833333       0.95833333 </v>
   <v>       0.95833333       0.29166667       0.29166667 </v>
   <v>       0.95833333       0.29166667       0.62500000 </v>
   <v>       0.95833333       0.29166667       0.95833333 </v>
   <v>       0.95833333       0.62500000       0.29166667 </v>
   <v>       0.95833333       0.62500000       0.62500000 </v>
   <v>       0.95833333       0.62500000       0.95833333 </v>
   <v>       0.95833333       0.95833333       0.29166667 </v>
   <v>       0.95833333       0.95833333       0.62500000 </v>
   <v>       0.95833333       0.95833333       0.95833333 </v>
   <v>       0.04166667       0.04166667       0.04166667 </v>
   <v>       0.04166667       0.04166667       0.37500000 </v>
   <v>       0.04166667       0.04166667       0.70833333 </v>
   <v>       0.04166667       0.37500000       0.04166667 </v>
   <v>       0.04166667       0.37500000       0.37500000 </v>
   <v>       0.04166667       0.37500000       0.70833333 </v>
   <v>       0.04166667       0.70833333       0.04166667 </v>
   <v>       0.04166667       0.70833333       0.37500000 </v>
   <v>       0.04166667       0.70833333       0.70833333 </v>
   <v>       0.37500000       0.04166667       0.04166667 </v>
   <v>       0.37500000       0.04166667       0.37500000 </v>
   <v>       0.37500000       0.04166667       0.70833333 </v>
   <v>       0.37500000       0.37500000       0.04166667 </v>
   <v>       0.37500000       0.37500000       0.37500000 </v>
   <v>       0.37500000       0.37500000       0.70833333 </v>
   <v>       0.37500000       0.70833333       0.04166667 </v>
   <v>       0.37500000       0.70833333       0.37500000 </v>
   <v>       0.37500000       0.70833333       0.70833333 </v>
   <v>       0.70833333       0.04166667       0.04166667 </v>
   <v>       0.70833333       0.04166667       0.37500000 </v>
   <v>       0.70833333       0.04166667       0.70833333 </v>
   <v>       0.70833333       0.37500000       0.04166667 </v>
   <v>       0.70833333       0.37500000       0.37500000 </v>
   <v>       0.70833333       0.37500000       0.70833333 </v>
   <v>       0.70833333       0.70833333       0.04166667 </v>
   <v>       0.70833333       0.70833333       0.37500000 </v>
   <v>       0.70833333       0.70833333       0.70833333 </v>
  </varray>
 </structure>
</modeling>
