 vasp.6.3.0 20Jan22 (build Mar 07 2022 09:35:52) complex                        
  
 executed on             LinuxIFC date 2025.06.26  16:12:42
 running on   96 total cores
 distrk:  each k-point on   96 cores,    1 groups
 distr:  one band on NCORE=   1 cores,   96 groups


--------------------------------------------------------------------------------------------------------


 INCAR:
   ALGO = Normal
   AMIX = 0.2
   EDIFF = 1e-06
   EDIFFG = -0.05
   ENCUT = 550.0
   IBRION = 2
   ISIF = 2
   ISMEAR = 0
   ISPIN = 1
   ISYM = 2
   LCHARG = True
   LORBIT = 11
   LREAL = False
   LVTOT = True
   LWAVE = True
   NELECT = 376.0
   NELM = 200
   NSW = 0
   SIGMA = 0.05
   SYSTEM = SiO2

 POTCAR:    PAW_PBE Si 05Jan2001                  
 POTCAR:    PAW_PBE O 08Apr2002                   
 WARNING: For LVTOT=.TRUE., VASP.5.x writes the TOTAL local potential to the
     file LOCPOT. If you want only the Hartree contributions, use LVHAR=.TRUE.
     instead. 

 -----------------------------------------------------------------------------
|                                                                             |
|           W    W    AA    RRRRR   N    N  II  N    N   GGGG   !!!           |
|           W    W   A  A   R    R  NN   N  II  NN   N  G    G  !!!           |
|           W    W  A    A  R    R  N N  N  II  N N  N  G       !!!           |
|           W WW W  AAAAAA  RRRRR   N  N N  II  N  N N  G  GGG   !            |
|           WW  WW  A    A  R   R   N   NN  II  N   NN  G    G                |
|           W    W  A    A  R    R  N    N  II  N    N   GGGG   !!!           |
|                                                                             |
|     For optimal performance we recommend to set                             |
|       NCORE = 2 up to number-of-cores-per-socket                            |
|     NCORE specifies how many cores store one orbital (NPAR=cpu/NCORE).      |
|     This setting can greatly improve the performance of VASP for DFT.       |
|     The default, NCORE=1 might be grossly inefficient on modern             |
|     multi-core architectures or massively parallel machines. Do your        |
|     own testing! More info at https://www.vasp.at/wiki/index.php/NCORE      |
|     Unfortunately you need to use the default for GW and RPA                |
|     calculations (for HF NCORE is supported but not extensively tested      |
|     yet).                                                                   |
|                                                                             |
 -----------------------------------------------------------------------------

 POTCAR:    PAW_PBE Si 05Jan2001                  
   VRHFIN =Si: s2p2                                                                                 
   LEXCH  = PE                                                                                      
   EATOM  =   103.0669 eV,    7.5752 Ry                                                             
                                                                                                    
   TITEL  = PAW_PBE Si 05Jan2001                                                                    
   LULTRA =        F    use ultrasoft PP ?                                                          
   IUNSCR =        1    unscreen: 0-lin 1-nonlin 2-no                                               
   RPACOR =    1.500    partial core radius                                                         
   POMASS =   28.085; ZVAL   =    4.000    mass and valenz                                          
   RCORE  =    1.900    outmost cutoff radius                                                       
   RWIGS  =    2.480; RWIGS  =    1.312    wigner-seitz radius (au A)                               
   ENMAX  =  245.345; ENMIN  =  184.009 eV                                                          
   ICORE  =        2    local potential                                                             
   LCOR   =        T    correct aug charges                                                         
   LPAW   =        T    paw PP                                                                      
   EAUG   =  322.069                                                                                
   DEXC   =    0.000                                                                                
   RMAX   =    1.950    core radius for proj-oper                                                   
   RAUG   =    1.300    factor for augmentation sphere                                              
   RDEP   =    1.993    radius for radial grids                                                     
   RDEPT  =    1.837    core radius for aug-charge                                                  
                                                                                                    
   Atomic configuration                                                                             
    6 entries                                                                                       
     n  l   j            E        occ.                                                              
     1  0  0.50     -1785.8828   2.0000                                                             
     2  0  0.50      -139.4969   2.0000                                                             
     2  1  1.50       -95.5546   6.0000                                                             
     3  0  0.50       -10.8127   2.0000                                                             
     3  1  0.50        -4.0811   2.0000                                                             
     3  2  1.50        -4.0817   0.0000                                                             
   Description                                                                                      
     l       E           TYP  RCUT    TYP  RCUT                                                     
     0    -10.8127223     23  1.900                                                                 
     0     -7.6451159     23  1.900                                                                 
     1     -4.0811372     23  1.900                                                                 
     1      2.4879257     23  1.900                                                                 
     2     -4.0817478      7  1.900                                                                 
  local pseudopotential read in
  partial core-charges read in
  partial kinetic energy density read in
  atomic valenz-charges read in
  non local Contribution for L=           0  read in
    real space projection operators read in
  non local Contribution for L=           0  read in
    real space projection operators read in
  non local Contribution for L=           1  read in
    real space projection operators read in
  non local Contribution for L=           1  read in
    real space projection operators read in
    PAW grid and wavefunctions read in
 
   number of l-projection  operators is LMAX  =           4
   number of lm-projection operators is LMMAX =           8
 
 POTCAR:    PAW_PBE O 08Apr2002                   
   VRHFIN =O: s2p4                                                                                  
   LEXCH  = PE                                                                                      
   EATOM  =   432.3788 eV,   31.7789 Ry                                                             
                                                                                                    
   TITEL  = PAW_PBE O 08Apr2002                                                                     
   LULTRA =        F    use ultrasoft PP ?                                                          
   IUNSCR =        1    unscreen: 0-lin 1-nonlin 2-no                                               
   RPACOR =    1.200    partial core radius                                                         
   POMASS =   16.000; ZVAL   =    6.000    mass and valenz                                          
   RCORE  =    1.520    outmost cutoff radius                                                       
   RWIGS  =    1.550; RWIGS  =    0.820    wigner-seitz radius (au A)                               
   ENMAX  =  400.000; ENMIN  =  300.000 eV                                                          
   ICORE  =        2    local potential                                                             
   LCOR   =        T    correct aug charges                                                         
   LPAW   =        T    paw PP                                                                      
   EAUG   =  605.392                                                                                
   DEXC   =    0.000                                                                                
   RMAX   =    1.553    core radius for proj-oper                                                   
   RAUG   =    1.300    factor for augmentation sphere                                              
   RDEP   =    1.550    radius for radial grids                                                     
   RDEPT  =    1.329    core radius for aug-charge                                                  
                                                                                                    
   Atomic configuration                                                                             
    4 entries                                                                                       
     n  l   j            E        occ.                                                              
     1  0  0.50      -514.6923   2.0000                                                             
     2  0  0.50       -23.9615   2.0000                                                             
     2  1  0.50        -9.0305   4.0000                                                             
     3  2  1.50        -9.5241   0.0000                                                             
   Description                                                                                      
     l       E           TYP  RCUT    TYP  RCUT                                                     
     0    -23.9615318     23  1.200                                                                 
     0     -9.5240782     23  1.200                                                                 
     1     -9.0304911     23  1.520                                                                 
     1      8.1634956     23  1.520                                                                 
     2     -9.5240782      7  1.500                                                                 
  local pseudopotential read in
  partial core-charges read in
  partial kinetic energy density read in
  kinetic energy density of atom read in
  atomic valenz-charges read in
  non local Contribution for L=           0  read in
    real space projection operators read in
  non local Contribution for L=           0  read in
    real space projection operators read in
  non local Contribution for L=           1  read in
    real space projection operators read in
  non local Contribution for L=           1  read in
    real space projection operators read in
    PAW grid and wavefunctions read in
 
   number of l-projection  operators is LMAX  =           4
   number of lm-projection operators is LMMAX =           8
 
 -----------------------------------------------------------------------------
|                                                                             |
|               ----> ADVICE to this user running VASP <----                  |
|                                                                             |
|     You have a (more or less) 'large supercell' and for larger cells it     |
|     might be more efficient to use real-space projection operators.         |
|     Therefore, try LREAL= Auto in the INCAR file.                           |
|     Mind: For very accurate calculation, you might also keep the            |
|     reciprocal projection scheme (i.e. LREAL=.FALSE.).                      |
|                                                                             |
 -----------------------------------------------------------------------------

  PAW_PBE Si 05Jan2001                  :
 energy of atom  1       EATOM= -103.0669
 kinetic energy error for atom=    0.0004 (will be added to EATOM!!)
  PAW_PBE O 08Apr2002                   :
 energy of atom  2       EATOM= -432.3788
 kinetic energy error for atom=    0.0194 (will be added to EATOM!!)
 
 
 POSCAR: Si24 O47
  positions in direct lattice
  No initial velocities read in
 exchange correlation table for  LEXCH =        8
   RHO(1)=    0.500       N(1)  =     2000
   RHO(2)=  100.500       N(2)  =     4000

 VTST: version 4.2, (08/11/21)

 CHAIN: initializing optimizer
 
 OPT: Using VASP Conjugate-Gradient optimizer
 CHAIN: Read ICHAIN            0
 
 POSCAR: Si24 O47
  positions in direct lattice
  No initial velocities read in
 


--------------------------------------------------------------------------------------------------------


 ion  position               nearest neighbor table
   1  0.266  0.266  0.000-  65 1.61  32 1.61  48 1.62  25 1.62  14 3.06  19 3.06  17 3.06  10 3.06

   2  0.266  0.266  0.500-  64 1.61  33 1.61  49 1.62  20 3.06  13 3.06   9 3.06  18 3.06
   3  0.266  0.766  0.000-  67 1.61  34 1.61  50 1.62  27 1.62  16 3.06  17 3.06  12 3.06  19 3.06

   4  0.266  0.766  0.500-  66 1.61  35 1.61  51 1.62  26 1.62  15 3.06  18 3.06  11 3.06  20 3.06

   5  0.766  0.266  0.000-  69 1.61  36 1.61  52 1.62  29 1.62  10 3.06  23 3.06  21 3.06  14 3.06

   6  0.766  0.266  0.500-  68 1.61  37 1.61  53 1.62  28 1.62   9 3.06  24 3.06  22 3.06  13 3.06

   7  0.766  0.766  0.000-  71 1.61  38 1.61  54 1.62  31 1.62  12 3.06  21 3.06  16 3.06  23 3.06

   8  0.766  0.766  0.500-  70 1.61  39 1.61  55 1.62  30 1.62  11 3.06  22 3.06  15 3.06  24 3.06

   9  0.000  0.234  0.333-  60 1.61  40 1.62  68 1.62   6 3.06   2 3.06  21 3.06  19 3.06
  10  0.000  0.234  0.833-  25 1.61  61 1.61  41 1.62  69 1.62   5 3.06   1 3.06  20 3.06  22 3.06

  11  0.000  0.734  0.333-  26 1.61  62 1.61  42 1.62  70 1.62   8 3.06   4 3.06  17 3.06  23 3.06

  12  0.000  0.734  0.833-  27 1.61  63 1.61  43 1.62  71 1.62   7 3.06   3 3.06  18 3.06  24 3.06

  13  0.500  0.234  0.333-  28 1.61  56 1.61  44 1.62  64 1.62   2 3.06   6 3.06  17 3.06  23 3.06

  14  0.500  0.234  0.833-  29 1.61  57 1.61  45 1.62  65 1.62   1 3.06   5 3.06  18 3.06  24 3.06

  15  0.500  0.734  0.333-  30 1.61  58 1.61  46 1.62  66 1.62   4 3.06   8 3.06  19 3.06  21 3.06

  16  0.500  0.734  0.833-  31 1.61  59 1.61  47 1.62  67 1.62   3 3.06   7 3.06  20 3.06  22 3.06

  17  0.234  0.000  0.167-  48 1.61  42 1.61  34 1.62  56 1.62   3 3.06   1 3.06  11 3.06  13 3.06

  18  0.234  0.000  0.667-  49 1.61  43 1.61  35 1.62  57 1.62   4 3.06   2 3.06  12 3.06  14 3.06

  19  0.234  0.500  0.167-  50 1.61  40 1.61  32 1.62  58 1.62   1 3.06   3 3.06   9 3.06  15 3.06

  20  0.234  0.500  0.667-  51 1.61  41 1.61  33 1.62  59 1.62   2 3.06   4 3.06  10 3.06  16 3.06

  21  0.734  0.000  0.167-  52 1.61  46 1.61  38 1.62  60 1.62   7 3.06   5 3.06   9 3.06  15 3.06

  22  0.734  0.000  0.667-  53 1.61  47 1.61  39 1.62  61 1.62   8 3.06   6 3.06  10 3.06  16 3.06

  23  0.734  0.500  0.167-  54 1.61  44 1.61  36 1.62  62 1.62   5 3.06   7 3.06  11 3.06  13 3.06

  24  0.734  0.500  0.667-  55 1.61  45 1.61  37 1.62  63 1.62   6 3.06   8 3.06  12 3.06  14 3.06

  25  0.135  0.207  0.892-  10 1.61   1 1.62
  26  0.135  0.707  0.392-  11 1.61   4 1.62
  27  0.135  0.707  0.892-  12 1.61   3 1.62
  28  0.635  0.207  0.392-  13 1.61   6 1.62
  29  0.635  0.207  0.892-  14 1.61   5 1.62
  30  0.635  0.707  0.392-  15 1.61   8 1.62
  31  0.635  0.707  0.892-  16 1.61   7 1.62
  32  0.293  0.428  0.059-   1 1.61  19 1.62
  33  0.293  0.428  0.559-   2 1.61  20 1.62
  34  0.293  0.928  0.059-   3 1.61  17 1.62
  35  0.293  0.928  0.559-   4 1.61  18 1.62
  36  0.793  0.428  0.059-   5 1.61  23 1.62
  37  0.793  0.428  0.559-   6 1.61  24 1.62
  38  0.793  0.928  0.059-   7 1.61  21 1.62
  39  0.793  0.928  0.559-   8 1.61  22 1.62
  40  0.072  0.365  0.226-  19 1.61   9 1.62
  41  0.072  0.365  0.726-  20 1.61  10 1.62
  42  0.072  0.865  0.226-  17 1.61  11 1.62
  43  0.072  0.865  0.726-  18 1.61  12 1.62
  44  0.572  0.365  0.226-  23 1.61  13 1.62
  45  0.572  0.365  0.726-  24 1.61  14 1.62
  46  0.572  0.865  0.226-  21 1.61  15 1.62
  47  0.572  0.865  0.726-  22 1.61  16 1.62
  48  0.207  0.135  0.108-  17 1.61   1 1.62
  49  0.207  0.135  0.608-  18 1.61   2 1.62
  50  0.207  0.635  0.108-  19 1.61   3 1.62
  51  0.207  0.635  0.608-  20 1.61   4 1.62
  52  0.707  0.135  0.108-  21 1.61   5 1.62
  53  0.707  0.135  0.608-  22 1.61   6 1.62
  54  0.707  0.635  0.108-  23 1.61   7 1.62
  55  0.707  0.635  0.608-  24 1.61   8 1.62
  56  0.365  0.072  0.274-  13 1.61  17 1.62
  57  0.365  0.072  0.774-  14 1.61  18 1.62
  58  0.365  0.572  0.274-  15 1.61  19 1.62
  59  0.365  0.572  0.774-  16 1.61  20 1.62
  60  0.865  0.072  0.274-   9 1.61  21 1.62
  61  0.865  0.072  0.774-  10 1.61  22 1.62
  62  0.865  0.572  0.274-  11 1.61  23 1.62
  63  0.865  0.572  0.774-  12 1.61  24 1.62
  64  0.428  0.293  0.441-   2 1.61  13 1.62
  65  0.428  0.293  0.941-   1 1.61  14 1.62
  66  0.428  0.793  0.441-   4 1.61  15 1.62
  67  0.428  0.793  0.941-   3 1.61  16 1.62
  68  0.928  0.293  0.441-   6 1.61   9 1.62
  69  0.928  0.293  0.941-   5 1.61  10 1.62
  70  0.928  0.793  0.441-   8 1.61  11 1.62
  71  0.928  0.793  0.941-   7 1.61  12 1.62
 
  LATTYP: Found a hexagonal cell.
 ALAT       =     9.8299323535
 C/A-ratio  =     1.1050536148
  
  Lattice vectors:
  
 A1 = (   4.9149661767,  -8.5129711356,   0.0000000000)
 A2 = (   4.9149661767,   8.5129711356,   0.0000000000)
 A3 = (   0.0000000000,   0.0000000000,  10.8626022800)


Analysis of symmetry for initial positions (statically):
=====================================================================
 Subroutine PRICEL returns:
 Original cell was already a primitive cell.
 

 Routine SETGRP: Setting up the symmetry group for a 
 hexagonal supercell.


 Subroutine GETGRP returns: Found  1 space group operations
 (whereof  1 operations were pure point group operations)
 out of a pool of 24 trial point group operations.


The static configuration has the point symmetry C_1 .


Analysis of symmetry for dynamics (positions and initial velocities):
=====================================================================
 Subroutine PRICEL returns:
 Original cell was already a primitive cell.
 

 Routine SETGRP: Setting up the symmetry group for a 
 hexagonal supercell.


 Subroutine GETGRP returns: Found  1 space group operations
 (whereof  1 operations were pure point group operations)
 out of a pool of 24 trial point group operations.


The dynamic configuration has the point symmetry C_1 .


 Subroutine INISYM returns: Found  1 space group operations
 (whereof  1 operations are pure point group operations),
 and found     1 'primitive' translations


----------------------------------------------------------------------------------------

                                     Primitive cell                                     

  volume of cell :     909.0035

  direct lattice vectors                    reciprocal lattice vectors
     4.914966177 -8.512971136  0.000000000     0.101730100 -0.058733901  0.000000000
     4.914966177  8.512971136  0.000000000     0.101730100  0.058733901  0.000000000
     0.000000000  0.000000000 10.862602280     0.000000000  0.000000000  0.092058972

  length of vectors
     9.829932353  9.829932353 10.862602280     0.117467801  0.117467801  0.092058972

  position of ions in fractional coordinates (direct lattice)
     0.265544295  0.265544295  0.000000000
     0.265544295  0.265544295  0.500000000
     0.265544295  0.765544295  0.000000000
     0.265544295  0.765544295  0.500000000
     0.765544295  0.265544295  0.000000000
     0.765544295  0.265544295  0.500000000
     0.765544295  0.765544295  0.000000000
     0.765544295  0.765544295  0.500000000
     1.000000000  0.234455705  0.333333333
     1.000000000  0.234455705  0.833333333
     1.000000000  0.734455705  0.333333333
     1.000000000  0.734455705  0.833333333
     0.500000000  0.234455705  0.333333333
     0.500000000  0.234455705  0.833333333
     0.500000000  0.734455705  0.333333333
     0.500000000  0.734455705  0.833333333
     0.234455705  1.000000000  0.166666667
     0.234455705  1.000000000  0.666666667
     0.234455705  0.500000000  0.166666667
     0.234455705  0.500000000  0.666666667
     0.734455705  1.000000000  0.166666667
     0.734455705  1.000000000  0.666666667
     0.734455705  0.500000000  0.166666667
     0.734455705  0.500000000  0.666666667
     0.134611555  0.206697145  0.892445490
     0.134611555  0.706697145  0.392445490
     0.134611555  0.706697145  0.892445490
     0.634611555  0.206697145  0.392445490
     0.634611555  0.206697145  0.892445490
     0.634611555  0.706697145  0.392445490
     0.634611555  0.706697145  0.892445490
     0.293302855  0.427914410  0.059112157
     0.293302855  0.427914410  0.559112157
     0.293302855  0.927914410  0.059112157
     0.293302855  0.927914410  0.559112157
     0.793302855  0.427914410  0.059112157
     0.793302855  0.427914410  0.559112157
     0.793302855  0.927914410  0.059112157
     0.793302855  0.927914410  0.559112157
     0.072085590  0.365388445  0.225778823
     0.072085590  0.365388445  0.725778823
     0.072085590  0.865388445  0.225778823
     0.072085590  0.865388445  0.725778823
     0.572085590  0.365388445  0.225778823
     0.572085590  0.365388445  0.725778823
     0.572085590  0.865388445  0.225778823
     0.572085590  0.865388445  0.725778823
     0.206697145  0.134611555  0.107554510
     0.206697145  0.134611555  0.607554510
     0.206697145  0.634611555  0.107554510
     0.206697145  0.634611555  0.607554510
     0.706697145  0.134611555  0.107554510
     0.706697145  0.134611555  0.607554510
     0.706697145  0.634611555  0.107554510
     0.706697145  0.634611555  0.607554510
     0.365388445  0.072085590  0.274221177
     0.365388445  0.072085590  0.774221177
     0.365388445  0.572085590  0.274221177
     0.365388445  0.572085590  0.774221177
     0.865388445  0.072085590  0.274221177
     0.865388445  0.072085590  0.774221177
     0.865388445  0.572085590  0.274221177
     0.865388445  0.572085590  0.774221177
     0.427914410  0.293302855  0.440887843
     0.427914410  0.293302855  0.940887843
     0.427914410  0.793302855  0.440887843
     0.427914410  0.793302855  0.940887843
     0.927914410  0.293302855  0.440887843
     0.927914410  0.293302855  0.940887843
     0.927914410  0.793302855  0.440887843
     0.927914410  0.793302855  0.940887843

  ion indices of the primitive-cell ions
   primitive index   ion index
                 1           1
                 2           2
                 3           3
                 4           4
                 5           5
                 6           6
                 7           7
                 8           8
                 9           9
                10          10
                11          11
                12          12
                13          13
                14          14
                15          15
                16          16
                17          17
                18          18
                19          19
                20          20
                21          21
                22          22
                23          23
                24          24
                25          25
                26          26
                27          27
                28          28
                29          29
                30          30
                31          31
                32          32
                33          33
                34          34
                35          35
                36          36
                37          37
                38          38
                39          39
                40          40
                41          41
                42          42
                43          43
                44          44
                45          45
                46          46
                47          47
                48          48
                49          49
                50          50
                51          51
                52          52
                53          53
                54          54
                55          55
                56          56
                57          57
                58          58
                59          59
                60          60
                61          61
                62          62
                63          63
                64          64
                65          65
                66          66
                67          67
                68          68
                69          69
                70          70
                71          71

----------------------------------------------------------------------------------------

 
 
 KPOINTS: pymatgen with grid density = 1000 / numb

Automatic generation of k-mesh.
 Grid dimensions read from file:
 generate k-points for:    2    2    2

 Generating k-lattice:

  Cartesian coordinates                     Fractional coordinates (reciprocal lattice)
     0.050865050 -0.029366950  0.000000000     0.500000000 -0.000000000  0.000000000
     0.050865050  0.029366950  0.000000000    -0.000000000  0.500000000  0.000000000
     0.000000000  0.000000000  0.046029486     0.000000000  0.000000000  0.500000000

  Length of vectors
     0.058733901  0.058733901  0.046029486

  Shift w.r.t. Gamma in fractional coordinates (k-lattice)
     0.000000000  0.000000000  0.000000000

 
 Subroutine IBZKPT returns following result:
 ===========================================
 
 Found      8 irreducible k-points:
 
 Following reciprocal coordinates:
            Coordinates               Weight
  0.000000  0.000000  0.000000      1.000000
  0.500000  0.000000  0.000000      1.000000
  0.000000  0.500000  0.000000      1.000000
  0.500000  0.500000  0.000000      1.000000
  0.000000  0.000000  0.500000      1.000000
  0.500000  0.000000  0.500000      1.000000
  0.000000  0.500000  0.500000      1.000000
  0.500000  0.500000  0.500000      1.000000
 
 Following cartesian coordinates:
            Coordinates               Weight
  0.000000  0.000000  0.000000      1.000000
  0.050865 -0.029367  0.000000      1.000000
  0.050865  0.029367  0.000000      1.000000
  0.101730  0.000000  0.000000      1.000000
  0.000000  0.000000  0.046029      1.000000
  0.050865 -0.029367  0.046029      1.000000
  0.050865  0.029367  0.046029      1.000000
  0.101730  0.000000  0.046029      1.000000
 


--------------------------------------------------------------------------------------------------------




 Dimension of arrays:
   k-points           NKPTS =      8   k-points in BZ     NKDIM =      8   number of bands    NBANDS=    288
   number of dos      NEDOS =    301   number of ions     NIONS =     71
   non local maximal  LDIM  =      4   non local SUM 2l+1 LMDIM =      8
   total plane-waves  NPLWV = 200704
   max r-space proj   IRMAX =      1   max aug-charges    IRDMAX=   7581
   dimension x,y,z NGX =    56 NGY =   56 NGZ =   64
   dimension x,y,z NGXF=   112 NGYF=  112 NGZF=  128
   support grid    NGXF=   112 NGYF=  112 NGZF=  128
   ions per type =              24  47
   NGX,Y,Z   is equivalent  to a cutoff of   9.47,  9.47,  9.79 a.u.
   NGXF,Y,Z  is equivalent  to a cutoff of  18.94, 18.94, 19.59 a.u.

 SYSTEM =  SiO2                                    
 POSCAR =  Si24 O47                                

 Startparameter for this run:
   NWRITE =      2    write-flag & timer
   PREC   = normal    normal or accurate (medium, high low for compatibility)
   ISTART =      0    job   : 0-new  1-cont  2-samecut
   ICHARG =      2    charge: 1-file 2-atom 10-const
   ISPIN  =      1    spin polarized calculation?
   LNONCOLLINEAR =      F non collinear calculations
   LSORBIT =      F    spin-orbit coupling
   INIWAV =      1    electr: 0-lowe 1-rand  2-diag
   LASPH  =      F    aspherical Exc in radial PAW
 Electronic Relaxation 1
   ENCUT  =  550.0 eV  40.42 Ry    6.36 a.u.  18.80 18.80 20.77*2*pi/ulx,y,z
   ENINI  =  550.0     initial cutoff
   ENAUG  =  605.4 eV  augmentation charge cutoff
   NELM   =    200;   NELMIN=  2; NELMDL= -5     # of ELM steps 
   EDIFF  = 0.1E-05   stopping-criterion for ELM
   LREAL  =      F    real-space projection
   NLSPLINE    = F    spline interpolate recip. space projectors
   LCOMPAT=      F    compatible to vasp.4.4
   GGA_COMPAT  = T    GGA compatible to vasp.4.4-vasp.4.6
   LMAXPAW     = -100 max onsite density
   LMAXMIX     =    2 max onsite mixed and CHGCAR
   VOSKOWN=      0    Vosko Wilk Nusair interpolation
   ROPT   =    0.00000   0.00000
 Ionic relaxation
   EDIFFG = -.5E-01   stopping-criterion for IOM
   NSW    =      0    number of steps for IOM
   NBLOCK =      1;   KBLOCK =      1    inner block; outer block 
   IBRION =     -1    ionic relax: 0-MD 1-quasi-New 2-CG
   NFREE  =      1    steps in history (QN), initial steepest desc. (CG)
   ISIF   =      2    stress and relaxation
   IWAVPR =     10    prediction:  0-non 1-charg 2-wave 3-comb
   ISYM   =      2    0-nonsym 1-usesym 2-fastsym
   LCORR  =      T    Harris-Foulkes like correction to forces

   POTIM  = 0.5000    time-step for ionic-motion
   TEIN   =    0.0    initial temperature
   TEBEG  =    0.0;   TEEND  =   0.0 temperature during run
   SMASS  =  -3.00    Nose mass-parameter (am)
   estimated Nose-frequenzy (Omega)   =  0.10E-29 period in steps = 0.13E+47 mass=  -0.221E-26a.u.
   SCALEE = 1.0000    scale energy and forces
   NPACO  =    256;   APACO  = 10.0  distance and # of slots for P.C.
   PSTRESS=    0.0 pullay stress

  Mass of Ions in am
   POMASS =  28.09 16.00
  Ionic Valenz
   ZVAL   =   4.00  6.00
  Atomic Wigner-Seitz radii
   RWIGS  =  -1.00 -1.00
  virtual crystal weights 
   VCA    =   1.00  1.00
   NELECT =     376.0000    total number of electrons
   NUPDOWN=      -1.0000    fix difference up-down

 DOS related values:
   EMIN   =  10.00;   EMAX   =-10.00  energy-range for DOS
   EFERMI =   0.00
   ISMEAR =     0;   SIGMA  =   0.05  broadening in eV -4-tet -1-fermi 0-gaus

 Electronic relaxation 2 (details)
   IALGO  =     38    algorithm
   LDIAG  =      T    sub-space diagonalisation (order eigenvalues)
   LSUBROT=      F    optimize rotation matrix (better conditioning)
   TURBO    =      0    0=normal 1=particle mesh
   IRESTART =      0    0=no restart 2=restart with 2 vectors
   NREBOOT  =      0    no. of reboots
   NMIN     =      0    reboot dimension
   EREF     =   0.00    reference energy to select bands
   IMIX   =      4    mixing-type and parameters
     AMIX     =   0.20;   BMIX     =  1.00
     AMIX_MAG =   0.80;   BMIX_MAG =  1.00
     AMIN     =   0.10
     WC   =   100.;   INIMIX=   1;  MIXPRE=   1;  MAXMIX= -45

 Intra band minimization:
   WEIMIN = 0.0000     energy-eigenvalue tresh-hold
   EBREAK =  0.87E-09  absolut break condition
   DEPER  =   0.30     relativ break condition  

   TIME   =   0.40     timestep for ELM

  volume/ion in A,a.u.               =      12.80        86.40
  Fermi-wavevector in a.u.,A,eV,Ry     =   1.219782  2.305054 20.243678  1.487868
  Thomas-Fermi vector in A             =   2.355022
 
 Write flags
   LWAVE        =      T    write WAVECAR
   LDOWNSAMPLE  =      F    k-point downsampling of WAVECAR
   LCHARG       =      T    write CHGCAR
   LVTOT        =      T    write LOCPOT, total local potential
   LVHAR        =      F    write LOCPOT, Hartree potential only
   LELF         =      F    write electronic localiz. function (ELF)
   LORBIT       =     11    0 simple, 1 ext, 2 COOP (PROOUT), +10 PAW based schemes


 Dipole corrections
   LMONO  =      F    monopole corrections only (constant potential shift)
   LDIPOL =      F    correct potential (dipole corrections)
   IDIPOL =      0    1-x, 2-y, 3-z, 4-all directions 
   EPSILON=  1.0000000 bulk dielectric constant

 Exchange correlation treatment:
   GGA     =    --    GGA type
   LEXCH   =     8    internal setting for exchange type
   LIBXC   =     F    Libxc                    
   VOSKOWN =     0    Vosko Wilk Nusair interpolation
   LHFCALC =     F    Hartree Fock is set to
   LHFONE  =     F    Hartree Fock one center treatment
   AEXX    =    0.0000 exact exchange contribution

 Linear response parameters
   LEPSILON=     F    determine dielectric tensor
   LRPA    =     F    only Hartree local field effects (RPA)
   LNABLA  =     F    use nabla operator in PAW spheres
   LVEL    =     F    velocity operator in full k-point grid
   CSHIFT  =0.1000    complex shift for real part using Kramers Kronig
   OMEGAMAX=  -1.0    maximum frequency
   DEG_THRESHOLD= 0.2000000E-02 threshold for treating states as degnerate
   RTIME   =   -0.100 relaxation time in fs
  (WPLASMAI=    0.000 imaginary part of plasma frequency in eV, 0.658/RTIME)
   DFIELD  = 0.0000000 0.0000000 0.0000000 field for delta impulse in time
 
  Optional k-point grid parameters
   LKPOINTS_OPT  =     F    use optional k-point grid
   KPOINTS_OPT_MODE=     1    mode for optional k-point grid
 
 Orbital magnetization related:
   ORBITALMAG=     F  switch on orbital magnetization
   LCHIMAG   =     F  perturbation theory with respect to B field
   DQ        =  0.001000  dq finite difference perturbation B field
   LLRAUG    =     F  two centre corrections for induced B field



--------------------------------------------------------------------------------------------------------


 Static calculation
 charge density and potential will be updated during run
 non-spin polarized calculation
 Variant of blocked Davidson
 Davidson routine will perform the subspace rotation
 perform sub-space diagonalisation
    after iterative eigenvector-optimisation
 modified Broyden-mixing scheme, WC =      100.0
 initial mixing is a Kerker type mixing with AMIX =  0.2000 and BMIX =      1.0000
 Hartree-type preconditioning will be used
 using additional bands          100
 reciprocal scheme for non local part
 use partial core corrections
 calculate Harris-corrections to forces 
   (improved forces if not selfconsistent)
 use gradient corrections 
 use of overlap-Matrix (Vanderbilt PP)
 Gauss-broadening in eV      SIGMA  =   0.05


--------------------------------------------------------------------------------------------------------


  energy-cutoff  :      550.00
  volume of cell :      909.00
      direct lattice vectors                 reciprocal lattice vectors
     4.914966177 -8.512971136  0.000000000     0.101730100 -0.058733901  0.000000000
     4.914966177  8.512971136  0.000000000     0.101730100  0.058733901  0.000000000
     0.000000000  0.000000000 10.862602280     0.000000000  0.000000000  0.092058972

  length of vectors
     9.829932353  9.829932353 10.862602280     0.117467801  0.117467801  0.092058972


 
 k-points in units of 2pi/SCALE and weight: pymatgen with grid density = 1000 / numb
   0.00000000  0.00000000  0.00000000       0.125
   0.05086505 -0.02936695  0.00000000       0.125
   0.05086505  0.02936695  0.00000000       0.125
   0.10173010  0.00000000  0.00000000       0.125
   0.00000000  0.00000000  0.04602949       0.125
   0.05086505 -0.02936695  0.04602949       0.125
   0.05086505  0.02936695  0.04602949       0.125
   0.10173010  0.00000000  0.04602949       0.125
 
 k-points in reciprocal lattice and weights: pymatgen with grid density = 1000 / numb
   0.00000000  0.00000000  0.00000000       0.125
   0.50000000  0.00000000  0.00000000       0.125
   0.00000000  0.50000000  0.00000000       0.125
   0.50000000  0.50000000  0.00000000       0.125
   0.00000000  0.00000000  0.50000000       0.125
   0.50000000  0.00000000  0.50000000       0.125
   0.00000000  0.50000000  0.50000000       0.125
   0.50000000  0.50000000  0.50000000       0.125
 
 position of ions in fractional coordinates (direct lattice) 
   0.26554429  0.26554429  0.00000000
   0.26554429  0.26554429  0.50000000
   0.26554429  0.76554429  0.00000000
   0.26554429  0.76554429  0.50000000
   0.76554429  0.26554429  0.00000000
   0.76554429  0.26554429  0.50000000
   0.76554429  0.76554429  0.00000000
   0.76554429  0.76554429  0.50000000
   0.00000000  0.23445571  0.33333333
   0.00000000  0.23445571  0.83333333
   0.00000000  0.73445571  0.33333333
   0.00000000  0.73445571  0.83333333
   0.50000000  0.23445571  0.33333333
   0.50000000  0.23445571  0.83333333
   0.50000000  0.73445571  0.33333333
   0.50000000  0.73445571  0.83333333
   0.23445571  0.00000000  0.16666667
   0.23445571  0.00000000  0.66666667
   0.23445571  0.50000000  0.16666667
   0.23445571  0.50000000  0.66666667
   0.73445571  0.00000000  0.16666667
   0.73445571  0.00000000  0.66666667
   0.73445571  0.50000000  0.16666667
   0.73445571  0.50000000  0.66666667
   0.13461155  0.20669714  0.89244549
   0.13461155  0.70669714  0.39244549
   0.13461155  0.70669714  0.89244549
   0.63461155  0.20669714  0.39244549
   0.63461155  0.20669714  0.89244549
   0.63461155  0.70669714  0.39244549
   0.63461155  0.70669714  0.89244549
   0.29330286  0.42791441  0.05911216
   0.29330286  0.42791441  0.55911216
   0.29330286  0.92791441  0.05911216
   0.29330286  0.92791441  0.55911216
   0.79330286  0.42791441  0.05911216
   0.79330286  0.42791441  0.55911216
   0.79330286  0.92791441  0.05911216
   0.79330286  0.92791441  0.55911216
   0.07208559  0.36538845  0.22577882
   0.07208559  0.36538845  0.72577882
   0.07208559  0.86538845  0.22577882
   0.07208559  0.86538845  0.72577882
   0.57208559  0.36538845  0.22577882
   0.57208559  0.36538845  0.72577882
   0.57208559  0.86538845  0.22577882
   0.57208559  0.86538845  0.72577882
   0.20669714  0.13461155  0.10755451
   0.20669714  0.13461155  0.60755451
   0.20669714  0.63461155  0.10755451
   0.20669714  0.63461155  0.60755451
   0.70669714  0.13461155  0.10755451
   0.70669714  0.13461155  0.60755451
   0.70669714  0.63461155  0.10755451
   0.70669714  0.63461155  0.60755451
   0.36538845  0.07208559  0.27422118
   0.36538845  0.07208559  0.77422118
   0.36538845  0.57208559  0.27422118
   0.36538845  0.57208559  0.77422118
   0.86538845  0.07208559  0.27422118
   0.86538845  0.07208559  0.77422118
   0.86538845  0.57208559  0.27422118
   0.86538845  0.57208559  0.77422118
   0.42791441  0.29330286  0.44088784
   0.42791441  0.29330286  0.94088784
   0.42791441  0.79330286  0.44088784
   0.42791441  0.79330286  0.94088784
   0.92791441  0.29330286  0.44088784
   0.92791441  0.29330286  0.94088784
   0.92791441  0.79330286  0.44088784
   0.92791441  0.79330286  0.94088784
 
 position of ions in cartesian coordinates  (Angst):
   2.61028246 -0.00000000  0.00000000
   2.61028246 -0.00000000  5.43130114
   5.06776555  4.25648557  0.00000000
   5.06776555  4.25648557  5.43130114
   5.06776555 -4.25648557  0.00000000
   5.06776555 -4.25648557  5.43130114
   7.52524863  0.00000000  0.00000000
   7.52524863  0.00000000  5.43130114
   1.15234186  1.99591465  3.62086743
   1.15234186  1.99591465  9.05216857
   3.60982495  6.25240022  3.62086743
   3.60982495  6.25240022  9.05216857
   3.60982495 -2.26057092  3.62086743
   3.60982495 -2.26057092  9.05216857
   6.06730804  1.99591465  3.62086743
   6.06730804  1.99591465  9.05216857
   1.15234186 -1.99591465  1.81043371
   1.15234186 -1.99591465  7.24173485
   3.60982495  2.26057092  1.81043371
   3.60982495  2.26057092  7.24173485
   3.60982495 -6.25240022  1.81043371
   3.60982495 -6.25240022  7.24173485
   6.06730804 -1.99591465  1.81043371
   6.06730804 -1.99591465  7.24173485
   1.67752072  0.61366255  9.69428041
   4.13500380  4.87014811  4.26297927
   4.13500380  4.87014811  9.69428041
   4.13500380 -3.64282302  4.26297927
   4.13500380 -3.64282302  9.69428041
   6.59248689  0.61366255  4.26297927
   6.59248689  0.61366255  9.69428041
   3.54475846  1.14594428  0.64211185
   3.54475846  1.14594428  6.07341299
   6.00224155  5.40242985  0.64211185
   6.00224155  5.40242985  6.07341299
   6.00224155 -3.11054129  0.64211185
   6.00224155 -3.11054129  6.07341299
   8.45972464  1.14594428  0.64211185
   8.45972464  1.14594428  6.07341299
   2.15017009  2.49687874  2.45254556
   2.15017009  2.49687874  7.88384670
   4.60765317  6.75336431  2.45254556
   4.60765317  6.75336431  7.88384670
   4.60765317 -1.75960683  2.45254556
   4.60765317 -1.75960683  7.88384670
   7.06513626  2.49687874  2.45254556
   7.06513626  2.49687874  7.88384670
   1.67752072 -0.61366255  1.16832187
   1.67752072 -0.61366255  6.59962301
   4.13500380  3.64282302  1.16832187
   4.13500380  3.64282302  6.59962301
   4.13500380 -4.87014811  1.16832187
   4.13500380 -4.87014811  6.59962301
   6.59248689 -0.61366255  1.16832187
   6.59248689 -0.61366255  6.59962301
   2.15017009 -2.49687874  2.97875558
   2.15017009 -2.49687874  8.41005672
   4.60765317  1.75960683  2.97875558
   4.60765317  1.75960683  8.41005672
   4.60765317 -6.75336431  2.97875558
   4.60765317 -6.75336431  8.41005672
   7.06513626 -2.49687874  2.97875558
   7.06513626 -2.49687874  8.41005672
   3.54475846 -1.14594428  4.78918929
   3.54475846 -1.14594428 10.22049043
   6.00224155  3.11054129  4.78918929
   6.00224155  3.11054129 10.22049043
   6.00224155 -5.40242985  4.78918929
   6.00224155 -5.40242985 10.22049043
   8.45972464 -1.14594428  4.78918929
   8.45972464 -1.14594428 10.22049043
 


--------------------------------------------------------------------------------------------------------


 k-point   1 :   0.0000 0.0000 0.0000  plane waves:   26579
 k-point   2 :   0.5000 0.0000 0.0000  plane waves:   26614
 k-point   3 :   0.0000 0.5000 0.0000  plane waves:   26614
 k-point   4 :   0.5000 0.5000 0.0000  plane waves:   26614
 k-point   5 :   0.0000 0.0000 0.5000  plane waves:   26718
 k-point   6 :   0.5000 0.0000 0.5000  plane waves:   26636
 k-point   7 :   0.0000 0.5000 0.5000  plane waves:   26636
 k-point   8 :   0.5000 0.5000 0.5000  plane waves:   26636

 maximum and minimum number of plane-waves per node :     26718    26579

 maximum number of plane-waves:     26718
 maximum index in each direction: 
   IXMAX=   18   IYMAX=   18   IZMAX=   20
   IXMIN=  -19   IYMIN=  -19   IZMIN=  -21


 serial   3D FFT for wavefunctions
 parallel 3D FFT for charge:
    minimum data exchange during FFTs selected (reduces bandwidth)


 total amount of memory used by VASP MPI-rank0   109999. kBytes
=======================================================================

   base      :      30000. kBytes
   nonl-proj :      57853. kBytes
   fftplans  :       1721. kBytes
   grid      :       9701. kBytes
   one-center:        218. kBytes
   wavefun   :      10506. kBytes
 
     INWAV:  cpu time      0.0000: real time      0.0001
 Broyden mixing: mesh for mixing (old mesh)
   NGX = 37   NGY = 37   NGZ = 41
  (NGX  =112   NGY  =112   NGZ  =128)
  gives a total of  56129 points

 initial charge density was supplied:
 charge density of overlapping atoms calculated
 number of electron     378.0000000 magnetization 
 keeping initial charge density in first step


--------------------------------------------------------------------------------------------------------


 Maximum index for augmentation-charges          412 (set IRDMAX)


--------------------------------------------------------------------------------------------------------


 First call to EWALD:  gamma=   0.183
 Maximum number of real-space cells 3x 3x 3
 Maximum number of reciprocal cells 3x 3x 3

    FEWALD:  cpu time      0.0038: real time      0.0038


--------------------------------------- Iteration      1(   1)  ---------------------------------------


    POTLOK:  cpu time      0.0532: real time      0.0538
    SETDIJ:  cpu time      0.0024: real time      0.0024
     EDDAV:  cpu time      4.6261: real time      4.6499
       DOS:  cpu time      0.0069: real time      0.0070
    --------------------------------------------
      LOOP:  cpu time      4.6886: real time      4.7131

 eigenvalue-minimisations  :  4608
 total energy-change (2. order) : 0.1915252E+04  (-0.2028415E+05)
 number of electron     378.0000000 magnetization 
 augmentation part      378.0000000 magnetization 

 Free energy of the ion-electron system (eV)
  ---------------------------------------------------
  alpha Z        PSCENC =       536.62291721
  Ewald energy   TEWEN  =    -14668.27296387
  -Hartree energ DENC   =     -7487.69458478
  -exchange      EXHF   =         0.00000000
  -V(xc)+E(xc)   XCENC  =      1103.28678992
  PAW double counting   =     18402.79660460   -18065.09536210
  entropy T*S    EENTRO =        -0.01329866
  eigenvalues    EBANDS =      -700.86615510
  atomic energy  EATOM  =     22794.48802020
  Solvation  Ediel_sol  =         0.00000000
  ---------------------------------------------------
  free energy    TOTEN  =      1915.25196742 eV

  energy without entropy =     1915.26526608  energy(sigma->0) =     1915.25861675


--------------------------------------------------------------------------------------------------------




--------------------------------------- Iteration      1(   2)  ---------------------------------------


     EDDAV:  cpu time      7.6507: real time      7.6843
       DOS:  cpu time      0.0086: real time      0.0086
    --------------------------------------------
      LOOP:  cpu time      7.6593: real time      7.6929

 eigenvalue-minimisations  :  6720
 total energy-change (2. order) :-0.2437309E+04  (-0.2363170E+04)
 number of electron     378.0000000 magnetization 
 augmentation part      378.0000000 magnetization 

 Free energy of the ion-electron system (eV)
  ---------------------------------------------------
  alpha Z        PSCENC =       536.62291721
  Ewald energy   TEWEN  =    -14668.27296387
  -Hartree energ DENC   =     -7487.69458478
  -exchange      EXHF   =         0.00000000
  -V(xc)+E(xc)   XCENC  =      1103.28678992
  PAW double counting   =     18402.79660460   -18065.09536210
  entropy T*S    EENTRO =        -0.00000000
  eigenvalues    EBANDS =     -3138.18883532
  atomic energy  EATOM  =     22794.48802020
  Solvation  Ediel_sol  =         0.00000000
  ---------------------------------------------------
  free energy    TOTEN  =      -522.05741415 eV

  energy without entropy =     -522.05741415  energy(sigma->0) =     -522.05741415


--------------------------------------------------------------------------------------------------------




--------------------------------------- Iteration      1(   3)  ---------------------------------------


     EDDAV:  cpu time     10.0318: real time     10.0824
       DOS:  cpu time      0.0101: real time      0.0101
    --------------------------------------------
      LOOP:  cpu time     10.0419: real time     10.0926

 eigenvalue-minimisations  :  6144
 total energy-change (2. order) :-0.1137108E+03  (-0.1133657E+03)
 number of electron     378.0000000 magnetization 
 augmentation part      378.0000000 magnetization 

 Free energy of the ion-electron system (eV)
  ---------------------------------------------------
  alpha Z        PSCENC =       536.62291721
  Ewald energy   TEWEN  =    -14668.27296387
  -Hartree energ DENC   =     -7487.69458478
  -exchange      EXHF   =         0.00000000
  -V(xc)+E(xc)   XCENC  =      1103.28678992
  PAW double counting   =     18402.79660460   -18065.09536210
  entropy T*S    EENTRO =        -0.00000000
  eigenvalues    EBANDS =     -3251.89967214
  atomic energy  EATOM  =     22794.48802020
  Solvation  Ediel_sol  =         0.00000000
  ---------------------------------------------------
  free energy    TOTEN  =      -635.76825096 eV

  energy without entropy =     -635.76825096  energy(sigma->0) =     -635.76825096


--------------------------------------------------------------------------------------------------------




--------------------------------------- Iteration      1(   4)  ---------------------------------------


     EDDAV:  cpu time      5.4568: real time      5.4803
       DOS:  cpu time      0.0086: real time      0.0087
    --------------------------------------------
      LOOP:  cpu time      5.4655: real time      5.4890

 eigenvalue-minimisations  :  5280
 total energy-change (2. order) :-0.9745664E+00  (-0.9744698E+00)
 number of electron     378.0000000 magnetization 
 augmentation part      378.0000000 magnetization 

 Free energy of the ion-electron system (eV)
  ---------------------------------------------------
  alpha Z        PSCENC =       536.62291721
  Ewald energy   TEWEN  =    -14668.27296387
  -Hartree energ DENC   =     -7487.69458478
  -exchange      EXHF   =         0.00000000
  -V(xc)+E(xc)   XCENC  =      1103.28678992
  PAW double counting   =     18402.79660460   -18065.09536210
  entropy T*S    EENTRO =        -0.00000000
  eigenvalues    EBANDS =     -3252.87423853
  atomic energy  EATOM  =     22794.48802020
  Solvation  Ediel_sol  =         0.00000000
  ---------------------------------------------------
  free energy    TOTEN  =      -636.74281735 eV

  energy without entropy =     -636.74281735  energy(sigma->0) =     -636.74281735


--------------------------------------------------------------------------------------------------------




--------------------------------------- Iteration      1(   5)  ---------------------------------------


     EDDAV:  cpu time      7.2523: real time      7.2857
       DOS:  cpu time      0.0108: real time      0.0108
    CHARGE:  cpu time      0.0431: real time      0.0436
    MIXING:  cpu time      0.0009: real time      0.0012
    --------------------------------------------
      LOOP:  cpu time      7.3070: real time      7.3413

 eigenvalue-minimisations  :  6624
 total energy-change (2. order) :-0.1100945E-01  (-0.1100922E-01)
 number of electron     376.0000062 magnetization 
 augmentation part       34.8875011 magnetization 

 Broyden mixing:
  rms(total) = 0.71160E+01    rms(broyden)= 0.71149E+01
  rms(prec ) = 0.82689E+01
  weight for this iteration     100.00

 Free energy of the ion-electron system (eV)
  ---------------------------------------------------
  alpha Z        PSCENC =       536.62291721
  Ewald energy   TEWEN  =    -14668.27296387
  -Hartree energ DENC   =     -7487.69458478
  -exchange      EXHF   =         0.00000000
  -V(xc)+E(xc)   XCENC  =      1103.28678992
  PAW double counting   =     18402.79660460   -18065.09536210
  entropy T*S    EENTRO =        -0.00000000
  eigenvalues    EBANDS =     -3252.88524798
  atomic energy  EATOM  =     22794.48802020
  Solvation  Ediel_sol  =         0.00000000
  ---------------------------------------------------
  free energy    TOTEN  =      -636.75382680 eV

  energy without entropy =     -636.75382680  energy(sigma->0) =     -636.75382680


--------------------------------------------------------------------------------------------------------




--------------------------------------- Iteration      1(   6)  ---------------------------------------


    POTLOK:  cpu time      0.0144: real time      0.0145
    SETDIJ:  cpu time      0.0017: real time      0.0017
     EDDAV:  cpu time      6.8277: real time      6.8555
       DOS:  cpu time      0.0106: real time      0.0107
    CHARGE:  cpu time      0.0408: real time      0.0410
    MIXING:  cpu time      0.0007: real time      0.0008
    --------------------------------------------
      LOOP:  cpu time      6.8960: real time      6.9242

 eigenvalue-minimisations  :  6144
 total energy-change (2. order) : 0.5496324E+02  (-0.5927908E+01)
 number of electron     376.0000058 magnetization 
 augmentation part       31.5063980 magnetization 

 Broyden mixing:
  rms(total) = 0.49106E+01    rms(broyden)= 0.49105E+01
  rms(prec ) = 0.54711E+01
  weight for this iteration     100.00

 eigenvalues of (default mixing * dielectric matrix)
  average eigenvalue GAMMA=   2.3194
  2.3194

 Free energy of the ion-electron system (eV)
  ---------------------------------------------------
  alpha Z        PSCENC =       536.62291721
  Ewald energy   TEWEN  =    -14668.27296387
  -Hartree energ DENC   =     -7910.17336656
  -exchange      EXHF   =         0.00000000
  -V(xc)+E(xc)   XCENC  =      1125.04732906
  PAW double counting   =     24284.31057173   -23954.82457202
  entropy T*S    EENTRO =        -0.00000000
  eigenvalues    EBANDS =     -2788.98852410
  atomic energy  EATOM  =     22794.48802020
  Solvation  Ediel_sol  =         0.00000000
  ---------------------------------------------------
  free energy    TOTEN  =      -581.79058835 eV

  energy without entropy =     -581.79058835  energy(sigma->0) =     -581.79058835


--------------------------------------------------------------------------------------------------------




--------------------------------------- Iteration      1(   7)  ---------------------------------------


    POTLOK:  cpu time      0.0148: real time      0.0151
    SETDIJ:  cpu time      0.0016: real time      0.0016
     EDDAV:  cpu time      6.7877: real time      6.8164
       DOS:  cpu time      0.0113: real time      0.0113
    CHARGE:  cpu time      0.0413: real time      0.0415
    MIXING:  cpu time      0.0007: real time      0.0007
    --------------------------------------------
      LOOP:  cpu time      6.8573: real time      6.8865

 eigenvalue-minimisations  :  6144
 total energy-change (2. order) : 0.2002889E+02  (-0.1220762E+02)
 number of electron     376.0000052 magnetization 
 augmentation part       26.9327838 magnetization 

 Broyden mixing:
  rms(total) = 0.21651E+01    rms(broyden)= 0.21644E+01
  rms(prec ) = 0.24031E+01
  weight for this iteration     100.00

 eigenvalues of (default mixing * dielectric matrix)
  average eigenvalue GAMMA=   2.0850
  2.0850  2.0850

 Free energy of the ion-electron system (eV)
  ---------------------------------------------------
  alpha Z        PSCENC =       536.62291721
  Ewald energy   TEWEN  =    -14668.27296387
  -Hartree energ DENC   =     -8467.71846427
  -exchange      EXHF   =         0.00000000
  -V(xc)+E(xc)   XCENC  =      1161.68574086
  PAW double counting   =     42018.36308904   -41698.84798650
  entropy T*S    EENTRO =        -0.04213805
  eigenvalues    EBANDS =     -2238.03991219
  atomic energy  EATOM  =     22794.48802020
  Solvation  Ediel_sol  =         0.00000000
  ---------------------------------------------------
  free energy    TOTEN  =      -561.76169757 eV

  energy without entropy =     -561.71955953  energy(sigma->0) =     -561.74062855


--------------------------------------------------------------------------------------------------------




--------------------------------------- Iteration      1(   8)  ---------------------------------------


    POTLOK:  cpu time      0.0177: real time      0.0180
    SETDIJ:  cpu time      0.0017: real time      0.0017
     EDDAV:  cpu time      6.4608: real time      6.4902
       DOS:  cpu time      0.0105: real time      0.0105
    CHARGE:  cpu time      0.0410: real time      0.0412
    MIXING:  cpu time      0.0007: real time      0.0008
    --------------------------------------------
      LOOP:  cpu time      6.5324: real time      6.5625

 eigenvalue-minimisations  :  5952
 total energy-change (2. order) : 0.6929389E+00  (-0.2186956E+01)
 number of electron     376.0000053 magnetization 
 augmentation part       27.8017009 magnetization 

 Broyden mixing:
  rms(total) = 0.14245E+01    rms(broyden)= 0.14244E+01
  rms(prec ) = 0.15738E+01
  weight for this iteration     100.00

 eigenvalues of (default mixing * dielectric matrix)
  average eigenvalue GAMMA=   1.8798
  2.4854  2.4854  0.6686

 Free energy of the ion-electron system (eV)
  ---------------------------------------------------
  alpha Z        PSCENC =       536.62291721
  Ewald energy   TEWEN  =    -14668.27296387
  -Hartree energ DENC   =     -8395.40686434
  -exchange      EXHF   =         0.00000000
  -V(xc)+E(xc)   XCENC  =      1157.56693400
  PAW double counting   =     46292.04070902   -45970.84706909
  entropy T*S    EENTRO =        -0.00000000
  eigenvalues    EBANDS =     -2307.26044176
  atomic energy  EATOM  =     22794.48802020
  Solvation  Ediel_sol  =         0.00000000
  ---------------------------------------------------
  free energy    TOTEN  =      -561.06875863 eV

  energy without entropy =     -561.06875863  energy(sigma->0) =     -561.06875863


--------------------------------------------------------------------------------------------------------




--------------------------------------- Iteration      1(   9)  ---------------------------------------


    POTLOK:  cpu time      0.0136: real time      0.0139
    SETDIJ:  cpu time      0.0023: real time      0.0023
     EDDAV:  cpu time      6.5968: real time      6.6245
       DOS:  cpu time      0.0088: real time      0.0088
    CHARGE:  cpu time      0.0398: real time      0.0401
    MIXING:  cpu time      0.0006: real time      0.0006
    --------------------------------------------
      LOOP:  cpu time      6.6619: real time      6.6901

 eigenvalue-minimisations  :  6048
 total energy-change (2. order) :-0.7643249E-01  (-0.1092522E+00)
 number of electron     376.0000053 magnetization 
 augmentation part       27.9358669 magnetization 

 Broyden mixing:
  rms(total) = 0.71267E+00    rms(broyden)= 0.71266E+00
  rms(prec ) = 0.91955E+00
  weight for this iteration     100.00

 eigenvalues of (default mixing * dielectric matrix)
  average eigenvalue GAMMA=   2.1278
  4.5421  1.8113  1.3435  0.8144

 Free energy of the ion-electron system (eV)
  ---------------------------------------------------
  alpha Z        PSCENC =       536.62291721
  Ewald energy   TEWEN  =    -14668.27296387
  -Hartree energ DENC   =     -8425.64178458
  -exchange      EXHF   =         0.00000000
  -V(xc)+E(xc)   XCENC  =      1159.90252219
  PAW double counting   =     54867.80264460   -54546.68045894
  entropy T*S    EENTRO =        -0.00000001
  eigenvalues    EBANDS =     -2279.36608792
  atomic energy  EATOM  =     22794.48802020
  Solvation  Ediel_sol  =         0.00000000
  ---------------------------------------------------
  free energy    TOTEN  =      -561.14519112 eV

  energy without entropy =     -561.14519111  energy(sigma->0) =     -561.14519111


--------------------------------------------------------------------------------------------------------




--------------------------------------- Iteration      1(  10)  ---------------------------------------


    POTLOK:  cpu time      0.0130: real time      0.0132
    SETDIJ:  cpu time      0.0016: real time      0.0016
     EDDAV:  cpu time      6.8063: real time      6.8349
       DOS:  cpu time      0.0108: real time      0.0108
    CHARGE:  cpu time      0.0398: real time      0.0400
    MIXING:  cpu time      0.0007: real time      0.0007
    --------------------------------------------
      LOOP:  cpu time      6.8722: real time      6.9013

 eigenvalue-minimisations  :  6144
 total energy-change (2. order) : 0.3106249E+00  (-0.5924130E+00)
 number of electron     376.0000052 magnetization 
 augmentation part       27.3228569 magnetization 

 Broyden mixing:
  rms(total) = 0.47999E+00    rms(broyden)= 0.47974E+00
  rms(prec ) = 0.74517E+00
  weight for this iteration     100.00

 eigenvalues of (default mixing * dielectric matrix)
  average eigenvalue GAMMA=   1.7716
  4.5853  1.8134  1.4180  0.7887  0.2525

 Free energy of the ion-electron system (eV)
  ---------------------------------------------------
  alpha Z        PSCENC =       536.62291721
  Ewald energy   TEWEN  =    -14668.27296387
  -Hartree energ DENC   =     -8512.02751758
  -exchange      EXHF   =         0.00000000
  -V(xc)+E(xc)   XCENC  =      1165.82642330
  PAW double counting   =     63434.82759972   -63114.85299317
  entropy T*S    EENTRO =        -0.05652302
  eigenvalues    EBANDS =     -2197.38952897
  atomic energy  EATOM  =     22794.48802020
  Solvation  Ediel_sol  =         0.00000000
  ---------------------------------------------------
  free energy    TOTEN  =      -560.83456617 eV

  energy without entropy =     -560.77804315  energy(sigma->0) =     -560.80630466


--------------------------------------------------------------------------------------------------------




--------------------------------------- Iteration      1(  11)  ---------------------------------------


    POTLOK:  cpu time      0.0137: real time      0.0139
    SETDIJ:  cpu time      0.0016: real time      0.0016
     EDDAV:  cpu time      6.9624: real time      6.9947
       DOS:  cpu time      0.0113: real time      0.0113
    CHARGE:  cpu time      0.0413: real time      0.0415
    MIXING:  cpu time      0.0006: real time      0.0006
    --------------------------------------------
      LOOP:  cpu time      7.0308: real time      7.0636

 eigenvalue-minimisations  :  5664
 total energy-change (2. order) : 0.8980935E-01  (-0.2349310E-01)
 number of electron     376.0000052 magnetization 
 augmentation part       27.3259410 magnetization 

 Broyden mixing:
  rms(total) = 0.45377E+00    rms(broyden)= 0.45377E+00
  rms(prec ) = 0.69353E+00
  weight for this iteration     100.00

 eigenvalues of (default mixing * dielectric matrix)
  average eigenvalue GAMMA=   1.6580
  4.7384  1.7013  1.7013  0.7711  0.5181  0.5181

 Free energy of the ion-electron system (eV)
  ---------------------------------------------------
  alpha Z        PSCENC =       536.62291721
  Ewald energy   TEWEN  =    -14668.27296387
  -Hartree energ DENC   =     -8511.52593000
  -exchange      EXHF   =         0.00000000
  -V(xc)+E(xc)   XCENC  =      1165.82524777
  PAW double counting   =     63499.24568136   -63179.26268217
  entropy T*S    EENTRO =        -0.06157364
  eigenvalues    EBANDS =     -2197.80347370
  atomic energy  EATOM  =     22794.48802020
  Solvation  Ediel_sol  =         0.00000000
  ---------------------------------------------------
  free energy    TOTEN  =      -560.74475682 eV

  energy without entropy =     -560.68318319  energy(sigma->0) =     -560.71397000


--------------------------------------------------------------------------------------------------------




--------------------------------------- Iteration      1(  12)  ---------------------------------------


    POTLOK:  cpu time      0.0145: real time      0.0148
    SETDIJ:  cpu time      0.0018: real time      0.0018
     EDDAV:  cpu time      7.1228: real time      7.1564
       DOS:  cpu time      0.0093: real time      0.0093
    CHARGE:  cpu time      0.0401: real time      0.0403
    MIXING:  cpu time      0.0008: real time      0.0008
    --------------------------------------------
      LOOP:  cpu time      7.1892: real time      7.2234

 eigenvalue-minimisations  :  6240
 total energy-change (2. order) : 0.1345788E+00  (-0.2556382E-01)
 number of electron     376.0000052 magnetization 
 augmentation part       27.4086564 magnetization 

 Broyden mixing:
  rms(total) = 0.31631E+00    rms(broyden)= 0.31627E+00
  rms(prec ) = 0.45780E+00
  weight for this iteration     100.00

 eigenvalues of (default mixing * dielectric matrix)
  average eigenvalue GAMMA=   1.6024
  4.7967  1.8537  1.8537  0.7010  0.7010  0.7585  0.5523

 Free energy of the ion-electron system (eV)
  ---------------------------------------------------
  alpha Z        PSCENC =       536.62291721
  Ewald energy   TEWEN  =    -14668.27296387
  -Hartree energ DENC   =     -8511.34396292
  -exchange      EXHF   =         0.00000000
  -V(xc)+E(xc)   XCENC  =      1165.87461437
  PAW double counting   =     63588.59789544   -63268.62257574
  entropy T*S    EENTRO =        -0.06150825
  eigenvalues    EBANDS =     -2197.89261441
  atomic energy  EATOM  =     22794.48802020
  Solvation  Ediel_sol  =         0.00000000
  ---------------------------------------------------
  free energy    TOTEN  =      -560.61017798 eV

  energy without entropy =     -560.54866972  energy(sigma->0) =     -560.57942385


--------------------------------------------------------------------------------------------------------




--------------------------------------- Iteration      1(  13)  ---------------------------------------


    POTLOK:  cpu time      0.0131: real time      0.0134
    SETDIJ:  cpu time      0.0016: real time      0.0016
     EDDAV:  cpu time      6.7373: real time      6.7652
       DOS:  cpu time      0.0111: real time      0.0111
    CHARGE:  cpu time      0.0406: real time      0.0409
    MIXING:  cpu time      0.0008: real time      0.0008
    --------------------------------------------
      LOOP:  cpu time      6.8046: real time      6.8331

 eigenvalue-minimisations  :  6240
 total energy-change (2. order) : 0.5237521E-01  (-0.2463501E-01)
 number of electron     376.0000052 magnetization 
 augmentation part       27.4806228 magnetization 

 Broyden mixing:
  rms(total) = 0.19075E+00    rms(broyden)= 0.19067E+00
  rms(prec ) = 0.23622E+00
  weight for this iteration     100.00

 eigenvalues of (default mixing * dielectric matrix)
  average eigenvalue GAMMA=   1.5674
  4.7808  2.1531  2.1531  0.8228  0.8228  0.6926  0.6926  0.4218

 Free energy of the ion-electron system (eV)
  ---------------------------------------------------
  alpha Z        PSCENC =       536.62291721
  Ewald energy   TEWEN  =    -14668.27296387
  -Hartree energ DENC   =     -8510.90244853
  -exchange      EXHF   =         0.00000000
  -V(xc)+E(xc)   XCENC  =      1165.87526400
  PAW double counting   =     63368.32738261   -63048.35550269
  entropy T*S    EENTRO =        -0.05439139
  eigenvalues    EBANDS =     -2198.28608031
  atomic energy  EATOM  =     22794.48802020
  Solvation  Ediel_sol  =         0.00000000
  ---------------------------------------------------
  free energy    TOTEN  =      -560.55780276 eV

  energy without entropy =     -560.50341138  energy(sigma->0) =     -560.53060707


--------------------------------------------------------------------------------------------------------




--------------------------------------- Iteration      1(  14)  ---------------------------------------


    POTLOK:  cpu time      0.0133: real time      0.0136
    SETDIJ:  cpu time      0.0017: real time      0.0017
     EDDAV:  cpu time      7.1176: real time      7.1483
       DOS:  cpu time      0.0115: real time      0.0115
    CHARGE:  cpu time      0.0414: real time      0.0416
    MIXING:  cpu time      0.0010: real time      0.0010
    --------------------------------------------
      LOOP:  cpu time      7.1865: real time      7.2178

 eigenvalue-minimisations  :  6432
 total energy-change (2. order) : 0.4822332E-02  (-0.1280291E-01)
 number of electron     376.0000052 magnetization 
 augmentation part       27.5072115 magnetization 

 Broyden mixing:
  rms(total) = 0.14826E+00    rms(broyden)= 0.14822E+00
  rms(prec ) = 0.20838E+00
  weight for this iteration     100.00

 eigenvalues of (default mixing * dielectric matrix)
  average eigenvalue GAMMA=   1.5411
  4.7894  2.2272  2.2272  1.0603  1.0603  0.7048  0.7048  0.6323  0.4637

 Free energy of the ion-electron system (eV)
  ---------------------------------------------------
  alpha Z        PSCENC =       536.62291721
  Ewald energy   TEWEN  =    -14668.27296387
  -Hartree energ DENC   =     -8509.34967325
  -exchange      EXHF   =         0.00000000
  -V(xc)+E(xc)   XCENC  =      1165.76929800
  PAW double counting   =     62756.32306124   -62436.33044892
  entropy T*S    EENTRO =        -0.05872850
  eigenvalues    EBANDS =     -2199.74446254
  atomic energy  EATOM  =     22794.48802020
  Solvation  Ediel_sol  =         0.00000000
  ---------------------------------------------------
  free energy    TOTEN  =      -560.55298043 eV

  energy without entropy =     -560.49425193  energy(sigma->0) =     -560.52361618


--------------------------------------------------------------------------------------------------------




--------------------------------------- Iteration      1(  15)  ---------------------------------------


    POTLOK:  cpu time      0.0142: real time      0.0145
    SETDIJ:  cpu time      0.0016: real time      0.0016
     EDDAV:  cpu time      6.6220: real time      6.6506
       DOS:  cpu time      0.0110: real time      0.0111
    CHARGE:  cpu time      0.0401: real time      0.0404
    MIXING:  cpu time      0.0009: real time      0.0009
    --------------------------------------------
      LOOP:  cpu time      6.6898: real time      6.7190

 eigenvalue-minimisations  :  6144
 total energy-change (2. order) :-0.6831592E-02  (-0.1657385E-01)
 number of electron     376.0000053 magnetization 
 augmentation part       27.6019143 magnetization 

 Broyden mixing:
  rms(total) = 0.11922E+00    rms(broyden)= 0.11913E+00
  rms(prec ) = 0.20054E+00
  weight for this iteration     100.00

 eigenvalues of (default mixing * dielectric matrix)
  average eigenvalue GAMMA=   1.5333
  4.7981  3.0907  2.0176  1.1387  1.1387  0.7180  0.7180  0.7052  0.5661  0.4418

 Free energy of the ion-electron system (eV)
  ---------------------------------------------------
  alpha Z        PSCENC =       536.62291721
  Ewald energy   TEWEN  =    -14668.27296387
  -Hartree energ DENC   =     -8508.94999178
  -exchange      EXHF   =         0.00000000
  -V(xc)+E(xc)   XCENC  =      1165.78140154
  PAW double counting   =     62455.15454095   -62135.16893185
  entropy T*S    EENTRO =        -0.02273834
  eigenvalues    EBANDS =     -2200.19206608
  atomic energy  EATOM  =     22794.48802020
  Solvation  Ediel_sol  =         0.00000000
  ---------------------------------------------------
  free energy    TOTEN  =      -560.55981202 eV

  energy without entropy =     -560.53707368  energy(sigma->0) =     -560.54844285


--------------------------------------------------------------------------------------------------------




--------------------------------------- Iteration      1(  16)  ---------------------------------------


    POTLOK:  cpu time      0.0144: real time      0.0147
    SETDIJ:  cpu time      0.0016: real time      0.0016
     EDDAV:  cpu time      6.6035: real time      6.6326
       DOS:  cpu time      0.0104: real time      0.0105
    CHARGE:  cpu time      0.0398: real time      0.0400
    MIXING:  cpu time      0.0008: real time      0.0008
    --------------------------------------------
      LOOP:  cpu time      6.6705: real time      6.7002

 eigenvalue-minimisations  :  6144
 total energy-change (2. order) : 0.1038376E-01  (-0.6030794E-02)
 number of electron     376.0000053 magnetization 
 augmentation part       27.5507059 magnetization 

 Broyden mixing:
  rms(total) = 0.53246E-01    rms(broyden)= 0.53213E-01
  rms(prec ) = 0.61918E-01
  weight for this iteration     100.00

 eigenvalues of (default mixing * dielectric matrix)
  average eigenvalue GAMMA=   1.5826
  4.9481  3.9424  1.9797  1.3551  1.3551  0.7323  0.7323  0.6604  0.6604  0.6026
  0.4398

 Free energy of the ion-electron system (eV)
  ---------------------------------------------------
  alpha Z        PSCENC =       536.62291721
  Ewald energy   TEWEN  =    -14668.27296387
  -Hartree energ DENC   =     -8510.19547167
  -exchange      EXHF   =         0.00000000
  -V(xc)+E(xc)   XCENC  =      1165.83431774
  PAW double counting   =     62130.41005509   -61810.42878689
  entropy T*S    EENTRO =        -0.04649089
  eigenvalues    EBANDS =     -2198.96102517
  atomic energy  EATOM  =     22794.48802020
  Solvation  Ediel_sol  =         0.00000000
  ---------------------------------------------------
  free energy    TOTEN  =      -560.54942826 eV

  energy without entropy =     -560.50293737  energy(sigma->0) =     -560.52618281


--------------------------------------------------------------------------------------------------------




--------------------------------------- Iteration      1(  17)  ---------------------------------------


    POTLOK:  cpu time      0.0141: real time      0.0144
    SETDIJ:  cpu time      0.0016: real time      0.0017
     EDDAV:  cpu time      5.8192: real time      5.8438
       DOS:  cpu time      0.0116: real time      0.0116
    CHARGE:  cpu time      0.0414: real time      0.0416
    MIXING:  cpu time      0.0009: real time      0.0009
    --------------------------------------------
      LOOP:  cpu time      5.8887: real time      5.9138

 eigenvalue-minimisations  :  5568
 total energy-change (2. order) :-0.2213701E-02  (-0.1569421E-02)
 number of electron     376.0000053 magnetization 
 augmentation part       27.5743774 magnetization 

 Broyden mixing:
  rms(total) = 0.33209E-01    rms(broyden)= 0.33198E-01
  rms(prec ) = 0.59507E-01
  weight for this iteration     100.00

 eigenvalues of (default mixing * dielectric matrix)
  average eigenvalue GAMMA=   1.5577
  5.0663  3.9302  1.9837  1.4278  1.4278  0.7321  0.7321  0.8343  0.8343  0.7544
  0.5324  0.4372

 Free energy of the ion-electron system (eV)
  ---------------------------------------------------
  alpha Z        PSCENC =       536.62291721
  Ewald energy   TEWEN  =    -14668.27296387
  -Hartree energ DENC   =     -8511.43023099
  -exchange      EXHF   =         0.00000000
  -V(xc)+E(xc)   XCENC  =      1165.93193660
  PAW double counting   =     61877.10373661   -61557.12939912
  entropy T*S    EENTRO =        -0.03920084
  eigenvalues    EBANDS =     -2197.82645776
  atomic energy  EATOM  =     22794.48802020
  Solvation  Ediel_sol  =         0.00000000
  ---------------------------------------------------
  free energy    TOTEN  =      -560.55164196 eV

  energy without entropy =     -560.51244112  energy(sigma->0) =     -560.53204154


--------------------------------------------------------------------------------------------------------




--------------------------------------- Iteration      1(  18)  ---------------------------------------


    POTLOK:  cpu time      0.0135: real time      0.0138
    SETDIJ:  cpu time      0.0016: real time      0.0016
     EDDAV:  cpu time      6.6917: real time      6.7200
       DOS:  cpu time      0.0110: real time      0.0110
    CHARGE:  cpu time      0.0401: real time      0.0403
    MIXING:  cpu time      0.0009: real time      0.0009
    --------------------------------------------
      LOOP:  cpu time      6.7589: real time      6.7877

 eigenvalue-minimisations  :  6144
 total energy-change (2. order) : 0.7302263E-03  (-0.6333051E-03)
 number of electron     376.0000053 magnetization 
 augmentation part       27.5569193 magnetization 

 Broyden mixing:
  rms(total) = 0.17549E-01    rms(broyden)= 0.17525E-01
  rms(prec ) = 0.23817E-01
  weight for this iteration     100.00

 eigenvalues of (default mixing * dielectric matrix)
  average eigenvalue GAMMA=   1.5937
  5.1008  3.8459  2.3321  1.7060  1.7060  1.0458  1.0458  0.7253  0.7253  0.7559
  0.7559  0.5367  0.4368

 Free energy of the ion-electron system (eV)
  ---------------------------------------------------
  alpha Z        PSCENC =       536.62291721
  Ewald energy   TEWEN  =    -14668.27296387
  -Hartree energ DENC   =     -8511.83279965
  -exchange      EXHF   =         0.00000000
  -V(xc)+E(xc)   XCENC  =      1165.95272693
  PAW double counting   =     61845.18715568   -61525.20947109
  entropy T*S    EENTRO =        -0.04709397
  eigenvalues    EBANDS =     -2197.43940318
  atomic energy  EATOM  =     22794.48802020
  Solvation  Ediel_sol  =         0.00000000
  ---------------------------------------------------
  free energy    TOTEN  =      -560.55091173 eV

  energy without entropy =     -560.50381777  energy(sigma->0) =     -560.52736475


--------------------------------------------------------------------------------------------------------




--------------------------------------- Iteration      1(  19)  ---------------------------------------


    POTLOK:  cpu time      0.0136: real time      0.0139
    SETDIJ:  cpu time      0.0017: real time      0.0017
     EDDAV:  cpu time      6.6028: real time      6.6308
       DOS:  cpu time      0.0112: real time      0.0113
    CHARGE:  cpu time      0.0403: real time      0.0405
    MIXING:  cpu time      0.0009: real time      0.0009
    --------------------------------------------
      LOOP:  cpu time      6.6706: real time      6.6991

 eigenvalue-minimisations  :  6144
 total energy-change (2. order) :-0.3603427E-03  (-0.3111181E-03)
 number of electron     376.0000053 magnetization 
 augmentation part       27.5691008 magnetization 

 Broyden mixing:
  rms(total) = 0.14248E-01    rms(broyden)= 0.14241E-01
  rms(prec ) = 0.26558E-01
  weight for this iteration     100.00

 eigenvalues of (default mixing * dielectric matrix)
  average eigenvalue GAMMA=   1.6314
  5.1986  4.2865  2.4590  1.8471  1.4565  1.4565  1.2257  0.7279  0.7279  0.8514
  0.8514  0.7856  0.5298  0.4359

 Free energy of the ion-electron system (eV)
  ---------------------------------------------------
  alpha Z        PSCENC =       536.62291721
  Ewald energy   TEWEN  =    -14668.27296387
  -Hartree energ DENC   =     -8511.86981591
  -exchange      EXHF   =         0.00000000
  -V(xc)+E(xc)   XCENC  =      1165.95943160
  PAW double counting   =     61818.23980676   -61498.25353878
  entropy T*S    EENTRO =        -0.04312258
  eigenvalues    EBANDS =     -2197.42200671
  atomic energy  EATOM  =     22794.48802020
  Solvation  Ediel_sol  =         0.00000000
  ---------------------------------------------------
  free energy    TOTEN  =      -560.55127208 eV

  energy without entropy =     -560.50814950  energy(sigma->0) =     -560.52971079


--------------------------------------------------------------------------------------------------------




--------------------------------------- Iteration      1(  20)  ---------------------------------------


    POTLOK:  cpu time      0.0134: real time      0.0137
    SETDIJ:  cpu time      0.0016: real time      0.0016
     EDDAV:  cpu time      9.8732: real time      9.9199
       DOS:  cpu time      0.0111: real time      0.0111
    CHARGE:  cpu time      0.0398: real time      0.0400
    MIXING:  cpu time      0.0009: real time      0.0009
    --------------------------------------------
      LOOP:  cpu time      9.9400: real time      9.9872

 eigenvalue-minimisations  :  6144
 total energy-change (2. order) : 0.9564136E-04  (-0.1145782E-03)
 number of electron     376.0000053 magnetization 
 augmentation part       27.5630115 magnetization 

 Broyden mixing:
  rms(total) = 0.53473E-02    rms(broyden)= 0.53384E-02
  rms(prec ) = 0.66311E-02
  weight for this iteration     100.00

 eigenvalues of (default mixing * dielectric matrix)
  average eigenvalue GAMMA=   1.6857
  5.3141  4.6833  2.5209  2.5209  1.7090  1.7090  0.7278  0.7278  1.0174  1.0174
  0.8015  0.8015  0.7710  0.5284  0.4360

 Free energy of the ion-electron system (eV)
  ---------------------------------------------------
  alpha Z        PSCENC =       536.62291721
  Ewald energy   TEWEN  =    -14668.27296387
  -Hartree energ DENC   =     -8512.04056110
  -exchange      EXHF   =         0.00000000
  -V(xc)+E(xc)   XCENC  =      1165.96734603
  PAW double counting   =     61776.76432367   -61456.77485142
  entropy T*S    EENTRO =        -0.04591888
  eigenvalues    EBANDS =     -2197.25948829
  atomic energy  EATOM  =     22794.48802020
[...]
   -.366E+00 0.503E+01 0.548E+01   0.137E+00 -.485E+01 -.517E+01   0.272E-01 -.139E+00 -.905E-01   0.137E-02 -.122E-02 -.141E-02
   -.680E+01 -.466E+01 -.339E+01   0.687E+01 0.472E+01 0.334E+01   -.146E+00 -.179E+00 -.390E-02   0.135E-02 0.450E-03 -.168E-03
   -.531E+00 0.818E+00 0.248E+01   0.467E+00 -.663E+00 -.229E+01   -.198E-01 -.190E+00 -.109E+00   0.129E-02 0.386E-03 0.118E-02
   0.125E+02 -.154E+02 -.736E+01   -.121E+02 0.144E+02 0.512E+01   -.244E+00 0.132E+00 0.871E+00   -.199E-02 0.420E-02 0.277E-02
   0.300E+01 -.359E+00 0.309E+01   -.263E+01 0.532E+00 -.277E+01   -.176E+00 -.219E+00 -.877E-01   -.104E-02 0.117E-02 -.133E-02
   0.626E+01 0.503E+01 -.240E+01   -.585E+01 -.471E+01 0.279E+01   -.278E+00 -.249E+00 -.247E+00   -.241E-02 -.290E-03 -.509E-03
   0.275E+01 0.263E+01 0.232E+01   -.197E+01 -.246E+01 -.210E+01   -.386E+00 -.176E+00 -.110E+00   -.619E-03 -.929E-03 0.965E-03
   -.213E+01 -.170E+02 -.166E+02   0.187E+01 0.165E+02 0.163E+02   0.479E-01 0.186E+00 0.178E-01   0.157E-02 0.336E-02 0.299E-02
   -.199E+01 -.144E+02 0.148E+02   0.990E+00 0.120E+02 -.138E+02   0.324E+00 0.111E+01 -.480E+00   0.227E-02 0.383E-02 -.321E-02
   0.153E+02 0.791E+01 -.189E+02   -.130E+02 -.840E+01 0.176E+02   -.886E+00 0.367E+00 0.508E+00   -.500E-02 -.228E-02 0.485E-02
   0.952E+01 0.707E+01 0.163E+02   -.932E+01 -.524E+01 -.147E+02   -.179E+00 -.577E+00 -.603E+00   -.274E-02 -.378E-02 -.491E-02
   -.942E+01 0.330E+01 -.125E+02   0.792E+01 -.318E+01 0.105E+02   0.676E+00 -.322E-02 0.935E+00   0.380E-02 -.734E-03 0.278E-02
   -.548E+01 0.164E+01 0.984E+01   0.562E+01 -.191E+01 -.951E+01   -.208E+00 0.271E+00 -.885E-01   0.213E-02 -.464E-04 -.192E-02
   0.292E+01 -.285E+01 -.618E+01   -.256E+01 0.256E+01 0.593E+01   -.260E+00 0.272E+00 0.994E-01   -.110E-02 -.362E-05 0.997E-03
   0.263E+01 -.244E+01 0.617E+01   -.224E+01 0.240E+01 -.572E+01   -.198E+00 0.618E-01 -.172E+00   -.197E-02 -.262E-03 -.121E-02
   0.424E+02 0.574E+02 0.324E+02   -.510E+02 -.736E+02 -.428E+02   0.854E+01 0.160E+02 0.103E+02   0.102E-02 -.433E-03 -.971E-03
   0.426E+02 0.575E+02 0.323E+02   -.510E+02 -.736E+02 -.428E+02   0.824E+01 0.159E+02 0.104E+02   -.125E-02 -.290E-02 0.365E-03
   0.424E+02 0.574E+02 0.323E+02   -.510E+02 -.736E+02 -.428E+02   0.852E+01 0.160E+02 0.104E+02   0.985E-03 -.105E-02 0.141E-04
   0.420E+02 0.573E+02 0.322E+02   -.510E+02 -.736E+02 -.428E+02   0.905E+01 0.161E+02 0.105E+02   0.191E-02 -.374E-03 0.306E-03
   0.426E+02 0.574E+02 0.322E+02   -.510E+02 -.736E+02 -.428E+02   0.822E+01 0.161E+02 0.104E+02   -.802E-03 -.120E-03 -.176E-03
   0.426E+02 0.573E+02 0.323E+02   -.510E+02 -.736E+02 -.428E+02   0.826E+01 0.161E+02 0.104E+02   -.214E-02 0.813E-03 -.410E-03
   0.425E+02 0.572E+02 0.323E+02   -.510E+02 -.736E+02 -.428E+02   0.832E+01 0.162E+02 0.103E+02   -.868E-03 0.392E-03 -.410E-04
   -.598E+02 0.110E+02 0.111E+02   0.787E+02 -.104E+02 -.221E+02   -.187E+02 -.422E+00 0.111E+02   -.270E-02 0.102E-02 0.546E-02
   -.221E+02 0.210E+02 0.816E+02   0.426E+02 -.207E+02 -.909E+02   -.208E+02 -.920E+00 0.805E+01   -.159E-01 -.432E-02 -.128E-01
   -.717E+02 0.177E+01 0.223E+02   0.900E+02 -.108E+01 -.329E+02   -.181E+02 -.669E+00 0.106E+02   0.127E-03 0.769E-03 0.927E-03
   -.732E+02 -.836E+01 0.452E+02   0.913E+02 0.852E+01 -.556E+02   -.177E+02 0.113E+00 0.103E+02   0.259E-02 0.577E-02 -.133E-02
   -.704E+02 0.105E+02 0.244E+02   0.889E+02 -.965E+01 -.352E+02   -.182E+02 -.931E+00 0.107E+02   0.366E-03 -.124E-02 0.193E-02
   -.701E+02 0.136E+02 0.413E+02   0.885E+02 -.124E+02 -.514E+02   -.183E+02 -.148E+01 0.966E+01   -.208E-02 -.403E-02 -.364E-02
   -.799E+02 0.969E+01 0.190E+02   0.980E+02 -.901E+01 -.300E+02   -.178E+02 -.577E+00 0.111E+02   0.223E-02 0.499E-03 0.298E-02
   -.971E+02 0.128E+02 0.522E+02   0.115E+03 -.120E+02 -.622E+02   -.173E+02 -.777E+00 0.977E+01   0.824E-02 0.110E-02 -.413E-02
   0.399E+02 -.171E+02 -.169E+02   -.500E+02 0.339E+02 0.537E+01   0.945E+01 -.172E+02 0.124E+02   -.445E-02 -.116E-01 0.145E-01
   0.310E+02 -.542E+02 0.537E+02   -.409E+02 0.703E+02 -.635E+02   0.100E+02 -.160E+02 0.939E+01   0.114E-02 -.449E-02 -.748E-02
   0.113E+02 -.857E+02 0.124E+02   -.215E+02 0.101E+03 -.233E+02   0.102E+02 -.147E+02 0.109E+02   0.435E-02 0.470E-02 0.226E-02
   0.223E+02 -.724E+02 0.454E+02   -.325E+02 0.877E+02 -.556E+02   0.103E+02 -.150E+02 0.992E+01   0.396E-02 0.185E-02 -.192E-02
   0.414E+02 -.755E+02 0.188E+02   -.510E+02 0.907E+02 -.300E+02   0.922E+01 -.150E+02 0.114E+02   -.450E-02 0.209E-02 0.457E-02
   0.339E+02 -.695E+02 0.426E+02   -.433E+02 0.848E+02 -.526E+02   0.932E+01 -.151E+02 0.977E+01   -.370E-02 0.220E-02 -.344E-02
   0.241E+02 -.622E+02 0.232E+02   -.343E+02 0.779E+02 -.341E+02   0.103E+02 -.154E+02 0.108E+02   0.242E-02 -.293E-03 0.324E-03
   0.268E+02 -.640E+02 0.399E+02   -.365E+02 0.795E+02 -.504E+02   0.955E+01 -.154E+02 0.103E+02   -.109E-02 -.230E-04 0.191E-03
   0.423E+02 -.726E+02 -.714E+02   -.510E+02 0.883E+02 0.809E+02   0.858E+01 -.154E+02 -.907E+01   0.830E-03 0.493E-02 0.811E-02
   0.434E+02 -.894E+02 0.330E+02   -.510E+02 0.105E+03 -.196E+02   0.769E+01 -.144E+02 -.143E+02   0.386E-02 0.946E-02 -.163E-01
   0.480E+02 -.519E+02 -.440E+02   -.558E+02 0.683E+02 0.542E+02   0.749E+01 -.164E+02 -.981E+01   -.295E-02 -.317E-02 0.210E-02
   0.498E+02 -.489E+02 -.192E+02   -.581E+02 0.657E+02 0.301E+02   0.811E+01 -.169E+02 -.107E+02   -.315E-02 -.499E-02 -.187E-02
   0.373E+02 -.517E+02 -.443E+02   -.463E+02 0.683E+02 0.542E+02   0.884E+01 -.167E+02 -.947E+01   0.206E-02 -.254E-02 0.447E-02
   0.352E+02 -.493E+02 -.190E+02   -.440E+02 0.657E+02 0.301E+02   0.885E+01 -.162E+02 -.112E+02   0.347E-02 -.833E-03 -.492E-02
   0.425E+02 -.591E+02 -.415E+02   -.510E+02 0.753E+02 0.519E+02   0.837E+01 -.160E+02 -.103E+02   -.607E-03 0.123E-02 -.147E-03
   0.427E+02 -.597E+02 -.224E+02   -.510E+02 0.759E+02 0.331E+02   0.811E+01 -.160E+02 -.107E+02   -.277E-02 0.828E-03 -.549E-03
   0.329E+02 0.328E+02 -.495E+02   -.429E+02 -.491E+02 0.593E+02   0.101E+02 0.163E+02 -.939E+01   0.156E-02 0.738E-02 0.486E-02
   0.292E+02 0.586E+02 -.228E+02   -.391E+02 -.745E+02 0.337E+02   0.973E+01 0.160E+02 -.111E+02   -.773E-03 0.276E-02 -.337E-02
   0.593E+02 0.777E+02 -.492E+02   -.682E+02 -.930E+02 0.593E+02   0.837E+01 0.150E+02 -.996E+01   -.113E-01 -.261E-02 0.363E-02
   0.344E+02 0.683E+02 -.225E+02   -.443E+02 -.835E+02 0.337E+02   0.944E+01 0.148E+02 -.115E+02   -.240E-02 -.114E-02 -.317E-02
   -.246E+02 0.972E+02 -.686E+02   0.128E+02 -.110E+03 0.784E+02   0.129E+02 0.125E+02 -.858E+01   0.165E-01 -.432E-02 0.889E-02
   0.215E+02 0.694E+02 -.195E+02   -.315E+02 -.849E+02 0.303E+02   0.992E+01 0.153E+02 -.107E+02   0.224E-02 -.133E-02 -.268E-02
   0.265E+02 0.669E+02 -.388E+02   -.363E+02 -.822E+02 0.492E+02   0.959E+01 0.150E+02 -.102E+02   -.184E-02 -.284E-02 0.872E-03
   0.278E+02 0.659E+02 -.266E+02   -.376E+02 -.814E+02 0.373E+02   0.967E+01 0.153E+02 -.106E+02   0.321E-03 -.167E-03 -.207E-03
   -.215E+02 -.544E+02 -.164E+02   0.411E+02 0.526E+02 0.279E+02   -.202E+02 0.296E+01 -.113E+02   -.123E-01 0.127E-01 -.887E-03
   -.668E+02 -.119E+02 -.368E+02   0.853E+02 0.111E+02 0.473E+02   -.183E+02 0.854E+00 -.104E+02   -.101E-02 0.165E-02 0.304E-03
   -.660E+02 -.529E+01 -.292E+02   0.845E+02 0.464E+01 0.398E+02   -.183E+02 0.615E+00 -.104E+02   -.191E-02 -.604E-03 -.483E-03
   -.697E+02 -.745E+01 -.347E+02   0.883E+02 0.680E+01 0.452E+02   -.183E+02 0.599E+00 -.104E+02   -.875E-03 -.124E-02 0.275E-03
   -.858E+02 0.592E+02 -.181E+02   0.104E+03 -.570E+02 0.279E+02   -.177E+02 -.359E+01 -.102E+02   0.459E-02 -.202E-01 -.528E-02
   -.722E+02 -.271E+01 -.370E+02   0.905E+02 0.209E+01 0.473E+02   -.180E+02 0.601E+00 -.101E+02   0.108E-02 -.219E-02 0.241E-02
   -.972E+02 -.233E+02 -.261E+02   0.115E+03 0.222E+02 0.367E+02   -.174E+02 0.122E+01 -.105E+02   0.678E-02 0.333E-02 -.108E-02
   -.746E+02 -.103E+02 -.356E+02   0.930E+02 0.952E+01 0.461E+02   -.181E+02 0.791E+00 -.104E+02   0.108E-02 0.587E-03 0.930E-03
 -----------------------------------------------------------------------------------------------
   0.112E+02 0.252E+02 0.142E+02   0.199E-12 0.197E-12 -.355E-13   -.112E+02 -.252E+02 -.142E+02   -.880E-02 -.145E-01 -.720E-02
 
 
 POSITION                                       TOTAL-FORCE (eV/Angst)
 -----------------------------------------------------------------------------------
      2.61028     -0.00000      0.00000         0.087138     -0.059760     -0.292230
      2.61028     -0.00000      5.43130         0.771022     -0.445363      1.318845
      5.06777      4.25649      0.00000         0.005313      0.222277     -0.108769
      5.06777      4.25649      5.43130         0.034072      0.014603     -0.093271
      5.06777     -4.25649      0.00000         0.099922      0.147830     -0.252030
      5.06777     -4.25649      5.43130        -0.674784      0.708775      1.005572
      7.52525      0.00000      0.00000        -0.016051     -0.056180     -0.050742
      7.52525      0.00000      5.43130        -0.158085     -0.056261      0.080219
      1.15234      1.99591      3.62087        -0.650205      1.368850     -0.456629
      1.15234      1.99591      9.05217        -0.200730      0.037651      0.218567
      3.60982      6.25240      3.62087        -0.069775     -0.118326     -0.053106
      3.60982      6.25240      9.05217        -0.083137     -0.034927      0.080785
      3.60982     -2.26057      3.62087         0.141935     -0.841766     -1.362121
      3.60982     -2.26057      9.05217         0.187883     -0.045494      0.234866
      6.06731      1.99591      3.62087         0.138173      0.067928      0.140572
      6.06731      1.99591      9.05217         0.389929     -0.009242      0.110419
      1.15234     -1.99591      1.81043        -0.208652     -0.375120     -0.346512
      1.15234     -1.99591      7.24173        -0.673599     -1.252644      0.546644
      3.60982      2.26057      1.81043         1.401210     -0.119580     -0.806139
      3.60982      2.26057      7.24173         0.020381      1.243339      1.010731
      3.60982     -6.25240      1.81043        -0.819897      0.107516     -1.073740
      3.60982     -6.25240      7.24173        -0.072937     -0.001046      0.237384
      6.06731     -1.99591      1.81043         0.099769     -0.017183     -0.155500
      6.06731     -1.99591      7.24173         0.189368      0.017578      0.277089
      1.67752      0.61366      9.69428        -0.092365     -0.235257     -0.146160
      4.13500      4.87015      4.26298        -0.160211     -0.234148     -0.119982
      4.13500      4.87015      9.69428        -0.102706     -0.245594     -0.115496
      4.13500     -3.64282      4.26298        -0.030696     -0.181304     -0.024940
      4.13500     -3.64282      9.69428        -0.176743     -0.208455     -0.127043
      6.59249      0.61366      4.26298        -0.162468     -0.203318     -0.154866
      6.59249      0.61366      9.69428        -0.186991     -0.178531     -0.156534
      3.54476      1.14594      0.64211         0.141131      0.135906      0.126863
      3.54476      1.14594      6.07341        -0.284157     -0.652235     -1.297432
      6.00224      5.40243      0.64211         0.269764      0.017175     -0.058469
      6.00224      5.40243      6.07341         0.361347      0.274107     -0.093285
      6.00224     -3.11054      0.64211         0.239399     -0.036449     -0.064827
      6.00224     -3.11054      6.07341         0.157025     -0.262733     -0.435570
      8.45972      1.14594      0.64211         0.356735      0.102779      0.098615
      8.45972      1.14594      6.07341         0.401878     -0.035826     -0.256722
      2.15017      2.49688      2.45255        -0.748386     -0.457360      0.864075
      2.15017      2.49688      7.88385         0.106988      0.092231     -0.449631
      4.60765      6.75336      2.45255         0.001907      0.361347     -0.062737
      4.60765      6.75336      7.88385         0.101898      0.333067     -0.312839
      4.60765     -1.75961      2.45255        -0.353472      0.250921      0.195873
      4.60765     -1.75961      7.88385        -0.175870      0.268484     -0.278864
      7.06514      2.49688      2.45255         0.111249      0.196974     -0.098119
      7.06514      2.49688      7.88385        -0.176598      0.197569     -0.150712
      1.67752     -0.61366      1.16832        -0.161496      0.348109      0.438424
      1.67752     -0.61366      6.59962         0.091036      1.398339     -1.018495
      4.13500      3.64282      1.16832        -0.400451     -0.004916      0.371032
      4.13500      3.64282      6.59962        -0.263166     -0.073645      0.131759
      4.13500     -4.87015      1.16832        -0.119230     -0.000423      0.473079
      4.13500     -4.87015      6.59962         0.062624      0.244130     -0.145983
      6.59249     -0.61366      1.16832        -0.143031      0.233787      0.165824
      6.59249     -0.61366      6.59962        -0.195716      0.236465      0.066990
      2.15017     -2.49688      2.97876         0.070003     -0.000521      0.470811
      2.15017     -2.49688      8.41006        -0.239282      0.020736     -0.160820
      4.60765      1.75961      2.97876        -0.492664     -0.256202      0.147939
      4.60765      1.75961      8.41006        -0.436227     -0.366348     -0.205614
      4.60765     -6.75336      2.97876         1.080249     -0.803959      1.277353
      4.60765     -6.75336      8.41006        -0.070974     -0.221743      0.050470
      7.06514     -2.49688      2.97876        -0.135688     -0.259243      0.176767
      7.06514     -2.49688      8.41006        -0.138140     -0.210676      0.064645
      3.54476     -1.14594      4.78919        -0.546052      1.183780      0.229819
      3.54476     -1.14594     10.22049         0.199710      0.046642      0.134659
      6.00224      3.11054      4.78919         0.225020     -0.033471      0.113932
      6.00224      3.11054     10.22049         0.184746     -0.051528      0.093831
      6.00224     -5.40243      4.78919         0.967987     -1.348763     -0.400827
      6.00224     -5.40243     10.22049         0.269286     -0.021394      0.173691
      8.45972     -1.14594      4.78919         0.393000      0.109881      0.130421
      8.45972     -1.14594     10.22049         0.261534      0.028159      0.128190
 -----------------------------------------------------------------------------------
    total drift:                                0.012426      0.001073     -0.000320


--------------------------------------------------------------------------------------------------------



  FREE ENERGIE OF THE ION-ELECTRON SYSTEM (eV)
  ---------------------------------------------------
  free  energy   TOTEN  =      -560.55124020 eV

  energy  without entropy=     -560.50570333  energy(sigma->0) =     -560.52847177
 


--------------------------------------------------------------------------------------------------------


    POTLOK:  cpu time      0.0156: real time      0.0157


--------------------------------------------------------------------------------------------------------


 stress matrix after NEB project (eV)
     14.56026      1.45697     -2.37508
      1.45697     13.35294      3.05549
     -2.37508      3.05549     12.24066
  FORCES: max atom, RMS     1.856049    0.758332
  FORCE total and by dimension    6.389823    1.401210
  Stress total and by dimension   23.965299   14.560260
 writing wavefunctions
     LOOP+:  cpu time    181.2991: real time    182.1842
    4ORBIT:  cpu time      0.0000: real time      0.0000



 total charge

# of ion       s       p       d       tot
------------------------------------------
    1        0.645   1.002   0.000   1.647
    2        0.666   0.916   0.000   1.582
    3        0.644   1.001   0.000   1.645
    4        0.644   1.002   0.000   1.646
    5        0.644   1.002   0.000   1.647
    6        0.644   1.000   0.000   1.644
    7        0.644   1.002   0.000   1.646
    8        0.645   1.003   0.000   1.648
    9        0.662   0.911   0.000   1.573
   10        0.644   1.002   0.000   1.647
   11        0.645   1.003   0.000   1.648
   12        0.644   1.001   0.000   1.645
   13        0.645   1.003   0.000   1.647
   14        0.645   1.002   0.000   1.647
   15        0.644   1.002   0.000   1.646
   16        0.644   1.002   0.000   1.646
   17        0.645   1.003   0.000   1.648
   18        0.645   1.001   0.000   1.646
   19        0.645   1.003   0.000   1.648
   20        0.645   1.002   0.000   1.647
   21        0.644   0.999   0.000   1.643
   22        0.644   1.002   0.000   1.647
   23        0.644   1.002   0.000   1.646
   24        0.644   1.002   0.000   1.646
   25        1.549   3.694   0.000   5.243
   26        1.549   3.696   0.000   5.244
   27        1.549   3.693   0.000   5.242
   28        1.550   3.689   0.000   5.238
   29        1.549   3.693   0.000   5.241
   30        1.549   3.695   0.000   5.243
   31        1.549   3.691   0.000   5.240
   32        1.549   3.693   0.000   5.242
   33        1.557   3.658   0.000   5.215
   34        1.548   3.694   0.000   5.243
   35        1.548   3.697   0.000   5.245
   36        1.549   3.694   0.000   5.242
   37        1.548   3.694   0.000   5.242
   38        1.548   3.695   0.000   5.243
   39        1.548   3.697   0.000   5.245
   40        1.559   3.655   0.000   5.214
   41        1.549   3.694   0.000   5.242
   42        1.549   3.695   0.000   5.244
   43        1.548   3.694   0.000   5.242
   44        1.548   3.696   0.000   5.244
   45        1.548   3.695   0.000   5.244
   46        1.549   3.691   0.000   5.240
   47        1.549   3.692   0.000   5.241
   48        1.549   3.694   0.000   5.243
   49        1.554   3.667   0.000   5.221
   50        1.548   3.693   0.000   5.241
   51        1.549   3.694   0.000   5.243
   52        1.549   3.691   0.000   5.240
   53        1.549   3.694   0.000   5.243
   54        1.549   3.691   0.000   5.240
   55        1.549   3.694   0.000   5.243
   56        1.549   3.695   0.000   5.244
   57        1.550   3.688   0.000   5.239
   58        1.547   3.698   0.000   5.246
   59        1.550   3.686   0.000   5.236
   60        1.550   3.676   0.000   5.226
   61        1.549   3.694   0.000   5.243
   62        1.549   3.695   0.000   5.243
   63        1.549   3.693   0.000   5.241
   64        1.558   3.657   0.000   5.215
   65        1.549   3.693   0.000   5.242
   66        1.549   3.695   0.000   5.243
   67        1.550   3.689   0.000   5.238
   68        1.552   3.669   0.000   5.222
   69        1.548   3.695   0.000   5.243
   70        1.549   3.696   0.000   5.245
   71        1.549   3.691   0.000   5.240
--------------------------------------------------
tot         88.334 197.278   0.000 285.612
 

 total amount of memory used by VASP MPI-rank0   109999. kBytes
=======================================================================

   base      :      30000. kBytes
   nonl-proj :      57853. kBytes
   fftplans  :       1721. kBytes
   grid      :       9701. kBytes
   one-center:        218. kBytes
   wavefun   :      10506. kBytes
 
  
  
 General timing and accounting informations for this job:
 ========================================================
  
                  Total CPU time used (sec):      192.187
                            User time (sec):      189.237
                          System time (sec):        2.950
                         Elapsed time (sec):      196.747
  
                   Maximum memory used (kb):      383224.
                   Average memory used (kb):          N/A
  
                          Minor page faults:       142198
                          Major page faults:           55
                 Voluntary context switches:         3624
