 vasp.5.4.4.18Apr17-6-g9f103f2a35 (build Jun 19 2019 10:34:07) complex          
  
 executed on               LB-5.4 date 2023.05.15  18:34:35
 running on   96 total cores
 distrk:  each k-point on   24 cores,    4 groups
 distr:  one band on NCORES_PER_BAND=   1 cores,   24 groups


--------------------------------------------------------------------------------------------------------


 INCAR:
 POTCAR:    PAW_PBE Si 05Jan2001                  

 ----------------------------------------------------------------------------- 
|                                                                             |
|           W    W    AA    RRRRR   N    N  II  N    N   GGGG   !!!           |
|           W    W   A  A   R    R  NN   N  II  NN   N  G    G  !!!           |
|           W    W  A    A  R    R  N N  N  II  N N  N  G       !!!           |
|           W WW W  AAAAAA  RRRRR   N  N N  II  N  N N  G  GGG   !            |
|           WW  WW  A    A  R   R   N   NN  II  N   NN  G    G                |
|           W    W  A    A  R    R  N    N  II  N    N   GGGG   !!!           |
|                                                                             |
|      For optimal performance we recommend to set                            |
|        NCORE= 4 - approx SQRT( number of cores)                             |
|      NCORE specifies how many cores store one orbital (NPAR=cpu/NCORE).     |
|      This setting can  greatly improve the performance of VASP for DFT.     |
|      The default,   NCORE=1            might be grossly inefficient         |
|      on modern multi-core architectures or massively parallel machines.     |
|      Do your own testing !!!!                                               |
|      Unfortunately you need to use the default for GW and RPA calculations. |
|      (for HF NCORE is supported but not extensively tested yet)             |
|                                                                             |
 ----------------------------------------------------------------------------- 


 ----------------------------------------------------------------------------- 
|                                                                             |
|           W    W    AA    RRRRR   N    N  II  N    N   GGGG   !!!           |
|           W    W   A  A   R    R  NN   N  II  NN   N  G    G  !!!           |
|           W    W  A    A  R    R  N N  N  II  N N  N  G       !!!           |
|           W WW W  AAAAAA  RRRRR   N  N N  II  N  N N  G  GGG   !            |
|           WW  WW  A    A  R   R   N   NN  II  N   NN  G    G                |
|           W    W  A    A  R    R  N    N  II  N    N   GGGG   !!!           |
|                                                                             |
|      You have enabled k-point parallelism (KPAR>1).                         |
|      This developmental code was originally  written by Paul Kent at ORNL,  |
|      and carefully double checked in Vienna.                                |
|      GW as well as linear response parallelism added by Martijn Marsman     |
|      and Georg Kresse.                                                      |
|      Carefully verify results versus KPAR=1.                                |
|      Report problems to Paul Kent and Vienna.                               |
|                                                                             |
 ----------------------------------------------------------------------------- 

 POTCAR:    PAW_PBE Si 05Jan2001                  
   VRHFIN =Si: s2p2                                                             
   LEXCH  = PE                                                                  
   EATOM  =   103.0669 eV,    7.5752 Ry                                         
                                                                                
   TITEL  = PAW_PBE Si 05Jan2001                                                
   LULTRA =        F    use ultrasoft PP ?                                      
   IUNSCR =        1    unscreen: 0-lin 1-nonlin 2-no                           
   RPACOR =    1.500    partial core radius                                     
   POMASS =   28.085; ZVAL   =    4.000    mass and valenz                      
   RCORE  =    1.900    outmost cutoff radius                                   
   RWIGS  =    2.480; RWIGS  =    1.312    wigner-seitz radius (au A)           
   ENMAX  =  245.345; ENMIN  =  184.009 eV                                      
   ICORE  =        2    local potential                                         
   LCOR   =        T    correct aug charges                                     
   LPAW   =        T    paw PP                                                  
   EAUG   =  322.069                                                            
   DEXC   =    0.000                                                            
   RMAX   =    1.950    core radius for proj-oper                               
   RAUG   =    1.300    factor for augmentation sphere                          
   RDEP   =    1.993    radius for radial grids                                 
   RDEPT  =    1.837    core radius for aug-charge                              
                                                                                
   Atomic configuration                                                         
    6 entries                                                                   
     n  l   j            E        occ.                                          
     1  0  0.50     -1785.8828   2.0000                                         
     2  0  0.50      -139.4969   2.0000                                         
     2  1  1.50       -95.5546   6.0000                                         
     3  0  0.50       -10.8127   2.0000                                         
     3  1  0.50        -4.0811   2.0000                                         
     3  2  1.50        -4.0817   0.0000                                         
   Description                                                                  
     l       E           TYP  RCUT    TYP  RCUT                                 
     0    -10.8127223     23  1.900                                             
     0     -7.6451159     23  1.900                                             
     1     -4.0811372     23  1.900                                             
     1      2.4879257     23  1.900                                             
     2     -4.0817478      7  1.900                                             
  local pseudopotential read in
  partial core-charges read in
  partial kinetic energy density read in
  atomic valenz-charges read in
  non local Contribution for L=           0  read in
    real space projection operators read in
  non local Contribution for L=           0  read in
    real space projection operators read in
  non local Contribution for L=           1  read in
    real space projection operators read in
  non local Contribution for L=           1  read in
    real space projection operators read in
    PAW grid and wavefunctions read in
 
   number of l-projection  operators is LMAX  =           4
   number of lm-projection operators is LMMAX =           8
 

 ----------------------------------------------------------------------------- 
|                                                                             |
|  ADVICE TO THIS USER RUNNING 'VASP/VAMP'   (HEAR YOUR MASTER'S VOICE ...):  |
|                                                                             |
|      You have a (more or less) 'large supercell' and for larger cells       |
|      it might be more efficient to use real space projection opertators     |
|      So try LREAL= Auto  in the INCAR   file.                               |
|      Mind:          For very  accurate calculation you might also keep the  |
|      reciprocal projection scheme          (i.e. LREAL=.FALSE.)             |
|                                                                             |
 ----------------------------------------------------------------------------- 

  PAW_PBE Si 05Jan2001                  :
 energy of atom  1       EATOM= -103.0669
 kinetic energy error for atom=    0.0004 (will be added to EATOM!!)
 
 
 POSCAR: Si53                                    
  positions in direct lattice
  No initial velocities read in
 exchange correlation table for  LEXCH =        8
   RHO(1)=    0.500       N(1)  =     2000
   RHO(2)=  100.500       N(2)  =     4000
 


--------------------------------------------------------------------------------------------------------


 ion  position               nearest neighbor table
   1  0.292  0.292  0.625-  32 2.35  40 2.35  41 2.35  38 2.35
   2  0.292  0.292  0.958-  30 2.35  39 2.35  41 2.35  36 2.35
   3  0.292  0.625  0.292-  34 2.35  42 2.35  43 2.35  40 2.35
   4  0.292  0.625  0.625-  35 2.35  43 2.35  44 2.35  41 2.35
   5  0.292  0.625  0.958-  33 2.35  42 2.35  44 2.35  39 2.35
   6  0.292  0.958  0.292-  28 2.35  36 2.35  37 2.35  43 2.35
   7  0.292  0.958  0.625-  29 2.35  37 2.35  38 2.35  44 2.35
   8  0.292  0.958  0.958-  27 2.35  36 2.35  38 2.35  42 2.35
   9  0.625  0.292  0.292-  40 2.35  48 2.35  49 2.35  46 2.35
  10  0.625  0.292  0.625-  41 2.35  49 2.35  50 2.35  47 2.35
  11  0.625  0.292  0.958-  39 2.35  48 2.35  50 2.35  45 2.35
  12  0.625  0.625  0.292-  43 2.35  51 2.35  52 2.35  49 2.35
  13  0.625  0.625  0.625-  44 2.35  52 2.35  53 2.35  50 2.35
  14  0.625  0.625  0.958-  42 2.35  51 2.35  53 2.35  48 2.35
  15  0.625  0.958  0.292-  37 2.35  45 2.35  46 2.35  52 2.35
  16  0.625  0.958  0.625-  38 2.35  46 2.35  47 2.35  53 2.35
  17  0.625  0.958  0.958-  36 2.35  45 2.35  47 2.35  51 2.35
  18  0.958  0.292  0.292-  49 2.35  31 2.35  30 2.35  28 2.35
  19  0.958  0.292  0.625-  50 2.35  32 2.35  31 2.35  29 2.35
  20  0.958  0.292  0.958-  48 2.35  30 2.35  32 2.35  27 2.35
  21  0.958  0.625  0.292-  52 2.35  34 2.35  33 2.35  31 2.35
  22  0.958  0.625  0.625-  53 2.35  35 2.35  34 2.35  32 2.35
  23  0.958  0.625  0.958-  51 2.35  33 2.35  35 2.35  30 2.35
  24  0.958  0.958  0.292-  46 2.35  28 2.35  27 2.35  34 2.35
  25  0.958  0.958  0.625-  47 2.35  29 2.35  28 2.35  35 2.35
  26  0.958  0.958  0.958-  45 2.35  27 2.35  29 2.35  33 2.35
  27  0.042  0.042  0.042-   8 2.35  26 2.35  24 2.35  20 2.35
  28  0.042  0.042  0.375-   6 2.35  24 2.35  25 2.35  18 2.35
  29  0.042  0.042  0.708-   7 2.35  25 2.35  26 2.35  19 2.35
  30  0.042  0.375  0.042-   2 2.35  20 2.35  18 2.35  23 2.35
  31  0.042  0.375  0.375-  18 2.35  19 2.35  21 2.35
  32  0.042  0.375  0.708-   1 2.35  19 2.35  20 2.35  22 2.35
  33  0.042  0.708  0.042-   5 2.35  23 2.35  21 2.35  26 2.35
  34  0.042  0.708  0.375-   3 2.35  21 2.35  22 2.35  24 2.35
  35  0.042  0.708  0.708-   4 2.35  22 2.35  23 2.35  25 2.35
  36  0.375  0.042  0.042-  17 2.35   8 2.35   6 2.35   2 2.35
  37  0.375  0.042  0.375-  15 2.35   7 2.35   6 2.35
  38  0.375  0.042  0.708-  16 2.35   8 2.35   7 2.35   1 2.35
  39  0.375  0.375  0.042-  11 2.35   2 2.35   5 2.35
  40  0.375  0.375  0.375-   9 2.35   1 2.35   3 2.35
  41  0.375  0.375  0.708-  10 2.35   2 2.35   1 2.35   4 2.35
  42  0.375  0.708  0.042-  14 2.35   5 2.35   3 2.35   8 2.35
  43  0.375  0.708  0.375-  12 2.35   4 2.35   3 2.35   6 2.35
  44  0.375  0.708  0.708-  13 2.35   5 2.35   4 2.35   7 2.35
  45  0.708  0.042  0.042-  26 2.35  17 2.35  15 2.35  11 2.35
  46  0.708  0.042  0.375-  24 2.35  16 2.35  15 2.35   9 2.35
  47  0.708  0.042  0.708-  25 2.35  17 2.35  16 2.35  10 2.35
  48  0.708  0.375  0.042-  20 2.35  11 2.35   9 2.35  14 2.35
  49  0.708  0.375  0.375-  18 2.35  10 2.35   9 2.35  12 2.35
  50  0.708  0.375  0.708-  19 2.35  11 2.35  10 2.35  13 2.35
  51  0.708  0.708  0.042-  23 2.35  14 2.35  12 2.35  17 2.35
  52  0.708  0.708  0.375-  21 2.35  13 2.35  12 2.35  15 2.35
  53  0.708  0.708  0.708-  22 2.35  14 2.35  13 2.35  16 2.35
 
  LATTYP: Found a face centered cubic cell.
 ALAT       =    16.2915000202
  
  Lattice vectors:
  
 A1 = (   9.9764655300,   0.0000000000,   5.7599150700)
 A2 = (   3.3254885100,   9.4059019200,   5.7599150700)
 A3 = (   0.0000000000,   0.0000000000,  11.5198301400)


Analysis of symmetry for initial positions (statically):
=====================================================================
 Subroutine PRICEL returns:
 Original cell was already a primitive cell.
 

 Routine SETGRP: Setting up the symmetry group for a 
 face centered cubic supercell.


 Subroutine GETGRP returns: Found 24 space group operations
 (whereof  6 operations were pure point group operations)
 out of a pool of 48 trial point group operations.


The static configuration has the point symmetry C_3v.
 The point group associated with its full space group is T_d .


Analysis of symmetry for dynamics (positions and initial velocities):
=====================================================================
 Subroutine PRICEL returns:
 Original cell was already a primitive cell.
 

 Routine SETGRP: Setting up the symmetry group for a 
 face centered cubic supercell.


 Subroutine GETGRP returns: Found 24 space group operations
 (whereof  6 operations were pure point group operations)
 out of a pool of 48 trial point group operations.


The dynamic configuration has the point symmetry C_3v.
 The point group associated with its full space group is T_d .


 Subroutine INISYM returns: Found 24 space group operations
 (whereof  6 operations are pure point group operations),
 and found     1 'primitive' translations

 
 
 KPOINTS: Automatic kpoint scheme                 

Automatic generation of k-mesh.
Space group operators:
 irot       det(A)        alpha          n_x          n_y          n_z        tau_x        tau_y        tau_z
    1     1.000000     0.000000     1.000000     0.000000     0.000000     0.000000     0.000000     0.000000
    2     1.000000   120.000000    -0.471405    -0.333333    -0.816497     0.000000     0.000000     0.000000
    3     1.000000   120.000000     0.471405     0.333333     0.816497     0.000000     0.000000     0.000000
    4    -1.000000   180.000000     0.288675     0.816497    -0.500000     0.000000     0.000000     0.000000
    5    -1.000000   180.000000     0.577350    -0.816497     0.000000     0.000000     0.000000     0.000000
    6    -1.000000   180.000000     0.866025     0.000000    -0.500000     0.000000     0.000000     0.000000
    7    -1.000000    90.000000    -0.816497    -0.577350    -0.000000     0.166667     0.000000     0.000000
    8    -1.000000   180.000000     0.866025     0.000000     0.500000     0.166667     0.000000     0.000000
    9    -1.000000    90.000000     0.408248    -0.577350     0.707107     0.166667     0.000000     0.000000
   10     1.000000   180.000000     0.816497     0.577350     0.000000     0.000000     0.000000     0.166667
   11     1.000000   120.000000     0.942809    -0.333333     0.000000     0.000000     0.000000     0.166667
   12     1.000000   120.000000    -0.000000    -1.000000    -0.000000     0.000000     0.000000     0.166667
   13    -1.000000    90.000000     0.816497     0.577350    -0.000000    -0.000000     0.166667     0.000000
   14    -1.000000    90.000000     0.408248    -0.577350    -0.707107     0.000000     0.166667    -0.000000
   15    -1.000000   180.000000     0.288675     0.816497     0.500000    -0.000000     0.166667     0.000000
   16     1.000000   120.000000    -0.000000     1.000000    -0.000000     0.166667     0.000000     0.000000
   17     1.000000   120.000000     0.471405     0.333333    -0.816497     0.166667     0.000000     0.000000
   18     1.000000   180.000000    -0.408248     0.577350     0.707107     0.166667     0.000000     0.000000
   19    -1.000000    90.000000    -0.408248     0.577350    -0.707107     0.000000     0.000000     0.166667
   20    -1.000000   180.000000     0.000000    -0.000000     1.000000     0.000000     0.000000     0.166667
   21    -1.000000    90.000000    -0.408248     0.577350     0.707107     0.000000     0.000000     0.166667
   22     1.000000   120.000000    -0.942809     0.333333     0.000000     0.000000     0.166667    -0.000000
   23     1.000000   180.000000    -0.408248     0.577350    -0.707107    -0.000000     0.166667     0.000000
   24     1.000000   120.000000    -0.471405    -0.333333     0.816497    -0.000000     0.166667     0.000000
 
 Subroutine IBZKPT returns following result:
 ===========================================
 
 Found      8 irreducible k-points:
 
 Following reciprocal coordinates:
            Coordinates               Weight
  0.000000  0.000000  0.000000      1.000000
  0.250000  0.000000  0.000000      8.000000
  0.500000  0.000000  0.000000      4.000000
  0.250000  0.250000  0.000000      6.000000
  0.500000  0.250000  0.000000     24.000000
 -0.250000  0.250000  0.000000     12.000000
  0.500000  0.500000  0.000000      3.000000
 -0.250000  0.500000  0.250000      6.000000
 
 Following cartesian coordinates:
            Coordinates               Weight
  0.000000  0.000000  0.000000      1.000000
  0.025059 -0.008860  0.000000      8.000000
  0.050118 -0.017719  0.000000      4.000000
  0.025059  0.017719  0.000000      6.000000
  0.050118  0.008860  0.000000     24.000000
 -0.025059  0.035439  0.000000     12.000000
  0.050118  0.035439  0.000000      3.000000
 -0.037588  0.053158  0.021702      6.000000
 


--------------------------------------------------------------------------------------------------------




 Dimension of arrays:
   k-points           NKPTS =      8   k-points in BZ     NKDIM =      8   number of bands    NBANDS=    144
   number of dos      NEDOS =    301   number of ions     NIONS =     53
   non local maximal  LDIM  =      4   non local SUM 2l+1 LMDIM =      8
   total plane-waves  NPLWV = 343000
   max r-space proj   IRMAX =      1   max aug-charges    IRDMAX=  10807
   dimension x,y,z NGX =    70 NGY =   70 NGZ =   70
   dimension x,y,z NGXF=   140 NGYF=  140 NGZF=  140
   support grid    NGXF=   140 NGYF=  140 NGZF=  140
   ions per type =              53
   NGX,Y,Z   is equivalent  to a cutoff of  10.10, 10.10, 10.10 a.u.
   NGXF,Y,Z  is equivalent  to a cutoff of  20.20, 20.20, 20.20 a.u.

 SYSTEM =  Si                                      
 POSCAR =  Si53                                    

 Startparameter for this run:
   NWRITE =      2    write-flag & timer
   PREC   = normal    normal or accurate (medium, high low for compatibility)
   ISTART =      0    job   : 0-new  1-cont  2-samecut
   ICHARG =      2    charge: 1-file 2-atom 10-const
   ISPIN  =      1    spin polarized calculation?
   LNONCOLLINEAR =      F non collinear calculations
   LSORBIT =      F    spin-orbit coupling
   INIWAV =      1    electr: 0-lowe 1-rand  2-diag
   LASPH  =      F    aspherical Exc in radial PAW
   METAGGA=      F    non-selfconsistent MetaGGA calc.

 Electronic Relaxation 1
   ENCUT  =  550.0 eV  40.42 Ry    6.36 a.u.  22.03 22.03 22.03*2*pi/ulx,y,z
   ENINI  =  550.0     initial cutoff
   ENAUG  =  322.1 eV  augmentation charge cutoff
   NELM   =    200;   NELMIN=  2; NELMDL= -5     # of ELM steps 
   EDIFF  = 0.1E-05   stopping-criterion for ELM
   LREAL  =      F    real-space projection
   NLSPLINE    = F    spline interpolate recip. space projectors
   LCOMPAT=      F    compatible to vasp.4.4
   GGA_COMPAT  = T    GGA compatible to vasp.4.4-vasp.4.6
   LMAXPAW     = -100 max onsite density
   LMAXMIX     =    2 max onsite mixed and CHGCAR
   VOSKOWN=      0    Vosko Wilk Nusair interpolation
   ROPT   =    0.00000
 Ionic relaxation
   EDIFFG = -.5E-01   stopping-criterion for IOM
   NSW    =      0    number of steps for IOM
   NBLOCK =      1;   KBLOCK =      1    inner block; outer block 
   IBRION =     -1    ionic relax: 0-MD 1-quasi-New 2-CG
   NFREE  =      1    steps in history (QN), initial steepest desc. (CG)
   ISIF   =      2    stress and relaxation
   IWAVPR =     10    prediction:  0-non 1-charg 2-wave 3-comb
   ISYM   =      2    0-nonsym 1-usesym 2-fastsym
   LCORR  =      T    Harris-Foulkes like correction to forces

   POTIM  = 0.5000    time-step for ionic-motion
   TEIN   =    0.0    initial temperature
   TEBEG  =    0.0;   TEEND  =   0.0 temperature during run
   SMASS  =  -3.00    Nose mass-parameter (am)
   estimated Nose-frequenzy (Omega)   =  0.10E-29 period in steps =****** mass=  -0.303E-26a.u.
   SCALEE = 1.0000    scale energy and forces
   NPACO  =    256;   APACO  = 16.0  distance and # of slots for P.C.
   PSTRESS=    0.0 pullay stress

  Mass of Ions in am
   POMASS =  28.09
  Ionic Valenz
   ZVAL   =   4.00
  Atomic Wigner-Seitz radii
   RWIGS  =  -1.00
  virtual crystal weights 
   VCA    =   1.00
   NELECT =     212.0000    total number of electrons
   NUPDOWN=      -1.0000    fix difference up-down

 DOS related values:
   EMIN   =  10.00;   EMAX   =-10.00  energy-range for DOS
   EFERMI =   0.00
   ISMEAR =     0;   SIGMA  =   0.05  broadening in eV -4-tet -1-fermi 0-gaus

 Electronic relaxation 2 (details)
   IALGO  =     38    algorithm
   LDIAG  =      T    sub-space diagonalisation (order eigenvalues)
   LSUBROT=      F    optimize rotation matrix (better conditioning)
   TURBO    =      0    0=normal 1=particle mesh
   IRESTART =      0    0=no restart 2=restart with 2 vectors
   NREBOOT  =      0    no. of reboots
   NMIN     =      0    reboot dimension
   EREF     =   0.00    reference energy to select bands
   IMIX   =      4    mixing-type and parameters
     AMIX     =   0.20;   BMIX     =  1.00
     AMIX_MAG =   0.80;   BMIX_MAG =  1.00
     AMIN     =   0.10
     WC   =   100.;   INIMIX=   1;  MIXPRE=   1;  MAXMIX= -45

 Intra band minimization:
   WEIMIN = 0.0000     energy-eigenvalue tresh-hold
   EBREAK =  0.17E-08  absolut break condition
   DEPER  =   0.30     relativ break condition  

   TIME   =   0.40     timestep for ELM

  volume/ion in A,a.u.               =      20.40       137.64
  Fermi-wavevector in a.u.,A,eV,Ry     =   0.951143  1.797399 12.308817  0.904673
  Thomas-Fermi vector in A             =   2.079585
 
 Write flags
   LWAVE        =      T    write WAVECAR
   LDOWNSAMPLE  =      F    k-point downsampling of WAVECAR
   LCHARG       =      T    write CHGCAR
   LVTOT        =      F    write LOCPOT, total local potential
   LVHAR        =      F    write LOCPOT, Hartree potential only
   LELF         =      F    write electronic localiz. function (ELF)
   LORBIT       =     10    0 simple, 1 ext, 2 COOP (PROOUT), +10 PAW based schemes


 Dipole corrections
   LMONO  =      F    monopole corrections only (constant potential shift)
   LDIPOL =      F    correct potential (dipole corrections)
   IDIPOL =      0    1-x, 2-y, 3-z, 4-all directions 
   EPSILON=  1.0000000 bulk dielectric constant

 Exchange correlation treatment:
   GGA     =    --    GGA type
   LEXCH   =     8    internal setting for exchange type
   VOSKOWN=      0    Vosko Wilk Nusair interpolation
   LHFCALC =     F    Hartree Fock is set to
   LHFONE  =     F    Hartree Fock one center treatment
   AEXX    =    0.0000 exact exchange contribution

 Linear response parameters
   LEPSILON=     F    determine dielectric tensor
   LRPA    =     F    only Hartree local field effects (RPA)
   LNABLA  =     F    use nabla operator in PAW spheres
   LVEL    =     F    velocity operator in full k-point grid
   LINTERFAST=   F  fast interpolation
   KINTER  =     0    interpolate to denser k-point grid
   CSHIFT  =0.1000    complex shift for real part using Kramers Kronig
   OMEGAMAX=  -1.0    maximum frequency
   DEG_THRESHOLD= 0.2000000E-02 threshold for treating states as degnerate
   RTIME   =   -0.100 relaxation time in fs
  (WPLASMAI=    0.000 imaginary part of plasma frequency in eV, 0.658/RTIME)
   DFIELD  = 0.0000000 0.0000000 0.0000000 field for delta impulse in time
 
 Orbital magnetization related:
   ORBITALMAG=     F  switch on orbital magnetization
   LCHIMAG   =     F  perturbation theory with respect to B field
   DQ        =  0.001000  dq finite difference perturbation B field
   LLRAUG    =     F  two centre corrections for induced B field



--------------------------------------------------------------------------------------------------------


 Static calculation
 charge density and potential will be updated during run
 non-spin polarized calculation
 Variant of blocked Davidson
 Davidson routine will perform the subspace rotation
 perform sub-space diagonalisation
    after iterative eigenvector-optimisation
 modified Broyden-mixing scheme, WC =      100.0
 initial mixing is a Kerker type mixing with AMIX =  0.2000 and BMIX =      1.0000
 Hartree-type preconditioning will be used
 using additional bands           38
 reciprocal scheme for non local part
 use partial core corrections
 calculate Harris-corrections to forces 
   (improved forces if not selfconsistent)
 use gradient corrections 
 use of overlap-Matrix (Vanderbilt PP)
 Gauss-broadening in eV      SIGMA  =   0.05


--------------------------------------------------------------------------------------------------------


  energy-cutoff  :      550.00
  volume of cell :     1080.99
      direct lattice vectors                 reciprocal lattice vectors
     9.976465530  0.000000000  5.759915070     0.100235900 -0.035438742  0.000000000
     3.325488510  9.405901920  5.759915070     0.000000000  0.106316227  0.000000000
     0.000000000  0.000000000 11.519830140    -0.050117950 -0.035438742  0.086806836

  length of vectors
    11.519830124 11.519830136 11.519830140     0.106316227  0.106316227  0.106316227


 
 k-points in units of 2pi/SCALE and weight: Automatic kpoint scheme                 
   0.00000000  0.00000000  0.00000000       0.016
   0.02505897 -0.00885969  0.00000000       0.125
   0.05011795 -0.01771937  0.00000000       0.062
   0.02505897  0.01771937  0.00000000       0.094
   0.05011795  0.00885969  0.00000000       0.375
  -0.02505897  0.03543874  0.00000000       0.188
   0.05011795  0.03543874  0.00000000       0.047
  -0.03758846  0.05315811  0.02170171       0.094
 
 k-points in reciprocal lattice and weights: Automatic kpoint scheme                 
   0.00000000  0.00000000  0.00000000       0.016
   0.25000000  0.00000000  0.00000000       0.125
   0.50000000  0.00000000  0.00000000       0.062
   0.25000000  0.25000000  0.00000000       0.094
   0.50000000  0.25000000  0.00000000       0.375
  -0.25000000  0.25000000  0.00000000       0.188
   0.50000000  0.50000000  0.00000000       0.047
  -0.25000000  0.50000000  0.25000000       0.094
 
 position of ions in fractional coordinates (direct lattice) 
   0.29166667  0.29166667  0.62500000
   0.29166667  0.29166667  0.95833333
   0.29166667  0.62500000  0.29166667
   0.29166667  0.62500000  0.62500000
   0.29166667  0.62500000  0.95833333
   0.29166667  0.95833333  0.29166667
   0.29166667  0.95833333  0.62500000
   0.29166667  0.95833333  0.95833333
   0.62500000  0.29166667  0.29166667
   0.62500000  0.29166667  0.62500000
   0.62500000  0.29166667  0.95833333
   0.62500000  0.62500000  0.29166667
   0.62500000  0.62500000  0.62500000
   0.62500000  0.62500000  0.95833333
   0.62500000  0.95833333  0.29166667
   0.62500000  0.95833333  0.62500000
   0.62500000  0.95833333  0.95833333
   0.95833333  0.29166667  0.29166667
   0.95833333  0.29166667  0.62500000
   0.95833333  0.29166667  0.95833333
   0.95833333  0.62500000  0.29166667
   0.95833333  0.62500000  0.62500000
   0.95833333  0.62500000  0.95833333
   0.95833333  0.95833333  0.29166667
   0.95833333  0.95833333  0.62500000
   0.95833333  0.95833333  0.95833333
   0.04166667  0.04166667  0.04166667
   0.04166667  0.04166667  0.37500000
   0.04166667  0.04166667  0.70833333
   0.04166667  0.37500000  0.04166667
   0.04166667  0.37500000  0.37500000
   0.04166667  0.37500000  0.70833333
   0.04166667  0.70833333  0.04166667
   0.04166667  0.70833333  0.37500000
   0.04166667  0.70833333  0.70833333
   0.37500000  0.04166667  0.04166667
   0.37500000  0.04166667  0.37500000
   0.37500000  0.04166667  0.70833333
   0.37500000  0.37500000  0.04166667
   0.37500000  0.37500000  0.37500000
   0.37500000  0.37500000  0.70833333
   0.37500000  0.70833333  0.04166667
   0.37500000  0.70833333  0.37500000
   0.37500000  0.70833333  0.70833333
   0.70833333  0.04166667  0.04166667
   0.70833333  0.04166667  0.37500000
   0.70833333  0.04166667  0.70833333
   0.70833333  0.37500000  0.04166667
   0.70833333  0.37500000  0.37500000
   0.70833333  0.37500000  0.70833333
   0.70833333  0.70833333  0.04166667
   0.70833333  0.70833333  0.37500000
   0.70833333  0.70833333  0.70833333
 
 position of ions in cartesian coordinates  (Angst):
   3.87973659  2.74338806 10.55984429
   3.87973659  2.74338806 14.39978767
   4.98823276  5.87868870  8.63987260
   4.98823276  5.87868870 12.47981598
   4.98823276  5.87868870 16.31975937
   6.09672893  9.01398934 10.55984429
   6.09672893  9.01398934 14.39978767
   6.09672893  9.01398934 18.23973106
   7.20522510  2.74338806  8.63987260
   7.20522510  2.74338806 12.47981598
   7.20522510  2.74338806 16.31975937
   8.31372128  5.87868870 10.55984429
   8.31372128  5.87868870 14.39978767
   8.31372128  5.87868870 18.23973106
   9.42221745  9.01398934 12.47981598
   9.42221745  9.01398934 16.31975937
   9.42221745  9.01398934 20.15970275
  10.53071362  2.74338806 10.55984429
  10.53071362  2.74338806 14.39978767
  10.53071362  2.74338806 18.23973106
  11.63920979  5.87868870 12.47981598
  11.63920979  5.87868870 16.31975937
  11.63920979  5.87868870 20.15970275
  12.74770596  9.01398934 14.39978767
  12.74770596  9.01398934 18.23973106
  12.74770596  9.01398934 22.07967444
   0.55424808  0.39191258  0.95998584
   0.55424808  0.39191258  4.79992922
   0.55424808  0.39191258  8.63987260
   1.66274425  3.52721322  2.87995753
   1.66274425  3.52721322  6.71990091
   1.66274425  3.52721322 10.55984430
   2.77124042  6.66251386  4.79992922
   2.77124042  6.66251386  8.63987261
   2.77124042  6.66251386 12.47981599
   3.87973659  0.39191258  2.87995753
   3.87973659  0.39191258  6.71990091
   3.87973659  0.39191258 10.55984430
   4.98823277  3.52721322  4.79992922
   4.98823277  3.52721322  8.63987261
   4.98823277  3.52721322 12.47981599
   6.09672894  6.66251386  6.71990091
   6.09672894  6.66251386 10.55984430
   6.09672894  6.66251386 14.39978768
   7.20522511  0.39191258  4.79992922
   7.20522511  0.39191258  8.63987261
   7.20522511  0.39191258 12.47981599
   8.31372128  3.52721322  6.71990091
   8.31372128  3.52721322 10.55984430
   8.31372128  3.52721322 14.39978768
   9.42221745  6.66251386  8.63987260
   9.42221745  6.66251386 12.47981599
   9.42221745  6.66251386 16.31975937
 


--------------------------------------------------------------------------------------------------------


 k-point  1 :   0.0000 0.0000 0.0000  plane waves:   31415
 k-point  2 :   0.2500 0.0000 0.0000  plane waves:   31608
 k-point  3 :   0.5000 0.0000 0.0000  plane waves:   31638
 k-point  4 :   0.2500 0.2500 0.0000  plane waves:   31695
 k-point  5 :   0.5000 0.2500 0.0000  plane waves:   31649
 k-point  6 :  -0.2500 0.2500 0.0000  plane waves:   31674
 k-point  7 :   0.5000 0.5000 0.0000  plane waves:   31716
 k-point  8 :  -0.2500 0.5000 0.2500  plane waves:   31684

 maximum and minimum number of plane-waves per node :     31716    31415

 maximum number of plane-waves:     31716
 maximum index in each direction: 
   IXMAX=   22   IYMAX=   22   IZMAX=   22
   IXMIN=  -22   IYMIN=  -22   IZMIN=  -22


 serial   3D FFT for wavefunctions
 parallel 3D FFT for charge:
    minimum data exchange during FFTs selected (reduces bandwidth)


 total amount of memory used by VASP MPI-rank0   122888. kBytes
=======================================================================

   base      :      30000. kBytes
   nonl-proj :      43150. kBytes
   fftplans  :       5382. kBytes
   grid      :      19496. kBytes
   one-center:        162. kBytes
   wavefun   :      24698. kBytes
 
     INWAV:  cpu time    0.0000: real time    0.0000
 Broyden mixing: mesh for mixing (old mesh)
   NGX = 45   NGY = 45   NGZ = 45
  (NGX  =140   NGY  =140   NGZ  =140)
  gives a total of  91125 points

 initial charge density was supplied:
 charge density of overlapping atoms calculated
 number of electron     212.0000000 magnetization 
 keeping initial charge density in first step


--------------------------------------------------------------------------------------------------------


 Maximum index for augmentation-charges          503 (set IRDMAX)


--------------------------------------------------------------------------------------------------------


 First call to EWALD:  gamma=   0.173
 Maximum number of real-space cells 3x 3x 3
 Maximum number of reciprocal cells 3x 3x 3

    FEWALD:  cpu time    0.0917: real time    0.0927


--------------------------------------- Iteration      1(   1)  ---------------------------------------


    POTLOK:  cpu time    0.1687: real time    0.1796
    SETDIJ:  cpu time    0.0195: real time    0.0201
     EDDAV:  cpu time    3.5377: real time    3.5723
       DOS:  cpu time    0.0080: real time    0.0090
    --------------------------------------------
      LOOP:  cpu time    3.7339: real time    3.7810

 eigenvalue-minimisations  :  2304
 total energy-change (2. order) : 0.5492582E+03  (-0.8353030E+04)
 number of electron     212.0000000 magnetization 
 augmentation part      212.0000000 magnetization 

 Free energy of the ion-electron system (eV)
  ---------------------------------------------------
  alpha Z        PSCENC =        87.47481167
  Ewald energy   TEWEN  =     -5974.52528800
  -Hartree energ DENC   =      -334.43528197
  -exchange      EXHF   =         0.00000000
  -V(xc)+E(xc)   XCENC  =      -494.43365227
  PAW double counting   =      4670.56137959    -3738.11744287
  entropy T*S    EENTRO =        -0.00998885
  eigenvalues    EBANDS =       870.22083115
  atomic energy  EATOM  =      5462.52286525
  Solvation  Ediel_sol  =         0.00000000
  ---------------------------------------------------
  free energy    TOTEN  =       549.25823369 eV

  energy without entropy =      549.26822255  energy(sigma->0) =      549.26322812


--------------------------------------------------------------------------------------------------------




--------------------------------------- Iteration      1(   2)  ---------------------------------------


     EDDAV:  cpu time    3.7770: real time    3.8130
       DOS:  cpu time    0.0046: real time    0.0046
    --------------------------------------------
      LOOP:  cpu time    3.7816: real time    3.8176

 eigenvalue-minimisations  :  2832
 total energy-change (2. order) :-0.7897535E+03  (-0.7590905E+03)
 number of electron     212.0000000 magnetization 
 augmentation part      212.0000000 magnetization 

 Free energy of the ion-electron system (eV)
  ---------------------------------------------------
  alpha Z        PSCENC =        87.47481167
  Ewald energy   TEWEN  =     -5974.52528800
  -Hartree energ DENC   =      -334.43528197
  -exchange      EXHF   =         0.00000000
  -V(xc)+E(xc)   XCENC  =      -494.43365227
  PAW double counting   =      4670.56137959    -3738.11744287
  entropy T*S    EENTRO =        -0.00108006
  eigenvalues    EBANDS =        80.45844804
  atomic energy  EATOM  =      5462.52286525
  Solvation  Ediel_sol  =         0.00000000
  ---------------------------------------------------
  free energy    TOTEN  =      -240.49524062 eV

  energy without entropy =     -240.49416056  energy(sigma->0) =     -240.49470059


--------------------------------------------------------------------------------------------------------




--------------------------------------- Iteration      1(   3)  ---------------------------------------


     EDDAV:  cpu time    3.8545: real time    3.8928
       DOS:  cpu time    0.0055: real time    0.0055
    --------------------------------------------
      LOOP:  cpu time    3.8600: real time    3.8982

 eigenvalue-minimisations  :  2880
 total energy-change (2. order) :-0.4727577E+02  (-0.4670884E+02)
 number of electron     212.0000000 magnetization 
 augmentation part      212.0000000 magnetization 

 Free energy of the ion-electron system (eV)
  ---------------------------------------------------
  alpha Z        PSCENC =        87.47481167
  Ewald energy   TEWEN  =     -5974.52528800
  -Hartree energ DENC   =      -334.43528197
  -exchange      EXHF   =         0.00000000
  -V(xc)+E(xc)   XCENC  =      -494.43365227
  PAW double counting   =      4670.56137959    -3738.11744287
  entropy T*S    EENTRO =        -0.00254291
  eigenvalues    EBANDS =        33.18413602
  atomic energy  EATOM  =      5462.52286525
  Solvation  Ediel_sol  =         0.00000000
  ---------------------------------------------------
  free energy    TOTEN  =      -287.77101549 eV

  energy without entropy =     -287.76847258  energy(sigma->0) =     -287.76974403


--------------------------------------------------------------------------------------------------------




--------------------------------------- Iteration      1(   4)  ---------------------------------------


     EDDAV:  cpu time    3.9976: real time    4.0362
       DOS:  cpu time    0.0053: real time    0.0054
    --------------------------------------------
      LOOP:  cpu time    4.0030: real time    4.0416

 eigenvalue-minimisations  :  2904
 total energy-change (2. order) :-0.9520018E+00  (-0.9478854E+00)
 number of electron     212.0000000 magnetization 
 augmentation part      212.0000000 magnetization 

 Free energy of the ion-electron system (eV)
  ---------------------------------------------------
  alpha Z        PSCENC =        87.47481167
  Ewald energy   TEWEN  =     -5974.52528800
  -Hartree energ DENC   =      -334.43528197
  -exchange      EXHF   =         0.00000000
  -V(xc)+E(xc)   XCENC  =      -494.43365227
  PAW double counting   =      4670.56137959    -3738.11744287
  entropy T*S    EENTRO =        -0.00256757
  eigenvalues    EBANDS =        32.23215892
  atomic energy  EATOM  =      5462.52286525
  Solvation  Ediel_sol  =         0.00000000
  ---------------------------------------------------
  free energy    TOTEN  =      -288.72301725 eV

  energy without entropy =     -288.72044968  energy(sigma->0) =     -288.72173346


--------------------------------------------------------------------------------------------------------




--------------------------------------- Iteration      1(   5)  ---------------------------------------


     EDDAV:  cpu time    3.8386: real time    3.8762
       DOS:  cpu time    0.0053: real time    0.0053
    CHARGE:  cpu time    0.1665: real time    0.1684
    MIXING:  cpu time    0.0060: real time    0.0066
    --------------------------------------------
      LOOP:  cpu time    4.0165: real time    4.0565

 eigenvalue-minimisations  :  2832
 total energy-change (2. order) :-0.2217639E-01  (-0.2216342E-01)
 number of electron     211.9999999 magnetization 
 augmentation part      -12.5123190 magnetization 

 Broyden mixing:
  rms(total) = 0.24820E+01    rms(broyden)= 0.24820E+01
  rms(prec ) = 0.28546E+01
  weight for this iteration     100.00

 Free energy of the ion-electron system (eV)
  ---------------------------------------------------
  alpha Z        PSCENC =        87.47481167
  Ewald energy   TEWEN  =     -5974.52528800
  -Hartree energ DENC   =      -334.43528197
  -exchange      EXHF   =         0.00000000
  -V(xc)+E(xc)   XCENC  =      -494.43365227
  PAW double counting   =      4670.56137959    -3738.11744287
  entropy T*S    EENTRO =        -0.00256817
  eigenvalues    EBANDS =        32.20998313
  atomic energy  EATOM  =      5462.52286525
  Solvation  Ediel_sol  =         0.00000000
  ---------------------------------------------------
  free energy    TOTEN  =      -288.74519364 eV

  energy without entropy =     -288.74262547  energy(sigma->0) =     -288.74390956


--------------------------------------------------------------------------------------------------------




--------------------------------------- Iteration      1(   6)  ---------------------------------------


    POTLOK:  cpu time    0.0838: real time    0.0849
    SETDIJ:  cpu time    0.0047: real time    0.0047
     EDDAV:  cpu time    3.7198: real time    3.7553
       DOS:  cpu time    0.0063: real time    0.0064
    CHARGE:  cpu time    0.1658: real time    0.1670
    MIXING:  cpu time    0.0058: real time    0.0059
    --------------------------------------------
      LOOP:  cpu time    3.9863: real time    4.0242

 eigenvalue-minimisations  :  2712
 total energy-change (2. order) : 0.1932502E+01  (-0.6890703E-01)
 number of electron     211.9999999 magnetization 
 augmentation part      -12.4413819 magnetization 

 Broyden mixing:
  rms(total) = 0.19954E+01    rms(broyden)= 0.19954E+01
  rms(prec ) = 0.22809E+01
  weight for this iteration     100.00

 eigenvalues of (default mixing * dielectric matrix)
  average eigenvalue GAMMA=   5.0609
  5.0609

 Free energy of the ion-electron system (eV)
  ---------------------------------------------------
  alpha Z        PSCENC =        87.47481167
  Ewald energy   TEWEN  =     -5974.52528800
  -Hartree energ DENC   =      -354.03248213
  -exchange      EXHF   =         0.00000000
  -V(xc)+E(xc)   XCENC  =      -491.49594200
  PAW double counting   =      7004.53240505    -6073.48306979
  entropy T*S    EENTRO =        -0.00253657
  eigenvalues    EBANDS =        52.19654475
  atomic energy  EATOM  =      5462.52286525
  Solvation  Ediel_sol  =         0.00000000
  ---------------------------------------------------
  free energy    TOTEN  =      -286.81269177 eV

  energy without entropy =     -286.81015520  energy(sigma->0) =     -286.81142349


--------------------------------------------------------------------------------------------------------




--------------------------------------- Iteration      1(   7)  ---------------------------------------


    POTLOK:  cpu time    0.0845: real time    0.0856
    SETDIJ:  cpu time    0.0064: real time    0.0064
     EDDAV:  cpu time    3.6242: real time    3.6591
       DOS:  cpu time    0.0072: real time    0.0073
    CHARGE:  cpu time    0.1612: real time    0.1623
    MIXING:  cpu time    0.0071: real time    0.0072
    --------------------------------------------
      LOOP:  cpu time    3.8906: real time    3.9278

 eigenvalue-minimisations  :  2664
 total energy-change (2. order) : 0.2778247E+01  (-0.8445923E+00)
 number of electron     211.9999999 magnetization 
 augmentation part      -12.1873848 magnetization 

 Broyden mixing:
  rms(total) = 0.18606E+00    rms(broyden)= 0.18606E+00
  rms(prec ) = 0.31828E+00
  weight for this iteration     100.00

 eigenvalues of (default mixing * dielectric matrix)
  average eigenvalue GAMMA=   3.4035
  1.8722  4.9348

 Free energy of the ion-electron system (eV)
  ---------------------------------------------------
  alpha Z        PSCENC =        87.47481167
  Ewald energy   TEWEN  =     -5974.52528800
  -Hartree energ DENC   =      -437.98218645
  -exchange      EXHF   =         0.00000000
  -V(xc)+E(xc)   XCENC  =      -478.56685304
  PAW double counting   =     21851.31010827   -20925.52803364
  entropy T*S    EENTRO =        -0.00243846
  eigenvalues    EBANDS =       131.26256966
  atomic energy  EATOM  =      5462.52286525
  Solvation  Ediel_sol  =         0.00000000
  ---------------------------------------------------
  free energy    TOTEN  =      -284.03444476 eV

  energy without entropy =     -284.03200629  energy(sigma->0) =     -284.03322553


--------------------------------------------------------------------------------------------------------




--------------------------------------- Iteration      1(   8)  ---------------------------------------


    POTLOK:  cpu time    0.0821: real time    0.0832
    SETDIJ:  cpu time    0.0081: real time    0.0081
     EDDAV:  cpu time    3.6796: real time    3.7152
       DOS:  cpu time    0.0071: real time    0.0071
    CHARGE:  cpu time    0.1617: real time    0.1628
    MIXING:  cpu time    0.0039: real time    0.0040
    --------------------------------------------
      LOOP:  cpu time    3.9424: real time    3.9803

 eigenvalue-minimisations  :  2688
 total energy-change (2. order) : 0.7105270E-01  (-0.1082011E+00)
 number of electron     211.9999999 magnetization 
 augmentation part      -12.1951410 magnetization 

 Broyden mixing:
  rms(total) = 0.11897E+00    rms(broyden)= 0.11897E+00
  rms(prec ) = 0.14159E+00
  weight for this iteration     100.00

 eigenvalues of (default mixing * dielectric matrix)
  average eigenvalue GAMMA=   2.7885
  5.1168  1.6243  1.6243

 Free energy of the ion-electron system (eV)
  ---------------------------------------------------
  alpha Z        PSCENC =        87.47481167
  Ewald energy   TEWEN  =     -5974.52528800
  -Hartree energ DENC   =      -434.66656948
  -exchange      EXHF   =         0.00000000
  -V(xc)+E(xc)   XCENC  =      -478.52617780
  PAW double counting   =     22310.00161437   -21383.72751273
  entropy T*S    EENTRO =        -0.00245612
  eigenvalues    EBANDS =       127.48532079
  atomic energy  EATOM  =      5462.52286525
  Solvation  Ediel_sol  =         0.00000000
  ---------------------------------------------------
  free energy    TOTEN  =      -283.96339205 eV

  energy without entropy =     -283.96093593  energy(sigma->0) =     -283.96216399


--------------------------------------------------------------------------------------------------------




--------------------------------------- Iteration      1(   9)  ---------------------------------------


    POTLOK:  cpu time    0.0866: real time    0.0877
    SETDIJ:  cpu time    0.0042: real time    0.0042
     EDDAV:  cpu time    3.8616: real time    3.8987
       DOS:  cpu time    0.0071: real time    0.0072
    CHARGE:  cpu time    0.1618: real time    0.1630
    MIXING:  cpu time    0.0051: real time    0.0051
    --------------------------------------------
      LOOP:  cpu time    4.1265: real time    4.1659

 eigenvalue-minimisations  :  2904
 total energy-change (2. order) :-0.1597141E-01  (-0.1047654E-01)
 number of electron     211.9999999 magnetization 
 augmentation part      -12.1983677 magnetization 

 Broyden mixing:
  rms(total) = 0.65104E-01    rms(broyden)= 0.65104E-01
  rms(prec ) = 0.87275E-01
  weight for this iteration     100.00

 eigenvalues of (default mixing * dielectric matrix)
  average eigenvalue GAMMA=   2.6021
  4.5884  3.2580  1.2809  1.2809

 Free energy of the ion-electron system (eV)
  ---------------------------------------------------
  alpha Z        PSCENC =        87.47481167
  Ewald energy   TEWEN  =     -5974.52528800
  -Hartree energ DENC   =      -437.38738555
  -exchange      EXHF   =         0.00000000
  -V(xc)+E(xc)   XCENC  =      -478.08249690
  PAW double counting   =     22960.40068320   -22034.16224344
  entropy T*S    EENTRO =        -0.00245316
  eigenvalues    EBANDS =       129.78214347
  atomic energy  EATOM  =      5462.52286525
  Solvation  Ediel_sol  =         0.00000000
  ---------------------------------------------------
  free energy    TOTEN  =      -283.97936347 eV

  energy without entropy =     -283.97691031  energy(sigma->0) =     -283.97813689


--------------------------------------------------------------------------------------------------------




--------------------------------------- Iteration      1(  10)  ---------------------------------------


    POTLOK:  cpu time    0.0850: real time    0.0861
    SETDIJ:  cpu time    0.0046: real time    0.0047
     EDDAV:  cpu time    3.7762: real time    3.8127
       DOS:  cpu time    0.0071: real time    0.0071
    CHARGE:  cpu time    0.1638: real time    0.1648
    MIXING:  cpu time    0.0042: real time    0.0042
    --------------------------------------------
      LOOP:  cpu time    4.0409: real time    4.0796

 eigenvalue-minimisations  :  2808
 total energy-change (2. order) : 0.2905357E-02  (-0.3334007E-02)
 number of electron     211.9999999 magnetization 
 augmentation part      -12.2113100 magnetization 

 Broyden mixing:
  rms(total) = 0.39450E-01    rms(broyden)= 0.39450E-01
  rms(prec ) = 0.46776E-01
  weight for this iteration     100.00

 eigenvalues of (default mixing * dielectric matrix)
  average eigenvalue GAMMA=   2.6420
  4.3850  4.3850  1.7700  1.7700  0.9000

 Free energy of the ion-electron system (eV)
  ---------------------------------------------------
  alpha Z        PSCENC =        87.47481167
  Ewald energy   TEWEN  =     -5974.52528800
  -Hartree energ DENC   =      -434.80182748
  -exchange      EXHF   =         0.00000000
  -V(xc)+E(xc)   XCENC  =      -478.36136279
  PAW double counting   =     22601.30664046   -21674.75688869
  entropy T*S    EENTRO =        -0.00245743
  eigenvalues    EBANDS =       127.16704889
  atomic energy  EATOM  =      5462.52286525
  Solvation  Ediel_sol  =         0.00000000
  ---------------------------------------------------
  free energy    TOTEN  =      -283.97645811 eV

  energy without entropy =     -283.97400068  energy(sigma->0) =     -283.97522940


--------------------------------------------------------------------------------------------------------




--------------------------------------- Iteration      1(  11)  ---------------------------------------


    POTLOK:  cpu time    0.0805: real time    0.0851
    SETDIJ:  cpu time    0.0047: real time    0.0048
     EDDAV:  cpu time    3.8894: real time    3.9266
       DOS:  cpu time    0.0064: real time    0.0064
    CHARGE:  cpu time    0.1613: real time    0.1624
    MIXING:  cpu time    0.0042: real time    0.0042
    --------------------------------------------
      LOOP:  cpu time    4.1465: real time    4.1895

 eigenvalue-minimisations  :  2808
 total energy-change (2. order) :-0.5163596E-02  (-0.8749174E-03)
 number of electron     211.9999999 magnetization 
 augmentation part      -12.2184386 magnetization 

 Broyden mixing:
  rms(total) = 0.25176E-01    rms(broyden)= 0.25176E-01
  rms(prec ) = 0.31196E-01
  weight for this iteration     100.00

 eigenvalues of (default mixing * dielectric matrix)
  average eigenvalue GAMMA=   2.7736
  4.9989  3.8714  3.8714  1.4926  1.4926  0.9144

 Free energy of the ion-electron system (eV)
  ---------------------------------------------------
  alpha Z        PSCENC =        87.47481167
  Ewald energy   TEWEN  =     -5974.52528800
  -Hartree energ DENC   =      -434.33052412
  -exchange      EXHF   =         0.00000000
  -V(xc)+E(xc)   XCENC  =      -478.34875700
  PAW double counting   =     22547.69858185   -21620.98723826
  entropy T*S    EENTRO =        -0.00245917
  eigenvalues    EBANDS =       126.51638608
  atomic energy  EATOM  =      5462.52286525
  Solvation  Ediel_sol  =         0.00000000
  ---------------------------------------------------
  free energy    TOTEN  =      -283.98162171 eV

  energy without entropy =     -283.97916253  energy(sigma->0) =     -283.98039212


--------------------------------------------------------------------------------------------------------




--------------------------------------- Iteration      1(  12)  ---------------------------------------


    POTLOK:  cpu time    0.0862: real time    0.0873
    SETDIJ:  cpu time    0.0046: real time    0.0047
     EDDAV:  cpu time    3.8012: real time    3.8390
       DOS:  cpu time    0.0065: real time    0.0065
    CHARGE:  cpu time    0.1614: real time    0.1625
    MIXING:  cpu time    0.0044: real time    0.0045
    --------------------------------------------
      LOOP:  cpu time    4.0644: real time    4.1044

 eigenvalue-minimisations  :  2880
 total energy-change (2. order) :-0.1609357E-02  (-0.5364441E-03)
 number of electron     211.9999999 magnetization 
 augmentation part      -12.2176787 magnetization 

 Broyden mixing:
  rms(total) = 0.13108E-01    rms(broyden)= 0.13108E-01
  rms(prec ) = 0.16359E-01
  weight for this iteration     100.00

 eigenvalues of (default mixing * dielectric matrix)
  average eigenvalue GAMMA=   2.7388
  5.4319  5.4319  2.7589  2.1432  1.2556  1.2556  0.8946

 Free energy of the ion-electron system (eV)
  ---------------------------------------------------
  alpha Z        PSCENC =        87.47481167
  Ewald energy   TEWEN  =     -5974.52528800
  -Hartree energ DENC   =      -435.23904525
  -exchange      EXHF   =         0.00000000
  -V(xc)+E(xc)   XCENC  =      -478.22108555
  PAW double counting   =     22527.58200769   -21600.87317280
  entropy T*S    EENTRO =        -0.00245809
  eigenvalues    EBANDS =       127.29813402
  atomic energy  EATOM  =      5462.52286525
  Solvation  Ediel_sol  =         0.00000000
  ---------------------------------------------------
  free energy    TOTEN  =      -283.98323106 eV

  energy without entropy =     -283.98077297  energy(sigma->0) =     -283.98200202


--------------------------------------------------------------------------------------------------------




--------------------------------------- Iteration      1(  13)  ---------------------------------------


    POTLOK:  cpu time    0.0858: real time    0.0869
    SETDIJ:  cpu time    0.0051: real time    0.0051
     EDDAV:  cpu time    3.6742: real time    3.7101
       DOS:  cpu time    0.0066: real time    0.0066
    CHARGE:  cpu time    0.1623: real time    0.1634
    MIXING:  cpu time    0.0046: real time    0.0046
    --------------------------------------------
      LOOP:  cpu time    3.9386: real time    3.9768

 eigenvalue-minimisations  :  2688
 total energy-change (2. order) :-0.6704369E-03  (-0.2083907E-03)
 number of electron     211.9999999 magnetization 
 augmentation part      -12.2193344 magnetization 

 Broyden mixing:
  rms(total) = 0.58085E-02    rms(broyden)= 0.58085E-02
  rms(prec ) = 0.76709E-02
  weight for this iteration     100.00

 eigenvalues of (default mixing * dielectric matrix)
  average eigenvalue GAMMA=   2.5480
  5.0560  5.0560  3.1725  2.0251  2.0251  0.9395  1.0550  1.0550

 Free energy of the ion-electron system (eV)
  ---------------------------------------------------
  alpha Z        PSCENC =        87.47481167
  Ewald energy   TEWEN  =     -5974.52528800
  -Hartree energ DENC   =      -435.09878360
  -exchange      EXHF   =         0.00000000
  -V(xc)+E(xc)   XCENC  =      -478.21085771
  PAW double counting   =     22424.47935186   -21497.70120087
  entropy T*S    EENTRO =        -0.00245946
  eigenvalues    EBANDS =       127.07765937
  atomic energy  EATOM  =      5462.52286525
  Solvation  Ediel_sol  =         0.00000000
  ---------------------------------------------------
  free energy    TOTEN  =      -283.98390150 eV

  energy without entropy =     -283.98144204  energy(sigma->0) =     -283.98267177


--------------------------------------------------------------------------------------------------------




--------------------------------------- Iteration      1(  14)  ---------------------------------------


    POTLOK:  cpu time    0.0857: real time    0.0868
    SETDIJ:  cpu time    0.0048: real time    0.0048
     EDDAV:  cpu time    3.7587: real time    3.7953
       DOS:  cpu time    0.0065: real time    0.0065
    CHARGE:  cpu time    0.1618: real time    0.1629
    MIXING:  cpu time    0.0048: real time    0.0049
    --------------------------------------------
      LOOP:  cpu time    4.0224: real time    4.0612

 eigenvalue-minimisations  :  2856
 total energy-change (2. order) : 0.4396475E-04  (-0.2752876E-04)
 number of electron     211.9999999 magnetization 
 augmentation part      -12.2186077 magnetization 

 Broyden mixing:
  rms(total) = 0.42128E-02    rms(broyden)= 0.42128E-02
  rms(prec ) = 0.45403E-02
  weight for this iteration     100.00

 eigenvalues of (default mixing * dielectric matrix)
  average eigenvalue GAMMA=   2.7782
  6.4529  5.4859  4.0199  2.6192  1.6677  1.6677  0.9232  1.0834  1.0834

 Free energy of the ion-electron system (eV)
  ---------------------------------------------------
  alpha Z        PSCENC =        87.47481167
  Ewald energy   TEWEN  =     -5974.52528800
  -Hartree energ DENC   =      -435.40921461
  -exchange      EXHF   =         0.00000000
  -V(xc)+E(xc)   XCENC  =      -478.17389753
  PAW double counting   =     22461.96376177   -21535.21516193
  entropy T*S    EENTRO =        -0.00245927
  eigenvalues    EBANDS =       127.38072512
  atomic energy  EATOM  =      5462.52286525
  Solvation  Ediel_sol  =         0.00000000
  ---------------------------------------------------
  free energy    TOTEN  =      -283.98385754 eV

  energy without entropy =     -283.98139827  energy(sigma->0) =     -283.98262790


--------------------------------------------------------------------------------------------------------




--------------------------------------- Iteration      1(  15)  ---------------------------------------


    POTLOK:  cpu time    0.0867: real time    0.0880
    SETDIJ:  cpu time    0.0030: real time    0.0030
     EDDAV:  cpu time    3.7115: real time    3.7472
       DOS:  cpu time    0.0065: real time    0.0065
    CHARGE:  cpu time    0.1621: real time    0.1631
    MIXING:  cpu time    0.0049: real time    0.0049
    --------------------------------------------
      LOOP:  cpu time    3.9747: real time    4.0128

 eigenvalue-minimisations  :  2736
 total energy-change (2. order) :-0.4196877E-04  (-0.9693577E-05)
 number of electron     211.9999999 magnetization 
 augmentation part      -12.2182070 magnetization 

 Broyden mixing:
  rms(total) = 0.16720E-02    rms(broyden)= 0.16720E-02
  rms(prec ) = 0.19677E-02
  weight for this iteration     100.00

 eigenvalues of (default mixing * dielectric matrix)
  average eigenvalue GAMMA=   2.4907
  5.9610  4.9135  3.4633  2.3124  2.3124  1.4958  1.4958  0.9334  1.0099  1.0099

 Free energy of the ion-electron system (eV)
  ---------------------------------------------------
  alpha Z        PSCENC =        87.47481167
  Ewald energy   TEWEN  =     -5974.52528800
  -Hartree energ DENC   =      -435.49870614
  -exchange      EXHF   =         0.00000000
  -V(xc)+E(xc)   XCENC  =      -478.16648471
  PAW double counting   =     22415.90165017   -21489.15408749
  entropy T*S    EENTRO =        -0.00245938
  eigenvalues    EBANDS =       127.46379914
  atomic energy  EATOM  =      5462.52286525
  Solvation  Ediel_sol  =         0.00000000
  ---------------------------------------------------
  free energy    TOTEN  =      -283.98389950 eV

  energy without entropy =     -283.98144012  energy(sigma->0) =     -283.98266981


--------------------------------------------------------------------------------------------------------




--------------------------------------- Iteration      1(  16)  ---------------------------------------


    POTLOK:  cpu time    0.0863: real time    0.0874
    SETDIJ:  cpu time    0.0040: real time    0.0040
     EDDAV:  cpu time    3.8893: real time    3.9486
       DOS:  cpu time    0.0063: real time    0.0063
    CHARGE:  cpu time    0.1662: real time    0.1674
    MIXING:  cpu time    0.0051: real time    0.0052
    --------------------------------------------
      LOOP:  cpu time    4.1572: real time    4.2189

 eigenvalue-minimisations  :  2952
 total energy-change (2. order) : 0.5121672E-05  (-0.8455756E-06)
 number of electron     211.9999999 magnetization 
 augmentation part      -12.2182893 magnetization 

 Broyden mixing:
  rms(total) = 0.81543E-03    rms(broyden)= 0.81543E-03
  rms(prec ) = 0.96644E-03
  weight for this iteration     100.00

 eigenvalues of (default mixing * dielectric matrix)
  average eigenvalue GAMMA=   2.5161
  6.0489  4.9263  3.5274  3.5274  2.0723  2.0723  1.4249  1.1316  0.9383  1.0039
  1.0039

 Free energy of the ion-electron system (eV)
  ---------------------------------------------------
  alpha Z        PSCENC =        87.47481167
  Ewald energy   TEWEN  =     -5974.52528800
  -Hartree energ DENC   =      -435.49498808
  -exchange      EXHF   =         0.00000000
  -V(xc)+E(xc)   XCENC  =      -478.16477961
  PAW double counting   =     22431.63664766   -21504.88754190
  entropy T*S    EENTRO =        -0.00245928
  eigenvalues    EBANDS =       127.45683792
  atomic energy  EATOM  =      5462.52286525
  Solvation  Ediel_sol  =         0.00000000
  ---------------------------------------------------
  free energy    TOTEN  =      -283.98389438 eV

  energy without entropy =     -283.98143510  energy(sigma->0) =     -283.98266474


--------------------------------------------------------------------------------------------------------




--------------------------------------- Iteration      1(  17)  ---------------------------------------


    POTLOK:  cpu time    0.0754: real time    0.0764
    SETDIJ:  cpu time    0.0091: real time    0.0092
     EDDAV:  cpu time    3.9431: real time    3.9831
       DOS:  cpu time    0.0057: real time    0.0057
    CHARGE:  cpu time    0.1614: real time    0.1625
    MIXING:  cpu time    0.0053: real time    0.0053
    --------------------------------------------
      LOOP:  cpu time    4.2001: real time    4.2423

 eigenvalue-minimisations  :  2760
 total energy-change (2. order) :-0.4157821E-05  (-0.5859363E-06)
 number of electron     211.9999999 magnetization 
 augmentation part      -12.2181981 magnetization 

 Broyden mixing:
  rms(total) = 0.23394E-03    rms(broyden)= 0.23394E-03
  rms(prec ) = 0.33894E-03
  weight for this iteration     100.00

 eigenvalues of (default mixing * dielectric matrix)
  average eigenvalue GAMMA=   2.4547
  6.2318  4.8068  4.0389  3.5542  2.0887  2.0887  1.4659  1.1673  1.1673  0.9693
  0.9693  0.9084

 Free energy of the ion-electron system (eV)
  ---------------------------------------------------
  alpha Z        PSCENC =        87.47481167
  Ewald energy   TEWEN  =     -5974.52528800
  -Hartree energ DENC   =      -435.51807347
  -exchange      EXHF   =         0.00000000
  -V(xc)+E(xc)   XCENC  =      -478.16293449
  PAW double counting   =     22428.96726077   -21502.21995638
  entropy T*S    EENTRO =        -0.00245925
  eigenvalues    EBANDS =       127.47987536
  atomic energy  EATOM  =      5462.52286525
  Solvation  Ediel_sol  =         0.00000000
  ---------------------------------------------------
  free energy    TOTEN  =      -283.98389854 eV

  energy without entropy =     -283.98143929  energy(sigma->0) =     -283.98266892


--------------------------------------------------------------------------------------------------------




--------------------------------------- Iteration      1(  18)  ---------------------------------------


    POTLOK:  cpu time    0.0866: real time    0.0876
    SETDIJ:  cpu time    0.0037: real time    0.0038
     EDDAV:  cpu time    2.7329: real time    2.7592
       DOS:  cpu time    0.0054: real time    0.0054
    --------------------------------------------
      LOOP:  cpu time    2.8284: real time    2.8558

 eigenvalue-minimisations  :  1728
 total energy-change (2. order) :-0.3768764E-06  (-0.6744917E-07)
 number of electron     211.9999999 magnetization 
 augmentation part      -12.2181981 magnetization 

 Free energy of the ion-electron system (eV)
  ---------------------------------------------------
  alpha Z        PSCENC =        87.47481167
  Ewald energy   TEWEN  =     -5974.52528800
  -Hartree energ DENC   =      -435.52088894
  -exchange      EXHF   =         0.00000000
  -V(xc)+E(xc)   XCENC  =      -478.16296239
  PAW double counting   =     22427.59801529   -21500.85090049
  entropy T*S    EENTRO =        -0.00245926
  eigenvalues    EBANDS =       127.48290796
  atomic energy  EATOM  =      5462.52286525
  Solvation  Ediel_sol  =         0.00000000
  ---------------------------------------------------
  free energy    TOTEN  =      -283.98389892 eV

  energy without entropy =     -283.98143966  energy(sigma->0) =     -283.98266929


--------------------------------------------------------------------------------------------------------




 average (electrostatic) potential at core
  the test charge radii are     0.9892
  (the norm of the test charge is              1.0000)
       1 -83.4808       2 -83.4808       3 -83.4808       4 -83.4949       5 -83.4808
       6 -83.4808       7 -83.4808       8 -83.4412       9 -83.4808      10 -83.4949
      11 -83.4808      12 -83.4949      13 -83.4949      14 -83.4516      15 -83.4808
      16 -83.4516      17 -83.4516      18 -83.4808      19 -83.4808      20 -83.4412
      21 -83.4808      22 -83.4516      23 -83.4516      24 -83.4412      25 -83.4516
      26 -83.4412      27 -83.4382      28 -83.4421      29 -83.4421      30 -83.4421
      31 -83.5802      32 -83.4421      33 -83.4421      34 -83.4421      35 -83.4716
      36 -83.4421      37 -83.5802      38 -83.4421      39 -83.5802      40 -83.5802
      41 -83.5644      42 -83.4421      43 -83.5644      44 -83.5644      45 -83.4421
      46 -83.4421      47 -83.4716      48 -83.4421      49 -83.5644      50 -83.5644
      51 -83.4716      52 -83.5644      53 -83.4716
 
 
 
 E-fermi :   6.0374     XC(G=0):  -9.3429     alpha+bet :-11.7594


 k-point     1 :       0.0000    0.0000    0.0000
  band No.  band energies     occupation 
      1      -6.2839      2.00000
      2      -4.9727      2.00000
      3      -4.9700      2.00000
      4      -4.9700      2.00000
      5      -4.9700      2.00000
      6      -4.9171      2.00000
      7      -4.9171      2.00000
      8      -4.9171      2.00000
      9      -4.7278      2.00000
     10      -4.4349      2.00000
     11      -4.4349      2.00000
     12      -4.3893      2.00000
     13      -4.3893      2.00000
     14      -4.3893      2.00000
     15      -3.9807      2.00000
     16      -3.0924      2.00000
     17      -3.0924      2.00000
     18      -3.0733      2.00000
     19      -3.0733      2.00000
     20      -3.0733      2.00000
     21      -3.0588      2.00000
     22      -3.0588      2.00000
     23      -3.0588      2.00000
     24      -2.9747      2.00000
     25      -2.9747      2.00000
     26      -2.9747      2.00000
     27      -2.0882      2.00000
     28      -1.1451      2.00000
     29      -1.1451      2.00000
     30      -1.1401      2.00000
     31      -1.1401      2.00000
     32      -1.1401      2.00000
     33      -1.1345      2.00000
     34      -1.1345      2.00000
     35      -1.1345      2.00000
     36      -1.0074      2.00000
     37      -1.0074      2.00000
     38      -1.0074      2.00000
     39      -0.2598      2.00000
     40       0.2936      2.00000
     41       0.3100      2.00000
     42       0.3100      2.00000
     43       0.3100      2.00000
     44       0.3915      2.00000
     45       0.3915      2.00000
     46       0.3915      2.00000
     47       0.4557      2.00000
     48       0.6242      2.00000
     49       0.6242      2.00000
     50       0.7101      2.00000
     51       0.7101      2.00000
     52       0.7101      2.00000
     53       1.1881      2.00000
     54       1.2033      2.00000
     55       1.2033      2.00000
     56       1.2033      2.00000
     57       1.2298      2.00000
     58       1.2298      2.00000
     59       1.2298      2.00000
     60       1.2755      2.00000
     61       1.2755      2.00000
     62       1.5701      2.00000
     63       1.5701      2.00000
     64       1.5701      2.00000
     65       3.2011      2.00000
     66       3.2011      2.00000
     67       3.2011      2.00000
     68       3.2193      2.00000
     69       3.2193      2.00000
     70       3.2193      2.00000
     71       3.2312      2.00000
     72       3.2312      2.00000
     73       3.2312      2.00000
     74       3.3351      2.00000
     75       3.3351      2.00000
     76       3.3351      2.00000
     77       3.5160      2.00000
     78       3.5160      2.00000
     79       3.5160      2.00000
     80       3.5173      2.00000
     81       3.5327      2.00000
     82       3.5327      2.00000
     83       3.5327      2.00000
     84       3.5342      2.00000
     85       3.5342      2.00000
     86       3.5620      2.00000
     87       3.9849      2.00000
     88       3.9849      2.00000
     89       3.9849      2.00000
     90       4.6095      2.00000
     91       4.6095      2.00000
     92       4.6127      2.00000
     93       4.6127      2.00000
     94       4.6127      2.00000
     95       4.6319      2.00000
     96       4.6319      2.00000
     97       4.6319      2.00000
     98       4.6503      2.00000
     99       4.6503      2.00000
    100       4.6503      2.00000
    101       4.6533      2.00000
    102       4.6533      2.00000
    103       5.4124      2.00000
    104       5.4124      2.00000
    105       5.4124      2.00000
    106       6.3281      0.00000
    107       6.3281      0.00000
    108       6.3281      0.00000
    109       6.3915      0.00000
    110       6.3915      0.00000
    111       6.4666      0.00000
    112       6.6498      0.00000
    113       6.6498      0.00000
    114       6.6498      0.00000
    115       7.1947      0.00000
    116       7.1947      0.00000
    117       7.1947      0.00000
    118       7.2106      0.00000
    119       7.2106      0.00000
    120       7.2106      0.00000
    121       7.2497      0.00000
    122       7.3023      0.00000
    123       7.3023      0.00000
    124       7.3023      0.00000
    125       7.3103      0.00000
    126       7.3103      0.00000
    127       7.4043      0.00000
    128       7.4129      0.00000
    129       7.4129      0.00000
    130       7.4129      0.00000
    131       7.5286      0.00000
    132       7.5286      0.00000
    133       7.5286      0.00000
    134       7.6017      0.00000
    135       7.7620      0.00000
    136       7.7620      0.00000
    137       7.8061      0.00000
    138       7.8061      0.00000
    139       7.8061      0.00000
    140       8.3491      0.00000
    141       8.3491      0.00000
    142       8.3491      0.00000
    143       8.6463      0.00000
    144       9.1314      0.00000

 k-point     2 :       0.2500    0.0000    0.0000
  band No.  band energies     occupation 
      1      -6.1953      2.00000
      2      -5.4964      2.00000
      3      -5.0693      2.00000
      4      -5.0693      2.00000
      5      -5.0132      2.00000
      6      -4.8012      2.00000
      7      -4.8012      2.00000
      8      -4.7344      2.00000
      9      -4.6494      2.00000
     10      -4.6494      2.00000
     11      -4.4668      2.00000
     12      -4.2467      2.00000
     13      -3.8794      2.00000
     14      -3.8794      2.00000
     15      -3.7405      2.00000
     16      -3.6535      2.00000
     17      -3.6535      2.00000
     18      -3.4572      2.00000
     19      -3.0725      2.00000
     20      -3.0725      2.00000
     21      -3.0537      2.00000
     22      -3.0149      2.00000
     23      -3.0149      2.00000
     24      -2.8251      2.00000
     25      -2.7712      2.00000
     26      -2.7712      2.00000
     27      -2.1001      2.00000
     28      -1.4110      2.00000
     29      -1.4110      2.00000
     30      -1.2658      2.00000
     31      -1.1764      2.00000
     32      -1.1764      2.00000
     33      -1.1723      2.00000
     34      -1.1018      2.00000
     35      -1.1018      2.00000
     36      -0.8615      2.00000
     37      -0.7343      2.00000
     38      -0.6241      2.00000
     39      -0.6241      2.00000
     40      -0.3367      2.00000
     41      -0.1444      2.00000
     42      -0.1444      2.00000
     43      -0.1080      2.00000
     44       0.0053      2.00000
     45       0.0053      2.00000
     46       0.6131      2.00000
     47       0.8234      2.00000
     48       0.8234      2.00000
     49       1.0261      2.00000
     50       1.2389      2.00000
     51       1.2389      2.00000
     52       1.3758      2.00000
     53       1.3777      2.00000
     54       1.4061      2.00000
     55       1.4061      2.00000
     56       1.4313      2.00000
     57       1.4313      2.00000
     58       1.4689      2.00000
     59       1.5957      2.00000
     60       1.5957      2.00000
     61       1.6552      2.00000
     62       1.7742      2.00000
     63       1.7742      2.00000
     64       1.8217      2.00000
     65       2.7588      2.00000
     66       2.7588      2.00000
     67       2.7878      2.00000
     68       3.0724      2.00000
     69       3.1120      2.00000
     70       3.1120      2.00000
     71       3.1854      2.00000
     72       3.2089      2.00000
     73       3.2133      2.00000
     74       3.2133      2.00000
     75       3.2208      2.00000
     76       3.2208      2.00000
     77       3.2360      2.00000
     78       3.2740      2.00000
     79       3.2740      2.00000
     80       3.3975      2.00000
     81       3.3975      2.00000
     82       3.4380      2.00000
     83       3.4993      2.00000
     84       3.6662      2.00000
     85       3.6662      2.00000
     86       3.7993      2.00000
     87       3.7993      2.00000
     88       3.9135      2.00000
     89       3.9544      2.00000
     90       4.0684      2.00000
     91       4.0684      2.00000
     92       4.1191      2.00000
     93       4.3156      2.00000
     94       4.3502      2.00000
     95       4.3502      2.00000
     96       4.4104      2.00000
     97       4.4104      2.00000
     98       4.5563      2.00000
     99       4.5563      2.00000
    100       4.6394      2.00000
    101       4.6784      2.00000
    102       4.8083      2.00000
    103       4.8083      2.00000
    104       5.3110      2.00000
    105       5.3110      2.00000
    106       5.9281      1.99799
    107       6.3594      0.00000
    108       6.3594      0.00000
    109       6.6185      0.00000
    110       6.6495      0.00000
    111       6.6495      0.00000
    112       6.8668      0.00000
    113       6.8668      0.00000
    114       6.9071      0.00000
    115       7.0161      0.00000
    116       7.0248      0.00000
    117       7.0248      0.00000
    118       7.3438      0.00000
    119       7.5359      0.00000
    120       7.5430      0.00000
    121       7.5430      0.00000
    122       7.6685      0.00000
    123       7.7152      0.00000
    124       7.7152      0.00000
    125       7.7644      0.00000
    126       7.7746      0.00000
    127       7.7907      0.00000
    128       7.7907      0.00000
    129       7.8528      0.00000
    130       7.8528      0.00000
    131       7.8994      0.00000
    132       7.9225      0.00000
    133       7.9292      0.00000
    134       7.9292      0.00000
    135       8.0731      0.00000
    136       8.0731      0.00000
    137       8.2940      0.00000
    138       8.4593      0.00000
    139       8.4593      0.00000
    140       8.4824      0.00000
    141       8.6072      0.00000
    142       8.6072      0.00000
    143       8.9499      0.00000
    144       8.9502      0.00000

 k-point     3 :       0.5000    0.0000    0.0000
  band No.  band energies     occupation 
      1      -5.9717      2.00000
      2      -5.8824      2.00000
      3      -5.0415      2.00000
      4      -5.0403      2.00000
      5      -5.0403      2.00000
      6      -4.9991      2.00000
      7      -4.9991      2.00000
      8      -4.7891      2.00000
      9      -4.2307      2.00000
     10      -4.2307      2.00000
     11      -4.1990      2.00000
     12      -4.1962      2.00000
     13      -4.1962      2.00000
     14      -4.0464      2.00000
     15      -3.8290      2.00000
     16      -3.2730      2.00000
     17      -3.2730      2.00000
     18      -3.2366      2.00000
     19      -3.2366      2.00000
     20      -3.2352      2.00000
     21      -3.0870      2.00000
     22      -3.0667      2.00000
     23      -3.0667      2.00000
     24      -3.0486      2.00000
     25      -2.9910      2.00000
     26      -2.9910      2.00000
     27      -2.1275      2.00000
     28      -1.2844      2.00000
     29      -1.2110      2.00000
     30      -1.2110      2.00000
     31      -1.2083      2.00000
     32      -1.1536      2.00000
     33      -1.1536      2.00000
     34      -1.0500      2.00000
     35      -0.9393      2.00000
     36      -0.9393      2.00000
     37      -0.8725      2.00000
     38      -0.8725      2.00000
     39      -0.8106      2.00000
     40      -0.5394      2.00000
     41      -0.3724      2.00000
     42      -0.3724      2.00000
     43      -0.3336      2.00000
     44      -0.2281      2.00000
     45      -0.2281      2.00000
     46       0.7259      2.00000
     47       1.1906      2.00000
     48       1.2064      2.00000
     49       1.2064      2.00000
     50       1.2850      2.00000
     51       1.2850      2.00000
     52       1.5721      2.00000
     53       1.6029      2.00000
     54       1.6423      2.00000
     55       1.6423      2.00000
     56       1.8031      2.00000
     57       1.8031      2.00000
     58       1.9897      2.00000
     59       2.0144      2.00000
     60       2.0144      2.00000
     61       2.0706      2.00000
     62       2.1538      2.00000
     63       2.1538      2.00000
     64       2.4414      2.00000
     65       2.5883      2.00000
     66       2.5883      2.00000
     67       2.6120      2.00000
     68       2.6120      2.00000
     69       2.6945      2.00000
     70       2.8729      2.00000
     71       2.8739      2.00000
     72       2.8739      2.00000
     73       2.9229      2.00000
     74       2.9229      2.00000
     75       3.0163      2.00000
     76       3.0624      2.00000
     77       3.0760      2.00000
     78       3.0760      2.00000
     79       3.0995      2.00000
     80       3.1629      2.00000
     81       3.3152      2.00000
     82       3.3152      2.00000
     83       3.4031      2.00000
     84       3.5041      2.00000
     85       3.6380      2.00000
     86       3.6380      2.00000
     87       3.6945      2.00000
     88       3.6945      2.00000
     89       3.8794      2.00000
     90       3.8963      2.00000
     91       3.9064      2.00000
     92       3.9064      2.00000
     93       4.0712      2.00000
     94       4.0712      2.00000
     95       4.3217      2.00000
     96       4.3346      2.00000
     97       4.3346      2.00000
     98       4.3496      2.00000
     99       4.4104      2.00000
    100       4.4104      2.00000
    101       4.4343      2.00000
    102       4.9098      2.00000
    103       4.9098      2.00000
    104       5.1886      2.00000
    105       5.1886      2.00000
    106       5.3339      2.00000
    107       6.3245      0.00000
    108       6.3245      0.00000
    109       6.6908      0.00000
    110       6.6908      0.00000
    111       6.6999      0.00000
    112       6.8605      0.00000
    113       6.9067      0.00000
    114       6.9067      0.00000
    115       7.2872      0.00000
    116       7.6055      0.00000
    117       7.6055      0.00000
    118       7.6377      0.00000
    119       7.6919      0.00000
    120       7.6919      0.00000
    121       7.7600      0.00000
    122       8.0067      0.00000
    123       8.0368      0.00000
    124       8.0929      0.00000
    125       8.0929      0.00000
    126       8.0977      0.00000
    127       8.2568      0.00000
    128       8.2568      0.00000
    129       8.3809      0.00000
    130       8.3928      0.00000
    131       8.3928      0.00000
[...]
   25        0.751   0.942   0.000   1.693
   26        0.751   0.941   0.000   1.692
   27        0.751   0.942   0.000   1.693
   28        0.752   0.941   0.000   1.693
   29        0.752   0.941   0.000   1.693
   30        0.751   0.943   0.000   1.694
   31        0.808   0.920   0.000   1.727
   32        0.751   0.943   0.000   1.694
   33        0.752   0.942   0.000   1.694
   34        0.752   0.942   0.000   1.694
   35        0.752   0.942   0.000   1.694
   36        0.751   0.942   0.000   1.693
   37        0.791   0.826   0.000   1.617
   38        0.751   0.942   0.000   1.693
   39        0.789   0.810   0.000   1.599
   40        0.789   0.810   0.000   1.599
   41        0.760   0.907   0.000   1.667
   42        0.751   0.940   0.000   1.692
   43        0.759   0.924   0.000   1.683
   44        0.759   0.923   0.000   1.681
   45        0.751   0.941   0.000   1.693
   46        0.751   0.942   0.000   1.693
   47        0.751   0.941   0.000   1.692
   48        0.752   0.940   0.000   1.691
   49        0.760   0.937   0.000   1.697
   50        0.760   0.938   0.000   1.698
   51        0.751   0.941   0.000   1.692
   52        0.761   0.929   0.000   1.689
   53        0.751   0.941   0.000   1.692
--------------------------------------------------
tot         40.080  49.308   0.000  89.388
 
    CHARGE:  cpu time    0.1617: real time    0.1629
    FORLOC:  cpu time    0.0312: real time    0.0317
    FORNL :  cpu time    1.5746: real time    1.5870
    STRESS:  cpu time    6.2883: real time    6.3652
    FORCOR:  cpu time    0.0886: real time    0.0897
    FORHAR:  cpu time    0.0433: real time    0.0437
    MIXING:  cpu time    0.0854: real time    0.0859
    OFIELD:  cpu time    0.0001: real time    0.0003

  FORCE on cell =-STRESS in cart. coord.  units (eV):
  Direction    XX          YY          ZZ          XY          YZ          ZX
  --------------------------------------------------------------------------------------
  Alpha Z    87.47481    87.47481    87.47481
  Ewald   -1991.52010 -1991.52010 -1991.52010    -0.00000     0.00000     0.00000
  Hartree   145.17465   145.17465   145.17465    -0.00000    -0.00000    -0.00000
  E(xc)    -669.97866  -669.97866  -669.97868    -0.00001    -0.00001    -0.00001
  Local    -809.73801  -809.73811  -809.73762     0.00014     0.00024     0.00034
  n-local  2051.16938  2063.68881  2074.78106    -2.11407    -0.76746     0.54270
  augment  -310.39213  -310.39205  -310.39249    -0.00012    -0.00022    -0.00030
  Kinetic  1480.03461  1495.33470  1510.26905    -2.06676    -0.89799     0.63498
  Fock        0.00000     0.00000     0.00000     0.00000     0.00000     0.00000
  -------------------------------------------------------------------------------------
  Total       9.44644     9.44644     9.44644     0.00000    -0.00000     0.00000
  in kB      14.00088    14.00088    14.00088     0.00000    -0.00000     0.00000
  external pressure =       14.00 kB  Pullay stress =        0.00 kB


 VOLUME and BASIS-vectors are now :
 -----------------------------------------------------------------------------
  energy-cutoff  :      550.00
  volume of cell :     1080.99
      direct lattice vectors                 reciprocal lattice vectors
     9.976465530  0.000000000  5.759915070     0.100235900 -0.035438742  0.000000000
     3.325488510  9.405901920  5.759915070     0.000000000  0.106316227  0.000000000
     0.000000000  0.000000000 11.519830140    -0.050117950 -0.035438742  0.086806836

  length of vectors
    11.519830124 11.519830136 11.519830140     0.106316227  0.106316227  0.106316227


 FORCES acting on ions
    electron-ion (+dipol)            ewald-force                    non-local-force                 convergence-correction
 -----------------------------------------------------------------------------------------------
   0.182E+00 0.129E+00 0.118E+02   0.119E-06 -.632E-07 -.119E+02   -.230E+00 -.163E+00 -.154E+00   0.613E-04 0.433E-04 0.583E-04
   0.182E+00 0.129E+00 -.118E+02   0.119E-06 -.632E-07 0.119E+02   -.230E+00 -.163E+00 0.154E+00   0.613E-04 0.433E-04 -.584E-04
   0.350E+01 0.950E+01 0.605E+01   -.345E+01 -.974E+01 -.597E+01   -.159E+00 0.372E-01 -.276E+00   0.475E-04 0.431E-05 0.822E-04
   -.312E+00 0.110E+00 0.182E-05   0.286E+00 -.101E+00 0.573E-12   0.334E-02 -.118E-02 0.000E+00   0.689E-03 -.244E-03 -.529E-08
   0.350E+01 0.950E+01 -.605E+01   -.345E+01 -.974E+01 0.597E+01   -.159E+00 0.372E-01 0.276E+00   0.475E-04 0.432E-05 -.822E-04
   -.331E+01 -.976E+01 -.574E+01   0.345E+01 0.974E+01 0.597E+01   -.707E-01 0.288E+00 -.122E+00   0.138E-04 -.910E-04 0.239E-04
   -.331E+01 -.976E+01 0.574E+01   0.345E+01 0.974E+01 -.597E+01   -.707E-01 0.288E+00 0.122E+00   0.138E-04 -.910E-04 -.239E-04
   0.296E+00 -.105E+00 0.449E-06   -.286E+00 0.101E+00 -.436E-11   0.179E-02 -.632E-03 -.347E-17   -.452E-03 0.160E-03 -.162E-07
   0.101E+02 0.129E+00 0.605E+01   -.103E+02 -.640E-07 -.597E+01   -.180E-01 -.163E+00 -.276E+00   0.199E-04 0.433E-04 0.822E-04
   0.966E-06 -.331E+00 0.182E-05   0.137E-06 0.303E+00 0.558E-12   0.000E+00 0.355E-02 0.139E-16   -.311E-08 0.731E-03 -.529E-08
   0.101E+02 0.129E+00 -.605E+01   -.103E+02 -.640E-07 0.597E+01   -.180E-01 -.163E+00 0.276E+00   0.199E-04 0.433E-04 -.822E-04
   0.156E+00 0.110E+00 -.270E+00   -.143E+00 -.101E+00 0.248E+00   -.167E-02 -.118E-02 0.290E-02   -.345E-03 -.244E-03 0.597E-03
   0.156E+00 0.110E+00 0.270E+00   -.143E+00 -.101E+00 -.248E+00   -.167E-02 -.118E-02 -.290E-02   -.345E-03 -.244E-03 -.597E-03
   0.343E+01 0.242E+01 0.299E-06   -.347E+01 -.246E+01 0.270E-12   0.244E-01 0.173E-01 0.139E-16   -.230E-03 -.163E-03 -.165E-07
   0.663E+01 -.976E+01 -.154E-05   -.689E+01 0.974E+01 0.411E-11   0.141E+00 0.288E+00 -.347E-17   -.276E-04 -.910E-04 0.219E-07
   0.171E+01 -.242E+01 0.297E+01   -.174E+01 0.246E+01 -.301E+01   0.122E-01 -.173E-01 0.211E-01   -.115E-03 0.163E-03 -.199E-03
   0.171E+01 -.242E+01 -.297E+01   -.174E+01 0.246E+01 0.301E+01   0.122E-01 -.173E-01 -.211E-01   -.115E-03 0.163E-03 0.199E-03
   -.103E+02 0.129E+00 -.574E+01   0.103E+02 -.624E-07 0.597E+01   0.248E+00 -.163E+00 -.122E+00   -.812E-04 0.433E-04 0.239E-04
   -.103E+02 0.129E+00 0.574E+01   0.103E+02 -.624E-07 -.597E+01   0.248E+00 -.163E+00 0.122E+00   -.812E-04 0.433E-04 -.239E-04
   0.208E-06 0.314E+00 0.449E-06   0.101E-06 -.303E+00 -.438E-11   -.694E-17 0.190E-02 -.694E-17   -.927E-08 -.479E-03 -.162E-07
   -.699E+01 0.950E+01 -.154E-05   0.689E+01 -.974E+01 0.411E-11   0.319E+00 0.372E-01 0.416E-16   -.950E-04 0.432E-05 0.219E-07
   -.171E+01 0.242E+01 0.297E+01   0.174E+01 -.246E+01 -.301E+01   -.122E-01 0.173E-01 0.211E-01   0.115E-03 -.163E-03 -.199E-03
   -.171E+01 0.242E+01 -.297E+01   0.174E+01 -.246E+01 0.301E+01   -.122E-01 0.173E-01 -.211E-01   0.115E-03 -.163E-03 0.199E-03
   -.148E+00 -.105E+00 0.256E+00   0.143E+00 0.101E+00 -.248E+00   -.894E-03 -.632E-03 0.155E-02   0.226E-03 0.160E-03 -.391E-03
   -.343E+01 -.242E+01 0.128E-05   0.347E+01 0.246E+01 -.107E-10   -.244E-01 -.173E-01 0.208E-16   0.230E-03 0.163E-03 -.548E-08
   -.148E+00 -.105E+00 -.256E+00   0.143E+00 0.101E+00 0.248E+00   -.894E-03 -.632E-03 -.155E-02   0.226E-03 0.160E-03 0.391E-03
   0.640E-06 0.352E-06 0.967E-06   -.132E-06 0.702E-07 0.105E-10   -.191E-16 -.173E-16 0.000E+00   -.310E-08 -.224E-08 -.543E-08
   -.570E+01 -.403E+01 -.296E+01   0.569E+01 0.403E+01 0.287E+01   -.954E-02 -.674E-02 0.704E-01   -.110E-03 -.780E-04 -.437E-03
   -.570E+01 -.403E+01 0.296E+01   0.569E+01 0.403E+01 -.287E+01   -.954E-02 -.674E-02 -.704E-01   -.110E-03 -.780E-04 0.437E-03
   -.371E+01 0.162E+01 -.642E+01   0.367E+01 -.168E+01 0.637E+01   0.156E-01 0.642E-01 0.270E-01   -.181E-03 -.279E-03 -.314E-03
   -.389E+02 0.138E+02 -.201E-05   0.373E+02 -.132E+02 0.255E-11   0.189E+01 -.669E+00 0.243E-16   -.551E-03 0.195E-03 0.224E-07
   -.371E+01 0.162E+01 0.642E+01   0.367E+01 -.168E+01 -.637E+01   0.156E-01 0.642E-01 -.270E-01   -.181E-03 -.279E-03 0.314E-03
   -.200E+01 0.645E+01 -.346E+01   0.202E+01 -.637E+01 0.349E+01   -.251E-01 -.508E-01 -.435E-01   0.710E-04 0.435E-03 0.123E-03
   -.200E+01 0.645E+01 0.346E+01   0.202E+01 -.637E+01 -.349E+01   -.251E-01 -.508E-01 0.435E-01   0.710E-04 0.435E-03 -.123E-03
   -.144E+01 0.509E+00 -.555E-07   0.134E+01 -.472E+00 -.441E-11   0.731E-01 -.259E-01 -.121E-16   0.348E-03 -.123E-03 -.152E-07
   0.290E+00 -.403E+01 -.642E+01   -.359E+00 0.403E+01 0.637E+01   0.658E-01 -.674E-02 0.270E-01   -.323E-03 -.780E-04 -.314E-03
   -.110E-05 -.413E+02 -.201E-05   -.117E-06 0.395E+02 0.252E-11   0.000E+00 0.201E+01 0.555E-16   0.129E-07 -.584E-03 0.224E-07
   0.290E+00 -.403E+01 0.642E+01   -.359E+00 0.403E+01 -.637E+01   0.658E-01 -.674E-02 -.270E-01   -.323E-03 -.780E-04 0.314E-03
   0.195E+02 0.138E+02 -.337E+02   -.186E+02 -.132E+02 0.323E+02   -.946E+00 -.669E+00 0.164E+01   0.275E-03 0.195E-03 -.477E-03
   0.195E+02 0.138E+02 0.337E+02   -.186E+02 -.132E+02 -.323E+02   -.946E+00 -.669E+00 -.164E+01   0.275E-03 0.195E-03 0.477E-03
   0.752E+00 0.532E+00 -.793E-07   -.860E+00 -.608E+00 -.877E-11   0.244E+00 0.173E+00 -.555E-16   0.520E-03 0.367E-03 -.153E-07
   0.400E+01 0.645E+01 0.149E-05   -.403E+01 -.637E+01 -.712E-12   0.502E-01 -.508E-01 -.364E-16   -.142E-03 0.435E-03 -.618E-08
   0.376E+00 -.532E+00 0.652E+00   -.430E+00 0.608E+00 -.745E+00   0.122E+00 -.173E+00 0.211E+00   0.260E-03 -.367E-03 0.450E-03
   0.376E+00 -.532E+00 -.652E+00   -.430E+00 0.608E+00 0.745E+00   0.122E+00 -.173E+00 -.211E+00   0.260E-03 -.367E-03 -.450E-03
   0.541E+01 -.403E+01 -.346E+01   -.533E+01 0.403E+01 0.349E+01   -.562E-01 -.674E-02 -.435E-01   0.433E-03 -.780E-04 0.123E-03
   0.541E+01 -.403E+01 0.346E+01   -.533E+01 0.403E+01 -.349E+01   -.562E-01 -.674E-02 0.435E-01   0.433E-03 -.780E-04 -.123E-03
   0.276E-07 -.153E+01 -.555E-07   -.108E-06 0.142E+01 -.443E-11   -.954E-17 0.776E-01 -.156E-16   -.879E-08 0.369E-03 -.152E-07
   0.741E+01 0.162E+01 0.149E-05   -.735E+01 -.168E+01 -.709E-12   -.311E-01 0.642E-01 -.520E-16   0.362E-03 -.279E-03 -.618E-08
   -.376E+00 0.532E+00 0.652E+00   0.430E+00 -.608E+00 -.745E+00   -.122E+00 0.173E+00 0.211E+00   -.260E-03 0.367E-03 0.450E-03
   -.376E+00 0.532E+00 -.652E+00   0.430E+00 -.608E+00 0.745E+00   -.122E+00 0.173E+00 -.211E+00   -.260E-03 0.367E-03 -.450E-03
   0.719E+00 0.509E+00 -.125E+01   -.668E+00 -.472E+00 0.116E+01   -.366E-01 -.259E-01 0.633E-01   -.174E-03 -.123E-03 0.302E-03
   -.752E+00 -.532E+00 -.184E-05   0.860E+00 0.608E+00 -.769E-12   -.244E+00 -.173E+00 -.538E-16   -.520E-03 -.367E-03 0.215E-07
   0.719E+00 0.509E+00 0.125E+01   -.668E+00 -.472E+00 -.116E+01   -.366E-01 -.259E-01 -.633E-01   -.174E-03 -.123E-03 -.302E-03
 -----------------------------------------------------------------------------------------------
   0.136E-05 0.959E-06 0.237E-05   -.788E-14 0.172E-13 0.777E-14   0.167E-15 0.109E-14 0.236E-15   -.124E-07 -.876E-08 -.214E-07
 
 
 POSITION                                       TOTAL-FORCE (eV/Angst)
 -----------------------------------------------------------------------------------
      3.87974      2.74339     10.55984        -0.048089     -0.034004     -0.292893
      3.87974      2.74339     14.39979        -0.048089     -0.034004      0.292893
      4.98823      5.87869      8.63987        -0.108595     -0.205142     -0.188093
      4.98823      5.87869     12.47982        -0.021851      0.007725     -0.000000
      4.98823      5.87869     16.31976        -0.108595     -0.205142      0.188093
      6.09673      9.01399     10.55984         0.060507      0.273150      0.104801
      6.09673      9.01399     14.39979         0.060507      0.273150     -0.104801
      6.09673      9.01399     18.23973         0.011136     -0.003937     -0.000000
      7.20523      2.74339      8.63987        -0.229609     -0.034004     -0.188093
      7.20523      2.74339     12.47982         0.000000     -0.023176     -0.000000
      7.20523      2.74339     16.31976        -0.229609     -0.034004      0.188093
      8.31372      5.87869     10.55984         0.010925      0.007725     -0.018923
      8.31372      5.87869     14.39979         0.010925      0.007725      0.018923
      8.31372      5.87869     18.23973        -0.019947     -0.014105     -0.000000
      9.42222      9.01399     12.47982        -0.121013      0.273150     -0.000000
      9.42222      9.01399     16.31976        -0.009974      0.014105     -0.017275
      9.42222      9.01399     20.15970        -0.009974      0.014105      0.017275
     10.53071      2.74339     10.55984         0.277697     -0.034004      0.104801
     10.53071      2.74339     14.39979         0.277697     -0.034004     -0.104801
     10.53071      2.74339     18.23973         0.000000      0.011812     -0.000000
     11.63921      5.87869     12.47982         0.217191     -0.205142     -0.000000
     11.63921      5.87869     16.31976         0.009974     -0.014105     -0.017275
     11.63921      5.87869     20.15970         0.009974     -0.014105      0.017275
     12.74771      9.01399     14.39979        -0.005568     -0.003937      0.009644
     12.74771      9.01399     18.23973         0.019947      0.014105     -0.000000
     12.74771      9.01399     22.07967        -0.005568     -0.003937     -0.009644
      0.55425      0.39191      0.95999         0.000000     -0.000000     -0.000000
      0.55425      0.39191      4.79993        -0.020860     -0.014750     -0.016886
      0.55425      0.39191      8.63987        -0.020860     -0.014750      0.016886
      1.66274      3.52721      2.87996        -0.015305      0.000963     -0.026508
      1.66274      3.52721      6.71990         0.214779     -0.075936     -0.000000
      1.66274      3.52721     10.55984        -0.015305      0.000963      0.026508
      2.77124      6.66251      4.79993        -0.005555      0.028538     -0.009622
      2.77124      6.66251      8.63987        -0.005555      0.028538      0.009622
      2.77124      6.66251     12.47982        -0.029939      0.010585     -0.000000
      3.87974      0.39191      2.87996        -0.004194     -0.014750     -0.026508
      3.87974      0.39191      6.71990         0.000000      0.227808     -0.000000
      3.87974      0.39191     10.55984        -0.004194     -0.014750      0.026508
      4.98823      3.52721      4.79993        -0.107390     -0.075936      0.186004
      4.98823      3.52721      8.63987        -0.107390     -0.075936     -0.186004
      4.98823      3.52721     12.47982         0.136627      0.096610     -0.000000
      6.09673      6.66251      6.71990         0.011111      0.028538     -0.000000
      6.09673      6.66251     10.55984         0.068313     -0.096610      0.118322
      6.09673      6.66251     14.39979         0.068313     -0.096610     -0.118322
      7.20523      0.39191      4.79993         0.025054     -0.014750     -0.009622
      7.20523      0.39191      8.63987         0.025054     -0.014750      0.009622
      7.20523      0.39191     12.47982         0.000000     -0.031755     -0.000000
      8.31372      3.52721      6.71990         0.030609      0.000963     -0.000000
      8.31372      3.52721     10.55984        -0.068313      0.096610      0.118322
      8.31372      3.52721     14.39979        -0.068313      0.096610     -0.118322
      9.42222      6.66251      8.63987         0.014969      0.010585     -0.025928
      9.42222      6.66251     12.47982        -0.136627     -0.096610     -0.000000
      9.42222      6.66251     16.31976         0.014969      0.010585      0.025928
 -----------------------------------------------------------------------------------
    total drift:                                0.000001      0.000001      0.000002


--------------------------------------------------------------------------------------------------------



  FREE ENERGIE OF THE ION-ELECTRON SYSTEM (eV)
  ---------------------------------------------------
  free  energy   TOTEN  =      -283.98389892 eV

  energy  without entropy=     -283.98143966  energy(sigma->0) =     -283.98266929
 


--------------------------------------------------------------------------------------------------------


    POTLOK:  cpu time    0.0906: real time    0.0921


--------------------------------------------------------------------------------------------------------


 writing wavefunctions
     LOOP+:  cpu time   84.0610: real time   84.9675
    4ORBIT:  cpu time    0.0000: real time    0.0000
 


 total charge     
 
# of ion       s       p       d       tot
------------------------------------------
    1        0.755   0.911   0.000   1.666
    2        0.755   0.911   0.000   1.666
    3        0.754   0.932   0.000   1.686
    4        0.751   0.943   0.000   1.694
    5        0.754   0.930   0.000   1.684
    6        0.754   0.931   0.000   1.685
    7        0.754   0.929   0.000   1.683
    8        0.751   0.940   0.000   1.691
    9        0.756   0.945   0.000   1.700
   10        0.751   0.943   0.000   1.694
   11        0.755   0.947   0.000   1.703
   12        0.752   0.942   0.000   1.694
   13        0.752   0.942   0.000   1.694
   14        0.751   0.942   0.000   1.693
   15        0.755   0.934   0.000   1.690
   16        0.751   0.942   0.000   1.693
   17        0.751   0.942   0.000   1.693
   18        0.754   0.943   0.000   1.697
   19        0.754   0.945   0.000   1.699
   20        0.751   0.941   0.000   1.692
   21        0.754   0.933   0.000   1.687
   22        0.751   0.942   0.000   1.693
   23        0.751   0.942   0.000   1.693
   24        0.751   0.941   0.000   1.692
   25        0.751   0.942   0.000   1.693
   26        0.751   0.941   0.000   1.692
   27        0.751   0.942   0.000   1.693
   28        0.752   0.941   0.000   1.693
   29        0.752   0.941   0.000   1.693
   30        0.751   0.943   0.000   1.694
   31        0.808   0.920   0.000   1.727
   32        0.751   0.943   0.000   1.694
   33        0.752   0.942   0.000   1.694
   34        0.752   0.942   0.000   1.694
   35        0.752   0.942   0.000   1.694
   36        0.751   0.942   0.000   1.693
   37        0.791   0.826   0.000   1.617
   38        0.751   0.942   0.000   1.693
   39        0.789   0.810   0.000   1.599
   40        0.789   0.810   0.000   1.599
   41        0.760   0.907   0.000   1.667
   42        0.751   0.940   0.000   1.692
   43        0.759   0.924   0.000   1.683
   44        0.759   0.923   0.000   1.681
   45        0.751   0.941   0.000   1.693
   46        0.751   0.942   0.000   1.693
   47        0.751   0.941   0.000   1.692
   48        0.752   0.940   0.000   1.691
   49        0.760   0.937   0.000   1.697
   50        0.760   0.938   0.000   1.698
   51        0.751   0.941   0.000   1.692
   52        0.761   0.929   0.000   1.689
   53        0.751   0.941   0.000   1.692
--------------------------------------------------
tot         40.080  49.308   0.000  89.388
 

 total amount of memory used by VASP MPI-rank0   122888. kBytes
=======================================================================

   base      :      30000. kBytes
   nonl-proj :      43150. kBytes
   fftplans  :       5382. kBytes
   grid      :      19496. kBytes
   one-center:        162. kBytes
   wavefun   :      24698. kBytes
 
  
  
 General timing and accounting informations for this job:
 ========================================================
  
                  Total CPU time used (sec):       98.981
                            User time (sec):       92.270
                          System time (sec):        6.710
                         Elapsed time (sec):      102.197
  
                   Maximum memory used (kb):      360308.
                   Average memory used (kb):           0.
  
                          Minor page faults:        41358
                          Major page faults:            0
                 Voluntary context switches:         4278
