 vasp.6.3.0 20Jan22 (build Mar 07 2022 09:35:52) complex                        
  
 executed on             LinuxIFC date 2025.06.26  16:12:42
 running on   96 total cores
 distrk:  each k-point on   96 cores,    1 groups
 distr:  one band on NCORE=   1 cores,   96 groups


--------------------------------------------------------------------------------------------------------


 INCAR:
   ALGO = Normal
   AMIX = 0.2
   EDIFF = 1e-06
   EDIFFG = -0.05
   ENCUT = 550.0
   IBRION = 2
   ISIF = 2
   ISMEAR = 0
   ISPIN = 1
   ISYM = 2
   LCHARG = True
   LORBIT = 11
   LREAL = False
   LVTOT = True
   LWAVE = True
   NELECT = 376.0
   NELM = 200
   NSW = 0
   SIGMA = 0.05
   SYSTEM = SiO2

 POTCAR:    PAW_PBE Si 05Jan2001                  
 POTCAR:    PAW_PBE O 08Apr2002                   
 WARNING: For LVTOT=.TRUE., VASP.5.x writes the TOTAL local potential to the
     file LOCPOT. If you want only the Hartree contributions, use LVHAR=.TRUE.
     instead. 

 -----------------------------------------------------------------------------
|                                                                             |
|           W    W    AA    RRRRR   N    N  II  N    N   GGGG   !!!           |
|           W    W   A  A   R    R  NN   N  II  NN   N  G    G  !!!           |
|           W    W  A    A  R    R  N N  N  II  N N  N  G       !!!           |
|           W WW W  AAAAAA  RRRRR   N  N N  II  N  N N  G  GGG   !            |
|           WW  WW  A    A  R   R   N   NN  II  N   NN  G    G                |
|           W    W  A    A  R    R  N    N  II  N    N   GGGG   !!!           |
|                                                                             |
|     For optimal performance we recommend to set                             |
|       NCORE = 2 up to number-of-cores-per-socket                            |
|     NCORE specifies how many cores store one orbital (NPAR=cpu/NCORE).      |
|     This setting can greatly improve the performance of VASP for DFT.       |
|     The default, NCORE=1 might be grossly inefficient on modern             |
|     multi-core architectures or massively parallel machines. Do your        |
|     own testing! More info at https://www.vasp.at/wiki/index.php/NCORE      |
|     Unfortunately you need to use the default for GW and RPA                |
|     calculations (for HF NCORE is supported but not extensively tested      |
|     yet).                                                                   |
|                                                                             |
 -----------------------------------------------------------------------------

 POTCAR:    PAW_PBE Si 05Jan2001                  
   VRHFIN =Si: s2p2                                                                                 
   LEXCH  = PE                                                                                      
   EATOM  =   103.0669 eV,    7.5752 Ry                                                             
                                                                                                    
   TITEL  = PAW_PBE Si 05Jan2001                                                                    
   LULTRA =        F    use ultrasoft PP ?                                                          
   IUNSCR =        1    unscreen: 0-lin 1-nonlin 2-no                                               
   RPACOR =    1.500    partial core radius                                                         
   POMASS =   28.085; ZVAL   =    4.000    mass and valenz                                          
   RCORE  =    1.900    outmost cutoff radius                                                       
   RWIGS  =    2.480; RWIGS  =    1.312    wigner-seitz radius (au A)                               
   ENMAX  =  245.345; ENMIN  =  184.009 eV                                                          
   ICORE  =        2    local potential                                                             
   LCOR   =        T    correct aug charges                                                         
   LPAW   =        T    paw PP                                                                      
   EAUG   =  322.069                                                                                
   DEXC   =    0.000                                                                                
   RMAX   =    1.950    core radius for proj-oper                                                   
   RAUG   =    1.300    factor for augmentation sphere                                              
   RDEP   =    1.993    radius for radial grids                                                     
   RDEPT  =    1.837    core radius for aug-charge                                                  
                                                                                                    
   Atomic configuration                                                                             
    6 entries                                                                                       
     n  l   j            E        occ.                                                              
     1  0  0.50     -1785.8828   2.0000                                                             
     2  0  0.50      -139.4969   2.0000                                                             
     2  1  1.50       -95.5546   6.0000                                                             
     3  0  0.50       -10.8127   2.0000                                                             
     3  1  0.50        -4.0811   2.0000                                                             
     3  2  1.50        -4.0817   0.0000                                                             
   Description                                                                                      
     l       E           TYP  RCUT    TYP  RCUT                                                     
     0    -10.8127223     23  1.900                                                                 
     0     -7.6451159     23  1.900                                                                 
     1     -4.0811372     23  1.900                                                                 
     1      2.4879257     23  1.900                                                                 
     2     -4.0817478      7  1.900                                                                 
  local pseudopotential read in
  partial core-charges read in
  partial kinetic energy density read in
  atomic valenz-charges read in
  non local Contribution for L=           0  read in
    real space projection operators read in
  non local Contribution for L=           0  read in
    real space projection operators read in
  non local Contribution for L=           1  read in
    real space projection operators read in
  non local Contribution for L=           1  read in
    real space projection operators read in
    PAW grid and wavefunctions read in
 
   number of l-projection  operators is LMAX  =           4
   number of lm-projection operators is LMMAX =           8
 
 POTCAR:    PAW_PBE O 08Apr2002                   
   VRHFIN =O: s2p4                                                                                  
   LEXCH  = PE                                                                                      
   EATOM  =   432.3788 eV,   31.7789 Ry                                                             
                                                                                                    
   TITEL  = PAW_PBE O 08Apr2002                                                                     
   LULTRA =        F    use ultrasoft PP ?                                                          
   IUNSCR =        1    unscreen: 0-lin 1-nonlin 2-no                                               
   RPACOR =    1.200    partial core radius                                                         
   POMASS =   16.000; ZVAL   =    6.000    mass and valenz                                          
   RCORE  =    1.520    outmost cutoff radius                                                       
   RWIGS  =    1.550; RWIGS  =    0.820    wigner-seitz radius (au A)                               
   ENMAX  =  400.000; ENMIN  =  300.000 eV                                                          
   ICORE  =        2    local potential                                                             
   LCOR   =        T    correct aug charges                                                         
   LPAW   =        T    paw PP                                                                      
   EAUG   =  605.392                                                                                
   DEXC   =    0.000                                                                                
   RMAX   =    1.553    core radius for proj-oper                                                   
   RAUG   =    1.300    factor for augmentation sphere                                              
   RDEP   =    1.550    radius for radial grids                                                     
   RDEPT  =    1.329    core radius for aug-charge                                                  
                                                                                                    
   Atomic configuration                                                                             
    4 entries                                                                                       
     n  l   j            E        occ.                                                              
     1  0  0.50      -514.6923   2.0000                                                             
     2  0  0.50       -23.9615   2.0000                                                             
     2  1  0.50        -9.0305   4.0000                                                             
     3  2  1.50        -9.5241   0.0000                                                             
   Description                                                                                      
     l       E           TYP  RCUT    TYP  RCUT                                                     
     0    -23.9615318     23  1.200                                                                 
     0     -9.5240782     23  1.200                                                                 
     1     -9.0304911     23  1.520                                                                 
     1      8.1634956     23  1.520                                                                 
     2     -9.5240782      7  1.500                                                                 
  local pseudopotential read in
  partial core-charges read in
  partial kinetic energy density read in
  kinetic energy density of atom read in
  atomic valenz-charges read in
  non local Contribution for L=           0  read in
    real space projection operators read in
  non local Contribution for L=           0  read in
    real space projection operators read in
  non local Contribution for L=           1  read in
    real space projection operators read in
  non local Contribution for L=           1  read in
    real space projection operators read in
    PAW grid and wavefunctions read in
 
   number of l-projection  operators is LMAX  =           4
   number of lm-projection operators is LMMAX =           8
 
 -----------------------------------------------------------------------------
|                                                                             |
|               ----> ADVICE to this user running VASP <----                  |
|                                                                             |
|     You have a (more or less) 'large supercell' and for larger cells it     |
|     might be more efficient to use real-space projection operators.         |
|     Therefore, try LREAL= Auto in the INCAR file.                           |
|     Mind: For very accurate calculation, you might also keep the            |
|     reciprocal projection scheme (i.e. LREAL=.FALSE.).                      |
|                                                                             |
 -----------------------------------------------------------------------------

  PAW_PBE Si 05Jan2001                  :
 energy of atom  1       EATOM= -103.0669
 kinetic energy error for atom=    0.0004 (will be added to EATOM!!)
  PAW_PBE O 08Apr2002                   :
 energy of atom  2       EATOM= -432.3788
 kinetic energy error for atom=    0.0194 (will be added to EATOM!!)
 
 
 POSCAR: Si23 O47
  positions in direct lattice
  No initial velocities read in
 exchange correlation table for  LEXCH =        8
   RHO(1)=    0.500       N(1)  =     2000
   RHO(2)=  100.500       N(2)  =     4000

 VTST: version 4.2, (08/11/21)

 CHAIN: initializing optimizer
 
 OPT: Using VASP Conjugate-Gradient optimizer
 CHAIN: Read ICHAIN            0
 
 POSCAR: Si23 O47
  positions in direct lattice
  No initial velocities read in
 


--------------------------------------------------------------------------------------------------------


 ion  position               nearest neighbor table
   1  0.266  0.266  0.000-  64 1.61  31 1.61  47 1.62  18 3.06  13 3.06   9 3.06  16 3.06
   2  0.266  0.766  0.000-  66 1.61  33 1.61  49 1.62  26 1.62  15 3.06  16 3.06  11 3.06  18 3.06

   3  0.266  0.766  0.500-  65 1.61  34 1.61  50 1.62  25 1.62  14 3.06  17 3.06  10 3.06  19 3.06

   4  0.766  0.266  0.000-  68 1.61  35 1.61  51 1.62  28 1.62   9 3.06  22 3.06  20 3.06  13 3.06

   5  0.766  0.266  0.500-  67 1.61  36 1.61  52 1.62  27 1.62   8 3.06  23 3.06  21 3.06  12 3.06

   6  0.766  0.766  0.000-  70 1.61  37 1.61  53 1.62  30 1.62  11 3.06  20 3.06  15 3.06  22 3.06

   7  0.766  0.766  0.500-  69 1.61  38 1.61  54 1.62  29 1.62  10 3.06  21 3.06  14 3.06  23 3.06

   8  0.000  0.234  0.333-  24 1.61  59 1.61  39 1.62  67 1.62   5 3.06  18 3.06  20 3.06
   9  0.000  0.234  0.833-  60 1.61  40 1.62  68 1.62   4 3.06   1 3.06  21 3.06  19 3.06
  10  0.000  0.734  0.333-  25 1.61  61 1.61  41 1.62  69 1.62   7 3.06   3 3.06  16 3.06  22 3.06

  11  0.000  0.734  0.833-  26 1.61  62 1.61  42 1.62  70 1.62   6 3.06   2 3.06  17 3.06  23 3.06

  12  0.500  0.234  0.333-  27 1.61  55 1.61  43 1.62  63 1.62   5 3.06  16 3.06  22 3.06
  13  0.500  0.234  0.833-  28 1.61  56 1.61  44 1.62  64 1.62   1 3.06   4 3.06  17 3.06  23 3.06

  14  0.500  0.734  0.333-  29 1.61  57 1.61  45 1.62  65 1.62   3 3.06   7 3.06  18 3.06  20 3.06

  15  0.500  0.734  0.833-  30 1.61  58 1.61  46 1.62  66 1.62   2 3.06   6 3.06  19 3.06  21 3.06

  16  0.234  0.000  0.167-  47 1.61  41 1.61  33 1.62  55 1.62   2 3.06   1 3.06  10 3.06  12 3.06

  17  0.234  0.000  0.667-  48 1.61  42 1.61  34 1.62  56 1.62   3 3.06  11 3.06  13 3.06
  18  0.234  0.500  0.167-  49 1.61  39 1.61  31 1.62  57 1.62   1 3.06   2 3.06   8 3.06  14 3.06

  19  0.234  0.500  0.667-  50 1.61  40 1.61  32 1.62  58 1.62   3 3.06   9 3.06  15 3.06
  20  0.734  0.000  0.167-  51 1.61  45 1.61  37 1.62  59 1.62   6 3.06   4 3.06   8 3.06  14 3.06

  21  0.734  0.000  0.667-  52 1.61  46 1.61  38 1.62  60 1.62   7 3.06   5 3.06   9 3.06  15 3.06

  22  0.734  0.500  0.167-  53 1.61  43 1.61  35 1.62  61 1.62   4 3.06   6 3.06  10 3.06  12 3.06

  23  0.734  0.500  0.667-  54 1.61  44 1.61  36 1.62  62 1.62   5 3.06   7 3.06  11 3.06  13 3.06

  24  0.135  0.207  0.392-   8 1.61
  25  0.135  0.707  0.392-  10 1.61   3 1.62
  26  0.135  0.707  0.892-  11 1.61   2 1.62
  27  0.635  0.207  0.392-  12 1.61   5 1.62
  28  0.635  0.207  0.892-  13 1.61   4 1.62
  29  0.635  0.707  0.392-  14 1.61   7 1.62
  30  0.635  0.707  0.892-  15 1.61   6 1.62
  31  0.293  0.428  0.059-   1 1.61  18 1.62
  32  0.293  0.428  0.559-  19 1.62
  33  0.293  0.928  0.059-   2 1.61  16 1.62
  34  0.293  0.928  0.559-   3 1.61  17 1.62
  35  0.793  0.428  0.059-   4 1.61  22 1.62
  36  0.793  0.428  0.559-   5 1.61  23 1.62
  37  0.793  0.928  0.059-   6 1.61  20 1.62
  38  0.793  0.928  0.559-   7 1.61  21 1.62
  39  0.072  0.365  0.226-  18 1.61   8 1.62
  40  0.072  0.365  0.726-  19 1.61   9 1.62
  41  0.072  0.865  0.226-  16 1.61  10 1.62
  42  0.072  0.865  0.726-  17 1.61  11 1.62
  43  0.572  0.365  0.226-  22 1.61  12 1.62
  44  0.572  0.365  0.726-  23 1.61  13 1.62
  45  0.572  0.865  0.226-  20 1.61  14 1.62
  46  0.572  0.865  0.726-  21 1.61  15 1.62
  47  0.207  0.135  0.108-  16 1.61   1 1.62
  48  0.207  0.135  0.608-  17 1.61
  49  0.207  0.635  0.108-  18 1.61   2 1.62
  50  0.207  0.635  0.608-  19 1.61   3 1.62
  51  0.707  0.135  0.108-  20 1.61   4 1.62
  52  0.707  0.135  0.608-  21 1.61   5 1.62
  53  0.707  0.635  0.108-  22 1.61   6 1.62
  54  0.707  0.635  0.608-  23 1.61   7 1.62
  55  0.365  0.072  0.274-  12 1.61  16 1.62
  56  0.365  0.072  0.774-  13 1.61  17 1.62
  57  0.365  0.572  0.274-  14 1.61  18 1.62
  58  0.365  0.572  0.774-  15 1.61  19 1.62
  59  0.865  0.072  0.274-   8 1.61  20 1.62
  60  0.865  0.072  0.774-   9 1.61  21 1.62
  61  0.865  0.572  0.274-  10 1.61  22 1.62
  62  0.865  0.572  0.774-  11 1.61  23 1.62
  63  0.428  0.293  0.441-  12 1.62
  64  0.428  0.293  0.941-   1 1.61  13 1.62
  65  0.428  0.793  0.441-   3 1.61  14 1.62
  66  0.428  0.793  0.941-   2 1.61  15 1.62
  67  0.928  0.293  0.441-   5 1.61   8 1.62
  68  0.928  0.293  0.941-   4 1.61   9 1.62
  69  0.928  0.793  0.441-   7 1.61  10 1.62
  70  0.928  0.793  0.941-   6 1.61  11 1.62
 
  LATTYP: Found a hexagonal cell.
 ALAT       =     9.8299323535
 C/A-ratio  =     1.1050536148
  
  Lattice vectors:
  
 A1 = (   4.9149661767,  -8.5129711356,   0.0000000000)
 A2 = (   4.9149661767,   8.5129711356,   0.0000000000)
 A3 = (   0.0000000000,   0.0000000000,  10.8626022800)


Analysis of symmetry for initial positions (statically):
=====================================================================
 Subroutine PRICEL returns:
 Original cell was already a primitive cell.
 

 Routine SETGRP: Setting up the symmetry group for a 
 hexagonal supercell.


 Subroutine GETGRP returns: Found  1 space group operations
 (whereof  1 operations were pure point group operations)
 out of a pool of 24 trial point group operations.


The static configuration has the point symmetry C_1 .


Analysis of symmetry for dynamics (positions and initial velocities):
=====================================================================
 Subroutine PRICEL returns:
 Original cell was already a primitive cell.
 

 Routine SETGRP: Setting up the symmetry group for a 
 hexagonal supercell.


 Subroutine GETGRP returns: Found  1 space group operations
 (whereof  1 operations were pure point group operations)
 out of a pool of 24 trial point group operations.


The dynamic configuration has the point symmetry C_1 .


 Subroutine INISYM returns: Found  1 space group operations
 (whereof  1 operations are pure point group operations),
 and found     1 'primitive' translations


----------------------------------------------------------------------------------------

                                     Primitive cell                                     

  volume of cell :     909.0035

  direct lattice vectors                    reciprocal lattice vectors
     4.914966177 -8.512971136  0.000000000     0.101730100 -0.058733901  0.000000000
     4.914966177  8.512971136  0.000000000     0.101730100  0.058733901  0.000000000
     0.000000000  0.000000000 10.862602280     0.000000000  0.000000000  0.092058972

  length of vectors
     9.829932353  9.829932353 10.862602280     0.117467801  0.117467801  0.092058972

  position of ions in fractional coordinates (direct lattice)
     0.265544295  0.265544295  0.000000000
     0.265544295  0.765544295  0.000000000
     0.265544295  0.765544295  0.500000000
     0.765544295  0.265544295  0.000000000
     0.765544295  0.265544295  0.500000000
     0.765544295  0.765544295  0.000000000
     0.765544295  0.765544295  0.500000000
     1.000000000  0.234455705  0.333333333
     1.000000000  0.234455705  0.833333333
     1.000000000  0.734455705  0.333333333
     1.000000000  0.734455705  0.833333333
     0.500000000  0.234455705  0.333333333
     0.500000000  0.234455705  0.833333333
     0.500000000  0.734455705  0.333333333
     0.500000000  0.734455705  0.833333333
     0.234455705  1.000000000  0.166666667
     0.234455705  1.000000000  0.666666667
     0.234455705  0.500000000  0.166666667
     0.234455705  0.500000000  0.666666667
     0.734455705  1.000000000  0.166666667
     0.734455705  1.000000000  0.666666667
     0.734455705  0.500000000  0.166666667
     0.734455705  0.500000000  0.666666667
     0.134611555  0.206697145  0.392445490
     0.134611555  0.706697145  0.392445490
     0.134611555  0.706697145  0.892445490
     0.634611555  0.206697145  0.392445490
     0.634611555  0.206697145  0.892445490
     0.634611555  0.706697145  0.392445490
     0.634611555  0.706697145  0.892445490
     0.293302855  0.427914410  0.059112157
     0.293302855  0.427914410  0.559112157
     0.293302855  0.927914410  0.059112157
     0.293302855  0.927914410  0.559112157
     0.793302855  0.427914410  0.059112157
     0.793302855  0.427914410  0.559112157
     0.793302855  0.927914410  0.059112157
     0.793302855  0.927914410  0.559112157
     0.072085590  0.365388445  0.225778823
     0.072085590  0.365388445  0.725778823
     0.072085590  0.865388445  0.225778823
     0.072085590  0.865388445  0.725778823
     0.572085590  0.365388445  0.225778823
     0.572085590  0.365388445  0.725778823
     0.572085590  0.865388445  0.225778823
     0.572085590  0.865388445  0.725778823
     0.206697145  0.134611555  0.107554510
     0.206697145  0.134611555  0.607554510
     0.206697145  0.634611555  0.107554510
     0.206697145  0.634611555  0.607554510
     0.706697145  0.134611555  0.107554510
     0.706697145  0.134611555  0.607554510
     0.706697145  0.634611555  0.107554510
     0.706697145  0.634611555  0.607554510
     0.365388445  0.072085590  0.274221177
     0.365388445  0.072085590  0.774221177
     0.365388445  0.572085590  0.274221177
     0.365388445  0.572085590  0.774221177
     0.865388445  0.072085590  0.274221177
     0.865388445  0.072085590  0.774221177
     0.865388445  0.572085590  0.274221177
     0.865388445  0.572085590  0.774221177
     0.427914410  0.293302855  0.440887843
     0.427914410  0.293302855  0.940887843
     0.427914410  0.793302855  0.440887843
     0.427914410  0.793302855  0.940887843
     0.927914410  0.293302855  0.440887843
     0.927914410  0.293302855  0.940887843
     0.927914410  0.793302855  0.440887843
     0.927914410  0.793302855  0.940887843

  ion indices of the primitive-cell ions
   primitive index   ion index
                 1           1
                 2           2
                 3           3
                 4           4
                 5           5
                 6           6
                 7           7
                 8           8
                 9           9
                10          10
                11          11
                12          12
                13          13
                14          14
                15          15
                16          16
                17          17
                18          18
                19          19
                20          20
                21          21
                22          22
                23          23
                24          24
                25          25
                26          26
                27          27
                28          28
                29          29
                30          30
                31          31
                32          32
                33          33
                34          34
                35          35
                36          36
                37          37
                38          38
                39          39
                40          40
                41          41
                42          42
                43          43
                44          44
                45          45
                46          46
                47          47
                48          48
                49          49
                50          50
                51          51
                52          52
                53          53
                54          54
                55          55
                56          56
                57          57
                58          58
                59          59
                60          60
                61          61
                62          62
                63          63
                64          64
                65          65
                66          66
                67          67
                68          68
                69          69
                70          70

----------------------------------------------------------------------------------------

 
 
 KPOINTS: pymatgen with grid density = 1000 / numb

Automatic generation of k-mesh.
 Grid dimensions read from file:
 generate k-points for:    4    4    2

 Generating k-lattice:

  Cartesian coordinates                     Fractional coordinates (reciprocal lattice)
     0.025432525 -0.014683475  0.000000000     0.250000000 -0.000000000  0.000000000
     0.025432525  0.014683475  0.000000000    -0.000000000  0.250000000  0.000000000
     0.000000000  0.000000000  0.046029486     0.000000000  0.000000000  0.500000000

  Length of vectors
     0.029366950  0.029366950  0.046029486

  Shift w.r.t. Gamma in fractional coordinates (k-lattice)
     0.000000000  0.000000000  0.000000000

 
 Subroutine IBZKPT returns following result:
 ===========================================
 
 Found     20 irreducible k-points:
 
 Following reciprocal coordinates:
            Coordinates               Weight
  0.000000  0.000000  0.000000      1.000000
  0.250000  0.000000  0.000000      2.000000
  0.000000  0.250000  0.000000      2.000000
 -0.250000  0.250000  0.000000      2.000000
  0.500000  0.000000  0.000000      1.000000
  0.000000  0.500000  0.000000      1.000000
  0.500000  0.500000  0.000000      1.000000
  0.250000  0.250000  0.000000      2.000000
 -0.250000  0.500000  0.000000      2.000000
  0.500000  0.250000  0.000000      2.000000
  0.000000  0.000000  0.500000      1.000000
  0.250000  0.000000  0.500000      2.000000
  0.000000  0.250000  0.500000      2.000000
 -0.250000  0.250000  0.500000      2.000000
  0.500000  0.000000  0.500000      1.000000
  0.000000  0.500000  0.500000      1.000000
  0.500000  0.500000  0.500000      1.000000
  0.250000  0.250000  0.500000      2.000000
 -0.250000  0.500000  0.500000      2.000000
  0.500000  0.250000  0.500000      2.000000
 
 Following cartesian coordinates:
            Coordinates               Weight
  0.000000  0.000000  0.000000      1.000000
  0.025433 -0.014683  0.000000      2.000000
  0.025433  0.014683  0.000000      2.000000
  0.000000  0.029367  0.000000      2.000000
  0.050865 -0.029367  0.000000      1.000000
  0.050865  0.029367  0.000000      1.000000
  0.101730  0.000000  0.000000      1.000000
  0.050865  0.000000  0.000000      2.000000
  0.025433  0.044050  0.000000      2.000000
  0.076298 -0.014683  0.000000      2.000000
  0.000000  0.000000  0.046029      1.000000
  0.025433 -0.014683  0.046029      2.000000
  0.025433  0.014683  0.046029      2.000000
  0.000000  0.029367  0.046029      2.000000
  0.050865 -0.029367  0.046029      1.000000
  0.050865  0.029367  0.046029      1.000000
  0.101730  0.000000  0.046029      1.000000
  0.050865  0.000000  0.046029      2.000000
  0.025433  0.044050  0.046029      2.000000
  0.076298 -0.014683  0.046029      2.000000
 


--------------------------------------------------------------------------------------------------------




 Dimension of arrays:
   k-points           NKPTS =     20   k-points in BZ     NKDIM =     20   number of bands    NBANDS=    288
   number of dos      NEDOS =    301   number of ions     NIONS =     70
   non local maximal  LDIM  =      4   non local SUM 2l+1 LMDIM =      8
   total plane-waves  NPLWV = 200704
   max r-space proj   IRMAX =      1   max aug-charges    IRDMAX=   7581
   dimension x,y,z NGX =    56 NGY =   56 NGZ =   64
   dimension x,y,z NGXF=   112 NGYF=  112 NGZF=  128
   support grid    NGXF=   112 NGYF=  112 NGZF=  128
   ions per type =              23  47
   NGX,Y,Z   is equivalent  to a cutoff of   9.47,  9.47,  9.79 a.u.
   NGXF,Y,Z  is equivalent  to a cutoff of  18.94, 18.94, 19.59 a.u.

 SYSTEM =  SiO2                                    
 POSCAR =  Si23 O47                                

 Startparameter for this run:
   NWRITE =      2    write-flag & timer
   PREC   = normal    normal or accurate (medium, high low for compatibility)
   ISTART =      0    job   : 0-new  1-cont  2-samecut
   ICHARG =      2    charge: 1-file 2-atom 10-const
   ISPIN  =      1    spin polarized calculation?
   LNONCOLLINEAR =      F non collinear calculations
   LSORBIT =      F    spin-orbit coupling
   INIWAV =      1    electr: 0-lowe 1-rand  2-diag
   LASPH  =      F    aspherical Exc in radial PAW
 Electronic Relaxation 1
   ENCUT  =  550.0 eV  40.42 Ry    6.36 a.u.  18.80 18.80 20.77*2*pi/ulx,y,z
   ENINI  =  550.0     initial cutoff
   ENAUG  =  605.4 eV  augmentation charge cutoff
   NELM   =    200;   NELMIN=  2; NELMDL= -5     # of ELM steps 
   EDIFF  = 0.1E-05   stopping-criterion for ELM
   LREAL  =      F    real-space projection
   NLSPLINE    = F    spline interpolate recip. space projectors
   LCOMPAT=      F    compatible to vasp.4.4
   GGA_COMPAT  = T    GGA compatible to vasp.4.4-vasp.4.6
   LMAXPAW     = -100 max onsite density
   LMAXMIX     =    2 max onsite mixed and CHGCAR
   VOSKOWN=      0    Vosko Wilk Nusair interpolation
   ROPT   =    0.00000   0.00000
 Ionic relaxation
   EDIFFG = -.5E-01   stopping-criterion for IOM
   NSW    =      0    number of steps for IOM
   NBLOCK =      1;   KBLOCK =      1    inner block; outer block 
   IBRION =     -1    ionic relax: 0-MD 1-quasi-New 2-CG
   NFREE  =      1    steps in history (QN), initial steepest desc. (CG)
   ISIF   =      2    stress and relaxation
   IWAVPR =     10    prediction:  0-non 1-charg 2-wave 3-comb
   ISYM   =      2    0-nonsym 1-usesym 2-fastsym
   LCORR  =      T    Harris-Foulkes like correction to forces

   POTIM  = 0.5000    time-step for ionic-motion
   TEIN   =    0.0    initial temperature
   TEBEG  =    0.0;   TEEND  =   0.0 temperature during run
   SMASS  =  -3.00    Nose mass-parameter (am)
   estimated Nose-frequenzy (Omega)   =  0.10E-29 period in steps = 0.13E+47 mass=  -0.221E-26a.u.
   SCALEE = 1.0000    scale energy and forces
   NPACO  =    256;   APACO  = 10.0  distance and # of slots for P.C.
   PSTRESS=    0.0 pullay stress

  Mass of Ions in am
   POMASS =  28.09 16.00
  Ionic Valenz
   ZVAL   =   4.00  6.00
  Atomic Wigner-Seitz radii
   RWIGS  =  -1.00 -1.00
  virtual crystal weights 
   VCA    =   1.00  1.00
   NELECT =     376.0000    total number of electrons
   NUPDOWN=      -1.0000    fix difference up-down

 DOS related values:
   EMIN   =  10.00;   EMAX   =-10.00  energy-range for DOS
   EFERMI =   0.00
   ISMEAR =     0;   SIGMA  =   0.05  broadening in eV -4-tet -1-fermi 0-gaus

 Electronic relaxation 2 (details)
   IALGO  =     38    algorithm
   LDIAG  =      T    sub-space diagonalisation (order eigenvalues)
   LSUBROT=      F    optimize rotation matrix (better conditioning)
   TURBO    =      0    0=normal 1=particle mesh
   IRESTART =      0    0=no restart 2=restart with 2 vectors
   NREBOOT  =      0    no. of reboots
   NMIN     =      0    reboot dimension
   EREF     =   0.00    reference energy to select bands
   IMIX   =      4    mixing-type and parameters
     AMIX     =   0.20;   BMIX     =  1.00
     AMIX_MAG =   0.80;   BMIX_MAG =  1.00
     AMIN     =   0.10
     WC   =   100.;   INIMIX=   1;  MIXPRE=   1;  MAXMIX= -45

 Intra band minimization:
   WEIMIN = 0.0000     energy-eigenvalue tresh-hold
   EBREAK =  0.87E-09  absolut break condition
   DEPER  =   0.30     relativ break condition  

   TIME   =   0.40     timestep for ELM

  volume/ion in A,a.u.               =      12.99        87.63
  Fermi-wavevector in a.u.,A,eV,Ry     =   1.219782  2.305054 20.243678  1.487868
  Thomas-Fermi vector in A             =   2.355022
 
 Write flags
   LWAVE        =      T    write WAVECAR
   LDOWNSAMPLE  =      F    k-point downsampling of WAVECAR
   LCHARG       =      T    write CHGCAR
   LVTOT        =      T    write LOCPOT, total local potential
   LVHAR        =      F    write LOCPOT, Hartree potential only
   LELF         =      F    write electronic localiz. function (ELF)
   LORBIT       =     11    0 simple, 1 ext, 2 COOP (PROOUT), +10 PAW based schemes


 Dipole corrections
   LMONO  =      F    monopole corrections only (constant potential shift)
   LDIPOL =      F    correct potential (dipole corrections)
   IDIPOL =      0    1-x, 2-y, 3-z, 4-all directions 
   EPSILON=  1.0000000 bulk dielectric constant

 Exchange correlation treatment:
   GGA     =    --    GGA type
   LEXCH   =     8    internal setting for exchange type
   LIBXC   =     F    Libxc                    
   VOSKOWN =     0    Vosko Wilk Nusair interpolation
   LHFCALC =     F    Hartree Fock is set to
   LHFONE  =     F    Hartree Fock one center treatment
   AEXX    =    0.0000 exact exchange contribution

 Linear response parameters
   LEPSILON=     F    determine dielectric tensor
   LRPA    =     F    only Hartree local field effects (RPA)
   LNABLA  =     F    use nabla operator in PAW spheres
   LVEL    =     F    velocity operator in full k-point grid
   CSHIFT  =0.1000    complex shift for real part using Kramers Kronig
   OMEGAMAX=  -1.0    maximum frequency
   DEG_THRESHOLD= 0.2000000E-02 threshold for treating states as degnerate
   RTIME   =   -0.100 relaxation time in fs
  (WPLASMAI=    0.000 imaginary part of plasma frequency in eV, 0.658/RTIME)
   DFIELD  = 0.0000000 0.0000000 0.0000000 field for delta impulse in time
 
  Optional k-point grid parameters
   LKPOINTS_OPT  =     F    use optional k-point grid
   KPOINTS_OPT_MODE=     1    mode for optional k-point grid
 
 Orbital magnetization related:
   ORBITALMAG=     F  switch on orbital magnetization
   LCHIMAG   =     F  perturbation theory with respect to B field
   DQ        =  0.001000  dq finite difference perturbation B field
   LLRAUG    =     F  two centre corrections for induced B field



--------------------------------------------------------------------------------------------------------


 Static calculation
 charge density and potential will be updated during run
 non-spin polarized calculation
 Variant of blocked Davidson
 Davidson routine will perform the subspace rotation
 perform sub-space diagonalisation
    after iterative eigenvector-optimisation
 modified Broyden-mixing scheme, WC =      100.0
 initial mixing is a Kerker type mixing with AMIX =  0.2000 and BMIX =      1.0000
 Hartree-type preconditioning will be used
 using additional bands          100
 reciprocal scheme for non local part
 use partial core corrections
 calculate Harris-corrections to forces 
   (improved forces if not selfconsistent)
 use gradient corrections 
 use of overlap-Matrix (Vanderbilt PP)
 Gauss-broadening in eV      SIGMA  =   0.05


--------------------------------------------------------------------------------------------------------


  energy-cutoff  :      550.00
  volume of cell :      909.00
      direct lattice vectors                 reciprocal lattice vectors
     4.914966177 -8.512971136  0.000000000     0.101730100 -0.058733901  0.000000000
     4.914966177  8.512971136  0.000000000     0.101730100  0.058733901  0.000000000
     0.000000000  0.000000000 10.862602280     0.000000000  0.000000000  0.092058972

  length of vectors
     9.829932353  9.829932353 10.862602280     0.117467801  0.117467801  0.092058972


 
 k-points in units of 2pi/SCALE and weight: pymatgen with grid density = 1000 / numb
   0.00000000  0.00000000  0.00000000       0.031
   0.02543252 -0.01468348  0.00000000       0.062
   0.02543252  0.01468348  0.00000000       0.062
  -0.00000000  0.02936695  0.00000000       0.062
   0.05086505 -0.02936695  0.00000000       0.031
   0.05086505  0.02936695  0.00000000       0.031
   0.10173010  0.00000000  0.00000000       0.031
   0.05086505  0.00000000  0.00000000       0.062
   0.02543252  0.04405043  0.00000000       0.062
   0.07629757 -0.01468348  0.00000000       0.062
   0.00000000  0.00000000  0.04602949       0.031
   0.02543252 -0.01468348  0.04602949       0.062
   0.02543252  0.01468348  0.04602949       0.062
  -0.00000000  0.02936695  0.04602949       0.062
   0.05086505 -0.02936695  0.04602949       0.031
   0.05086505  0.02936695  0.04602949       0.031
   0.10173010  0.00000000  0.04602949       0.031
   0.05086505  0.00000000  0.04602949       0.062
   0.02543252  0.04405043  0.04602949       0.062
   0.07629757 -0.01468348  0.04602949       0.062
 
 k-points in reciprocal lattice and weights: pymatgen with grid density = 1000 / numb
   0.00000000  0.00000000  0.00000000       0.031
   0.25000000  0.00000000  0.00000000       0.062
   0.00000000  0.25000000  0.00000000       0.062
  -0.25000000  0.25000000  0.00000000       0.062
   0.50000000  0.00000000  0.00000000       0.031
   0.00000000  0.50000000  0.00000000       0.031
   0.50000000  0.50000000  0.00000000       0.031
   0.25000000  0.25000000  0.00000000       0.062
  -0.25000000  0.50000000  0.00000000       0.062
   0.50000000  0.25000000  0.00000000       0.062
   0.00000000  0.00000000  0.50000000       0.031
   0.25000000  0.00000000  0.50000000       0.062
   0.00000000  0.25000000  0.50000000       0.062
  -0.25000000  0.25000000  0.50000000       0.062
   0.50000000  0.00000000  0.50000000       0.031
   0.00000000  0.50000000  0.50000000       0.031
   0.50000000  0.50000000  0.50000000       0.031
   0.25000000  0.25000000  0.50000000       0.062
  -0.25000000  0.50000000  0.50000000       0.062
   0.50000000  0.25000000  0.50000000       0.062
 
 position of ions in fractional coordinates (direct lattice) 
   0.26554429  0.26554429  0.00000000
   0.26554429  0.76554429  0.00000000
   0.26554429  0.76554429  0.50000000
   0.76554429  0.26554429  0.00000000
   0.76554429  0.26554429  0.50000000
   0.76554429  0.76554429  0.00000000
   0.76554429  0.76554429  0.50000000
   0.00000000  0.23445571  0.33333333
   0.00000000  0.23445571  0.83333333
   0.00000000  0.73445571  0.33333333
   0.00000000  0.73445571  0.83333333
   0.50000000  0.23445571  0.33333333
   0.50000000  0.23445571  0.83333333
   0.50000000  0.73445571  0.33333333
   0.50000000  0.73445571  0.83333333
   0.23445571  0.00000000  0.16666667
   0.23445571  0.00000000  0.66666667
   0.23445571  0.50000000  0.16666667
   0.23445571  0.50000000  0.66666667
   0.73445571  0.00000000  0.16666667
   0.73445571  0.00000000  0.66666667
   0.73445571  0.50000000  0.16666667
   0.73445571  0.50000000  0.66666667
   0.13461155  0.20669714  0.39244549
   0.13461155  0.70669714  0.39244549
   0.13461155  0.70669714  0.89244549
   0.63461155  0.20669714  0.39244549
   0.63461155  0.20669714  0.89244549
   0.63461155  0.70669714  0.39244549
   0.63461155  0.70669714  0.89244549
   0.29330286  0.42791441  0.05911216
   0.29330286  0.42791441  0.55911216
   0.29330286  0.92791441  0.05911216
   0.29330286  0.92791441  0.55911216
   0.79330286  0.42791441  0.05911216
   0.79330286  0.42791441  0.55911216
   0.79330286  0.92791441  0.05911216
   0.79330286  0.92791441  0.55911216
   0.07208559  0.36538845  0.22577882
   0.07208559  0.36538845  0.72577882
   0.07208559  0.86538845  0.22577882
   0.07208559  0.86538845  0.72577882
   0.57208559  0.36538845  0.22577882
   0.57208559  0.36538845  0.72577882
   0.57208559  0.86538845  0.22577882
   0.57208559  0.86538845  0.72577882
   0.20669714  0.13461155  0.10755451
   0.20669714  0.13461155  0.60755451
   0.20669714  0.63461155  0.10755451
   0.20669714  0.63461155  0.60755451
   0.70669714  0.13461155  0.10755451
   0.70669714  0.13461155  0.60755451
   0.70669714  0.63461155  0.10755451
   0.70669714  0.63461155  0.60755451
   0.36538845  0.07208559  0.27422118
   0.36538845  0.07208559  0.77422118
   0.36538845  0.57208559  0.27422118
   0.36538845  0.57208559  0.77422118
   0.86538845  0.07208559  0.27422118
   0.86538845  0.07208559  0.77422118
   0.86538845  0.57208559  0.27422118
   0.86538845  0.57208559  0.77422118
   0.42791441  0.29330286  0.44088784
   0.42791441  0.29330286  0.94088784
   0.42791441  0.79330286  0.44088784
   0.42791441  0.79330286  0.94088784
   0.92791441  0.29330286  0.44088784
   0.92791441  0.29330286  0.94088784
   0.92791441  0.79330286  0.44088784
   0.92791441  0.79330286  0.94088784
 
 position of ions in cartesian coordinates  (Angst):
   2.61028246 -0.00000000  0.00000000
   5.06776555  4.25648557  0.00000000
   5.06776555  4.25648557  5.43130114
   5.06776555 -4.25648557  0.00000000
   5.06776555 -4.25648557  5.43130114
   7.52524863  0.00000000  0.00000000
   7.52524863  0.00000000  5.43130114
   1.15234186  1.99591465  3.62086743
   1.15234186  1.99591465  9.05216857
   3.60982495  6.25240022  3.62086743
   3.60982495  6.25240022  9.05216857
   3.60982495 -2.26057092  3.62086743
   3.60982495 -2.26057092  9.05216857
   6.06730804  1.99591465  3.62086743
   6.06730804  1.99591465  9.05216857
   1.15234186 -1.99591465  1.81043371
   1.15234186 -1.99591465  7.24173485
   3.60982495  2.26057092  1.81043371
   3.60982495  2.26057092  7.24173485
   3.60982495 -6.25240022  1.81043371
   3.60982495 -6.25240022  7.24173485
   6.06730804 -1.99591465  1.81043371
   6.06730804 -1.99591465  7.24173485
   1.67752072  0.61366255  4.26297927
   4.13500380  4.87014811  4.26297927
   4.13500380  4.87014811  9.69428041
   4.13500380 -3.64282302  4.26297927
   4.13500380 -3.64282302  9.69428041
   6.59248689  0.61366255  4.26297927
   6.59248689  0.61366255  9.69428041
   3.54475846  1.14594428  0.64211185
   3.54475846  1.14594428  6.07341299
   6.00224155  5.40242985  0.64211185
   6.00224155  5.40242985  6.07341299
   6.00224155 -3.11054129  0.64211185
   6.00224155 -3.11054129  6.07341299
   8.45972464  1.14594428  0.64211185
   8.45972464  1.14594428  6.07341299
   2.15017009  2.49687874  2.45254556
   2.15017009  2.49687874  7.88384670
   4.60765317  6.75336431  2.45254556
   4.60765317  6.75336431  7.88384670
   4.60765317 -1.75960683  2.45254556
   4.60765317 -1.75960683  7.88384670
   7.06513626  2.49687874  2.45254556
   7.06513626  2.49687874  7.88384670
   1.67752072 -0.61366255  1.16832187
   1.67752072 -0.61366255  6.59962301
   4.13500380  3.64282302  1.16832187
   4.13500380  3.64282302  6.59962301
   4.13500380 -4.87014811  1.16832187
   4.13500380 -4.87014811  6.59962301
   6.59248689 -0.61366255  1.16832187
   6.59248689 -0.61366255  6.59962301
   2.15017009 -2.49687874  2.97875558
   2.15017009 -2.49687874  8.41005672
   4.60765317  1.75960683  2.97875558
   4.60765317  1.75960683  8.41005672
   4.60765317 -6.75336431  2.97875558
   4.60765317 -6.75336431  8.41005672
   7.06513626 -2.49687874  2.97875558
   7.06513626 -2.49687874  8.41005672
   3.54475846 -1.14594428  4.78918929
   3.54475846 -1.14594428 10.22049043
   6.00224155  3.11054129  4.78918929
   6.00224155  3.11054129 10.22049043
   6.00224155 -5.40242985  4.78918929
   6.00224155 -5.40242985 10.22049043
   8.45972464 -1.14594428  4.78918929
   8.45972464 -1.14594428 10.22049043
 


--------------------------------------------------------------------------------------------------------


 k-point   1 :   0.0000 0.0000 0.0000  plane waves:   26579
 k-point   2 :   0.2500 0.0000 0.0000  plane waves:   26609
 k-point   3 :   0.0000 0.2500 0.0000  plane waves:   26609
 k-point   4 :  -0.2500 0.2500 0.0000  plane waves:   26609
 k-point   5 :   0.5000 0.0000 0.0000  plane waves:   26614
 k-point   6 :   0.0000 0.5000 0.0000  plane waves:   26614
 k-point   7 :   0.5000 0.5000 0.0000  plane waves:   26614
 k-point   8 :   0.2500 0.2500 0.0000  plane waves:   26641
 k-point   9 :  -0.2500 0.5000 0.0000  plane waves:   26641
 k-point  10 :   0.5000 0.2500 0.0000  plane waves:   26641
 k-point  11 :   0.0000 0.0000 0.5000  plane waves:   26718
 k-point  12 :   0.2500 0.0000 0.5000  plane waves:   26636
 k-point  13 :   0.0000 0.2500 0.5000  plane waves:   26636
 k-point  14 :  -0.2500 0.2500 0.5000  plane waves:   26636
 k-point  15 :   0.5000 0.0000 0.5000  plane waves:   26636
 k-point  16 :   0.0000 0.5000 0.5000  plane waves:   26636
 k-point  17 :   0.5000 0.5000 0.5000  plane waves:   26636
 k-point  18 :   0.2500 0.2500 0.5000  plane waves:   26596
 k-point  19 :  -0.2500 0.5000 0.5000  plane waves:   26596
 k-point  20 :   0.5000 0.2500 0.5000  plane waves:   26596

 maximum and minimum number of plane-waves per node :     26718    26579

 maximum number of plane-waves:     26718
 maximum index in each direction: 
   IXMAX=   19   IYMAX=   18   IZMAX=   20
   IXMIN=  -19   IYMIN=  -19   IZMIN=  -21


 serial   3D FFT for wavefunctions
 parallel 3D FFT for charge:
    minimum data exchange during FFTs selected (reduces bandwidth)


 total amount of memory used by VASP MPI-rank0   166467. kBytes
=======================================================================

   base      :      30000. kBytes
   nonl-proj :      98565. kBytes
   fftplans  :       1721. kBytes
   grid      :       9701. kBytes
   one-center:        215. kBytes
   wavefun   :      26265. kBytes
 
     INWAV:  cpu time      0.0000: real time      0.0003
 Broyden mixing: mesh for mixing (old mesh)
   NGX = 37   NGY = 37   NGZ = 41
  (NGX  =112   NGY  =112   NGZ  =128)
  gives a total of  56129 points

 initial charge density was supplied:
 charge density of overlapping atoms calculated
 number of electron     374.0000000 magnetization 
 keeping initial charge density in first step


--------------------------------------------------------------------------------------------------------


 Maximum index for augmentation-charges          412 (set IRDMAX)


--------------------------------------------------------------------------------------------------------


 First call to EWALD:  gamma=   0.183
 Maximum number of real-space cells 3x 3x 3
 Maximum number of reciprocal cells 3x 3x 3

    FEWALD:  cpu time      0.0017: real time      0.0017


--------------------------------------- Iteration      1(   1)  ---------------------------------------


    POTLOK:  cpu time      0.0193: real time      0.0201
    SETDIJ:  cpu time      0.0025: real time      0.0025
     EDDAV:  cpu time     11.2422: real time     11.3064
       DOS:  cpu time      0.0029: real time      0.0029
    --------------------------------------------
      LOOP:  cpu time     11.2669: real time     11.3319

 eigenvalue-minimisations  : 11520
 total energy-change (2. order) : 0.1933222E+04  (-0.2028553E+05)
 number of electron     374.0000000 magnetization 
 augmentation part      374.0000000 magnetization 

 Free energy of the ion-electron system (eV)
  ---------------------------------------------------
  alpha Z        PSCENC =       527.48178200
  Ewald energy   TEWEN  =    -14529.27944803
  -Hartree energ DENC   =     -7470.65410749
  -exchange      EXHF   =         0.00000000
  -V(xc)+E(xc)   XCENC  =      1108.30413461
  PAW double counting   =     18314.67280499   -17994.56484431
  entropy T*S    EENTRO =        -0.01342066
  eigenvalues    EBANDS =      -714.14663810
  atomic energy  EATOM  =     22691.42155104
  Solvation  Ediel_sol  =         0.00000000
  ---------------------------------------------------
  free energy    TOTEN  =      1933.22181405 eV

  energy without entropy =     1933.23523471  energy(sigma->0) =     1933.22852438


--------------------------------------------------------------------------------------------------------




--------------------------------------- Iteration      1(   2)  ---------------------------------------


     EDDAV:  cpu time     18.1109: real time     18.2081
       DOS:  cpu time      0.0020: real time      0.0020
    --------------------------------------------
      LOOP:  cpu time     18.1129: real time     18.2100

 eigenvalue-minimisations  : 16992
 total energy-change (2. order) :-0.2429683E+04  (-0.2356065E+04)
 number of electron     374.0000000 magnetization 
 augmentation part      374.0000000 magnetization 

 Free energy of the ion-electron system (eV)
  ---------------------------------------------------
  alpha Z        PSCENC =       527.48178200
  Ewald energy   TEWEN  =    -14529.27944803
  -Hartree energ DENC   =     -7470.65410749
  -exchange      EXHF   =         0.00000000
  -V(xc)+E(xc)   XCENC  =      1108.30413461
  PAW double counting   =     18314.67280499   -17994.56484431
  entropy T*S    EENTRO =        -0.00000000
  eigenvalues    EBANDS =     -3143.84280539
  atomic energy  EATOM  =     22691.42155104
  Solvation  Ediel_sol  =         0.00000000
  ---------------------------------------------------
  free energy    TOTEN  =      -496.46093258 eV

  energy without entropy =     -496.46093258  energy(sigma->0) =     -496.46093258


--------------------------------------------------------------------------------------------------------




--------------------------------------- Iteration      1(   3)  ---------------------------------------


     EDDAV:  cpu time     16.2063: real time     16.2871
       DOS:  cpu time      0.0020: real time      0.0020
    --------------------------------------------
      LOOP:  cpu time     16.2083: real time     16.2891

 eigenvalue-minimisations  : 15360
 total energy-change (2. order) :-0.1145450E+03  (-0.1141911E+03)
 number of electron     374.0000000 magnetization 
 augmentation part      374.0000000 magnetization 

 Free energy of the ion-electron system (eV)
  ---------------------------------------------------
  alpha Z        PSCENC =       527.48178200
  Ewald energy   TEWEN  =    -14529.27944803
  -Hartree energ DENC   =     -7470.65410749
  -exchange      EXHF   =         0.00000000
  -V(xc)+E(xc)   XCENC  =      1108.30413461
  PAW double counting   =     18314.67280499   -17994.56484431
  entropy T*S    EENTRO =        -0.00000000
  eigenvalues    EBANDS =     -3258.38780023
  atomic energy  EATOM  =     22691.42155104
  Solvation  Ediel_sol  =         0.00000000
  ---------------------------------------------------
  free energy    TOTEN  =      -611.00592742 eV

  energy without entropy =     -611.00592742  energy(sigma->0) =     -611.00592742


--------------------------------------------------------------------------------------------------------




--------------------------------------- Iteration      1(   4)  ---------------------------------------


     EDDAV:  cpu time     13.1117: real time     13.1647
       DOS:  cpu time      0.0022: real time      0.0022
    --------------------------------------------
      LOOP:  cpu time     13.1138: real time     13.1669

 eigenvalue-minimisations  : 13344
 total energy-change (2. order) :-0.9710164E+00  (-0.9709340E+00)
 number of electron     374.0000000 magnetization 
 augmentation part      374.0000000 magnetization 

 Free energy of the ion-electron system (eV)
  ---------------------------------------------------
  alpha Z        PSCENC =       527.48178200
  Ewald energy   TEWEN  =    -14529.27944803
  -Hartree energ DENC   =     -7470.65410749
  -exchange      EXHF   =         0.00000000
  -V(xc)+E(xc)   XCENC  =      1108.30413461
  PAW double counting   =     18314.67280499   -17994.56484431
  entropy T*S    EENTRO =        -0.00000000
  eigenvalues    EBANDS =     -3259.35881664
  atomic energy  EATOM  =     22691.42155104
  Solvation  Ediel_sol  =         0.00000000
  ---------------------------------------------------
  free energy    TOTEN  =      -611.97694382 eV

  energy without entropy =     -611.97694382  energy(sigma->0) =     -611.97694382


--------------------------------------------------------------------------------------------------------




--------------------------------------- Iteration      1(   5)  ---------------------------------------


     EDDAV:  cpu time     19.4239: real time     19.5004
       DOS:  cpu time      0.0027: real time      0.0027
    CHARGE:  cpu time      0.1602: real time      0.1615
    MIXING:  cpu time      0.0022: real time      0.0029
    --------------------------------------------
      LOOP:  cpu time     19.5890: real time     19.6675

 eigenvalue-minimisations  : 15840
 total energy-change (2. order) :-0.1090870E-01  (-0.1090858E-01)
 number of electron     376.0000060 magnetization 
 augmentation part       35.0867392 magnetization 

 Broyden mixing:
  rms(total) = 0.71238E+01    rms(broyden)= 0.71227E+01
  rms(prec ) = 0.84251E+01
  weight for this iteration     100.00

 Free energy of the ion-electron system (eV)
  ---------------------------------------------------
  alpha Z        PSCENC =       527.48178200
  Ewald energy   TEWEN  =    -14529.27944803
  -Hartree energ DENC   =     -7470.65410749
  -exchange      EXHF   =         0.00000000
  -V(xc)+E(xc)   XCENC  =      1108.30413461
  PAW double counting   =     18314.67280499   -17994.56484431
  entropy T*S    EENTRO =        -0.00000000
  eigenvalues    EBANDS =     -3259.36972534
  atomic energy  EATOM  =     22691.42155104
  Solvation  Ediel_sol  =         0.00000000
  ---------------------------------------------------
  free energy    TOTEN  =      -611.98785253 eV

  energy without entropy =     -611.98785253  energy(sigma->0) =     -611.98785253


--------------------------------------------------------------------------------------------------------




--------------------------------------- Iteration      1(   6)  ---------------------------------------


    POTLOK:  cpu time      0.0128: real time      0.0130
    SETDIJ:  cpu time      0.0015: real time      0.0015
     EDDAV:  cpu time     16.3128: real time     16.3867
       DOS:  cpu time      0.0028: real time      0.0028
    CHARGE:  cpu time      0.0815: real time      0.0820
    MIXING:  cpu time      0.0007: real time      0.0009
    --------------------------------------------
      LOOP:  cpu time     16.4121: real time     16.4870

 eigenvalue-minimisations  : 15360
 total energy-change (2. order) : 0.6269134E+02  (-0.8346570E+01)
 number of electron     376.0000052 magnetization 
 augmentation part       31.1324922 magnetization 

 Broyden mixing:
  rms(total) = 0.47830E+01    rms(broyden)= 0.47828E+01
  rms(prec ) = 0.52958E+01
  weight for this iteration     100.00

 eigenvalues of (default mixing * dielectric matrix)
  average eigenvalue GAMMA=   1.9755
  1.9755

 Free energy of the ion-electron system (eV)
  ---------------------------------------------------
  alpha Z        PSCENC =       527.48178200
  Ewald energy   TEWEN  =    -14529.27944803
  -Hartree energ DENC   =     -7899.49479222
  -exchange      EXHF   =         0.00000000
  -V(xc)+E(xc)   XCENC  =      1142.92508784
  PAW double counting   =     24035.09769135   -23723.34700471
  entropy T*S    EENTRO =        -0.06522762
  eigenvalues    EBANDS =     -2794.03614892
  atomic energy  EATOM  =     22691.42155104
  Solvation  Ediel_sol  =         0.00000000
  ---------------------------------------------------
  free energy    TOTEN  =      -549.29650926 eV

  energy without entropy =     -549.23128164  energy(sigma->0) =     -549.26389545


--------------------------------------------------------------------------------------------------------




--------------------------------------- Iteration      1(   7)  ---------------------------------------


    POTLOK:  cpu time      0.0134: real time      0.0139
    SETDIJ:  cpu time      0.0016: real time      0.0016
     EDDAV:  cpu time     16.3785: real time     16.4553
       DOS:  cpu time      0.0031: real time      0.0031
    CHARGE:  cpu time      0.0820: real time      0.0824
    MIXING:  cpu time      0.0005: real time      0.0005
    --------------------------------------------
      LOOP:  cpu time     16.4790: real time     16.5568

 eigenvalue-minimisations  : 15360
 total energy-change (2. order) : 0.1791427E+02  (-0.6702753E+01)
 number of electron     376.0000049 magnetization 
 augmentation part       27.9435833 magnetization 

 Broyden mixing:
  rms(total) = 0.25497E+01    rms(broyden)= 0.25490E+01
  rms(prec ) = 0.27947E+01
  weight for this iteration     100.00

 eigenvalues of (default mixing * dielectric matrix)
  average eigenvalue GAMMA=   1.6626
  1.0696  2.2555

 Free energy of the ion-electron system (eV)
  ---------------------------------------------------
  alpha Z        PSCENC =       527.48178200
  Ewald energy   TEWEN  =    -14529.27944803
  -Hartree energ DENC   =     -8307.87585210
  -exchange      EXHF   =         0.00000000
  -V(xc)+E(xc)   XCENC  =      1170.44436204
  PAW double counting   =     36699.38843076   -36395.04241392
  entropy T*S    EENTRO =        -0.00109261
  eigenvalues    EBANDS =     -2387.91956235
  atomic energy  EATOM  =     22691.42155104
  Solvation  Ediel_sol  =         0.00000000
  ---------------------------------------------------
  free energy    TOTEN  =      -531.38224317 eV

  energy without entropy =     -531.38115056  energy(sigma->0) =     -531.38169686


--------------------------------------------------------------------------------------------------------




--------------------------------------- Iteration      1(   8)  ---------------------------------------


    POTLOK:  cpu time      0.0123: real time      0.0129
    SETDIJ:  cpu time      0.0016: real time      0.0016
     EDDAV:  cpu time     17.3936: real time     17.4791
       DOS:  cpu time      0.0028: real time      0.0028
    CHARGE:  cpu time      0.0827: real time      0.0832
    MIXING:  cpu time      0.0007: real time      0.0009
    --------------------------------------------
      LOOP:  cpu time     17.4938: real time     17.5806

 eigenvalue-minimisations  : 16320
 total energy-change (2. order) : 0.7919536E-01  (-0.3303675E+01)
 number of electron     376.0000049 magnetization 
 augmentation part       27.3782996 magnetization 

 Broyden mixing:
  rms(total) = 0.17621E+01    rms(broyden)= 0.17613E+01
  rms(prec ) = 0.20259E+01
  weight for this iteration     100.00

 eigenvalues of (default mixing * dielectric matrix)
  average eigenvalue GAMMA=   1.5345
  2.4631  1.6137  0.5266

 Free energy of the ion-electron system (eV)
  ---------------------------------------------------
  alpha Z        PSCENC =       527.48178200
  Ewald energy   TEWEN  =    -14529.27944803
  -Hartree energ DENC   =     -8398.45672604
  -exchange      EXHF   =         0.00000000
  -V(xc)+E(xc)   XCENC  =      1176.67462142
  PAW double counting   =     43990.16389492   -43687.11408912
  entropy T*S    EENTRO =        -0.00282820
  eigenvalues    EBANDS =     -2302.19180580
  atomic energy  EATOM  =     22691.42155104
  Solvation  Ediel_sol  =         0.00000000
  ---------------------------------------------------
  free energy    TOTEN  =      -531.30304781 eV

  energy without entropy =     -531.30021961  energy(sigma->0) =     -531.30163371


--------------------------------------------------------------------------------------------------------




--------------------------------------- Iteration      1(   9)  ---------------------------------------


    POTLOK:  cpu time      0.0124: real time      0.0129
    SETDIJ:  cpu time      0.0016: real time      0.0016
     EDDAV:  cpu time     16.4155: real time     16.4979
       DOS:  cpu time      0.0029: real time      0.0029
    CHARGE:  cpu time      0.0799: real time      0.0804
    MIXING:  cpu time      0.0007: real time      0.0007
    --------------------------------------------
      LOOP:  cpu time     16.5130: real time     16.5964

 eigenvalue-minimisations  : 15360
 total energy-change (2. order) : 0.8040958E+00  (-0.7584699E+00)
 number of electron     376.0000046 magnetization 
 augmentation part       27.3177609 magnetization 

 Broyden mixing:
  rms(total) = 0.13972E+01    rms(broyden)= 0.13962E+01
  rms(prec ) = 0.16739E+01
  weight for this iteration     100.00

 eigenvalues of (default mixing * dielectric matrix)
  average eigenvalue GAMMA=   1.3621
  2.6721  1.7812  0.4976  0.4976

 Free energy of the ion-electron system (eV)
  ---------------------------------------------------
  alpha Z        PSCENC =       527.48178200
  Ewald energy   TEWEN  =    -14529.27944803
  -Hartree energ DENC   =     -8431.94789831
  -exchange      EXHF   =         0.00000000
  -V(xc)+E(xc)   XCENC  =      1179.13580840
  PAW double counting   =     49481.72170042   -49178.95949333
  entropy T*S    EENTRO =        -0.00312446
  eigenvalues    EBANDS =     -2270.06982974
  atomic energy  EATOM  =     22691.42155104
  Solvation  Ediel_sol  =         0.00000000
  ---------------------------------------------------
  free energy    TOTEN  =      -530.49895201 eV

  energy without entropy =     -530.49582755  energy(sigma->0) =     -530.49738978


--------------------------------------------------------------------------------------------------------




--------------------------------------- Iteration      1(  10)  ---------------------------------------


    POTLOK:  cpu time      0.0119: real time      0.0123
    SETDIJ:  cpu time      0.0015: real time      0.0015
     EDDAV:  cpu time     16.3835: real time     16.4645
       DOS:  cpu time      0.0027: real time      0.0027
    CHARGE:  cpu time      0.0821: real time      0.0826
    MIXING:  cpu time      0.0007: real time      0.0007
    --------------------------------------------
      LOOP:  cpu time     16.4824: real time     16.5644

 eigenvalue-minimisations  : 15360
 total energy-change (2. order) :-0.1627840E+00  (-0.1459561E+01)
 number of electron     376.0000046 magnetization 
 augmentation part       27.3434525 magnetization 

 Broyden mixing:
  rms(total) = 0.13091E+01    rms(broyden)= 0.13081E+01
  rms(prec ) = 0.16237E+01
  weight for this iteration     100.00

 eigenvalues of (default mixing * dielectric matrix)
  average eigenvalue GAMMA=   1.2402
  2.9110  1.8857  0.5624  0.5624  0.2798

 Free energy of the ion-electron system (eV)
  ---------------------------------------------------
  alpha Z        PSCENC =       527.48178200
  Ewald energy   TEWEN  =    -14529.27944803
  -Hartree energ DENC   =     -8439.26562037
  -exchange      EXHF   =         0.00000000
  -V(xc)+E(xc)   XCENC  =      1179.71056895
  PAW double counting   =     51658.93236743   -51356.15722384
  entropy T*S    EENTRO =        -0.00012636
  eigenvalues    EBANDS =     -2263.50558688
  atomic energy  EATOM  =     22691.42155104
  Solvation  Ediel_sol  =         0.00000000
  ---------------------------------------------------
  free energy    TOTEN  =      -530.66173606 eV

  energy without entropy =     -530.66160969  energy(sigma->0) =     -530.66167288


--------------------------------------------------------------------------------------------------------




--------------------------------------- Iteration      1(  11)  ---------------------------------------


    POTLOK:  cpu time      0.0136: real time      0.0141
    SETDIJ:  cpu time      0.0015: real time      0.0015
     EDDAV:  cpu time     18.4634: real time     18.5502
       DOS:  cpu time      0.0029: real time      0.0029
    CHARGE:  cpu time      0.0814: real time      0.0819
    MIXING:  cpu time      0.0007: real time      0.0007
    --------------------------------------------
      LOOP:  cpu time     18.5634: real time     18.6511

 eigenvalue-minimisations  : 17280
 total energy-change (2. order) : 0.5135789E+00  (-0.5354200E+00)
 number of electron     376.0000046 magnetization 
 augmentation part       27.3863202 magnetization 

 Broyden mixing:
  rms(total) = 0.10013E+01    rms(broyden)= 0.10005E+01
  rms(prec ) = 0.13310E+01
  weight for this iteration     100.00

 eigenvalues of (default mixing * dielectric matrix)
  average eigenvalue GAMMA=   1.2313
  3.3146  1.9702  0.7357  0.7357  0.3971  0.2345

 Free energy of the ion-electron system (eV)
  ---------------------------------------------------
  alpha Z        PSCENC =       527.48178200
  Ewald energy   TEWEN  =    -14529.27944803
  -Hartree energ DENC   =     -8446.54439476
  -exchange      EXHF   =         0.00000000
  -V(xc)+E(xc)   XCENC  =      1180.31868672
  PAW double counting   =     54075.45761672   -53772.65399886
  entropy T*S    EENTRO =        -0.05040539
  eigenvalues    EBANDS =     -2256.29954662
  atomic energy  EATOM  =     22691.42155104
  Solvation  Ediel_sol  =         0.00000000
  ---------------------------------------------------
  free energy    TOTEN  =      -530.14815715 eV

  energy without entropy =     -530.09775177  energy(sigma->0) =     -530.12295446


--------------------------------------------------------------------------------------------------------




--------------------------------------- Iteration      1(  12)  ---------------------------------------


    POTLOK:  cpu time      0.0120: real time      0.0124
    SETDIJ:  cpu time      0.0016: real time      0.0016
     EDDAV:  cpu time     19.0546: real time     19.1459
       DOS:  cpu time      0.0029: real time      0.0029
    CHARGE:  cpu time      0.0812: real time      0.0817
    MIXING:  cpu time      0.0008: real time      0.0008
    --------------------------------------------
      LOOP:  cpu time     19.1531: real time     19.2453

 eigenvalue-minimisations  : 15360
 total energy-change (2. order) :-0.1117028E+00  (-0.1094581E+01)
 number of electron     376.0000046 magnetization 
 augmentation part       27.4373323 magnetization 

 Broyden mixing:
  rms(total) = 0.91656E+00    rms(broyden)= 0.91602E+00
  rms(prec ) = 0.12093E+01
  weight for this iteration     100.00

 eigenvalues of (default mixing * dielectric matrix)
  average eigenvalue GAMMA=   1.1725
  3.5119  2.0131  0.7510  0.7510  0.6292  0.3512  0.1998

 Free energy of the ion-electron system (eV)
  ---------------------------------------------------
  alpha Z        PSCENC =       527.48178200
  Ewald energy   TEWEN  =    -14529.27944803
  -Hartree energ DENC   =     -8455.13709039
  -exchange      EXHF   =         0.00000000
  -V(xc)+E(xc)   XCENC  =      1181.05271567
  PAW double counting   =     56735.66484876   -56432.84237050
  entropy T*S    EENTRO =        -0.02272639
  eigenvalues    EBANDS =     -2248.59912212
  atomic energy  EATOM  =     22691.42155104
  Solvation  Ediel_sol  =         0.00000000
  ---------------------------------------------------
  free energy    TOTEN  =      -530.25985996 eV

  energy without entropy =     -530.23713357  energy(sigma->0) =     -530.24849676


--------------------------------------------------------------------------------------------------------




--------------------------------------- Iteration      1(  13)  ---------------------------------------


    POTLOK:  cpu time      0.0128: real time      0.0132
    SETDIJ:  cpu time      0.0015: real time      0.0015
     EDDAV:  cpu time     18.4172: real time     18.5065
       DOS:  cpu time      0.0028: real time      0.0028
    CHARGE:  cpu time      0.0810: real time      0.0815
    MIXING:  cpu time      0.0007: real time      0.0007
    --------------------------------------------
      LOOP:  cpu time     18.5161: real time     18.6063

 eigenvalue-minimisations  : 17280
 total energy-change (2. order) : 0.1203900E+00  (-0.5167249E+00)
 number of electron     376.0000053 magnetization 
 augmentation part       27.4638075 magnetization 

 Broyden mixing:
  rms(total) = 0.73499E+00    rms(broyden)= 0.73389E+00
  rms(prec ) = 0.95648E+00
  weight for this iteration     100.00

 eigenvalues of (default mixing * dielectric matrix)
  average eigenvalue GAMMA=   1.1553
  4.0494  2.0668  0.8083  0.8083  0.4600  0.4600  0.3776  0.2115

 Free energy of the ion-electron system (eV)
  ---------------------------------------------------
  alpha Z        PSCENC =       527.48178200
  Ewald energy   TEWEN  =    -14529.27944803
  -Hartree energ DENC   =     -8458.64243108
  -exchange      EXHF   =         0.00000000
  -V(xc)+E(xc)   XCENC  =      1181.36080692
  PAW double counting   =     57850.67223727   -57547.83135910
  entropy T*S    EENTRO =        -0.02159079
  eigenvalues    EBANDS =     -2245.30101817
  atomic energy  EATOM  =     22691.42155104
  Solvation  Ediel_sol  =         0.00000000
  ---------------------------------------------------
  free energy    TOTEN  =      -530.13946994 eV

  energy without entropy =     -530.11787915  energy(sigma->0) =     -530.12867455


--------------------------------------------------------------------------------------------------------




--------------------------------------- Iteration      1(  14)  ---------------------------------------


    POTLOK:  cpu time      0.0131: real time      0.0136
    SETDIJ:  cpu time      0.0015: real time      0.0015
     EDDAV:  cpu time     18.4645: real time     18.5519
       DOS:  cpu time      0.0028: real time      0.0028
    CHARGE:  cpu time      0.0813: real time      0.0818
    MIXING:  cpu time      0.0006: real time      0.0006
    --------------------------------------------
      LOOP:  cpu time     18.5639: real time     18.6522

 eigenvalue-minimisations  : 17280
 total energy-change (2. order) : 0.9673402E-01  (-0.3041034E+00)
 number of electron     376.0000047 magnetization 
 augmentation part       27.5023431 magnetization 

 Broyden mixing:
  rms(total) = 0.57436E+00    rms(broyden)= 0.57361E+00
  rms(prec ) = 0.82946E+00
  weight for this iteration     100.00

 eigenvalues of (default mixing * dielectric matrix)
  average eigenvalue GAMMA=   1.1885
  4.3741  2.1547  1.0442  0.8473  0.8473  0.4300  0.4300  0.3618  0.2074

 Free energy of the ion-electron system (eV)
  ---------------------------------------------------
  alpha Z        PSCENC =       527.48178200
  Ewald energy   TEWEN  =    -14529.27944803
  -Hartree energ DENC   =     -8466.41713431
  -exchange      EXHF   =         0.00000000
  -V(xc)+E(xc)   XCENC  =      1182.02355296
  PAW double counting   =     59940.89038941   -59638.04408010
  entropy T*S    EENTRO =        -0.05554108
  eigenvalues    EBANDS =     -2238.06380781
  atomic energy  EATOM  =     22691.42155104
  Solvation  Ediel_sol  =         0.00000000
  ---------------------------------------------------
  free energy    TOTEN  =      -530.04273592 eV

  energy without entropy =     -529.98719484  energy(sigma->0) =     -530.01496538


--------------------------------------------------------------------------------------------------------




--------------------------------------- Iteration      1(  15)  ---------------------------------------


    POTLOK:  cpu time      0.0125: real time      0.0130
    SETDIJ:  cpu time      0.0016: real time      0.0016
     EDDAV:  cpu time     21.5000: real time     21.6043
       DOS:  cpu time      0.0030: real time      0.0030
    CHARGE:  cpu time      0.0807: real time      0.0811
    MIXING:  cpu time      0.0008: real time      0.0008
    --------------------------------------------
      LOOP:  cpu time     21.5987: real time     21.7040

 eigenvalue-minimisations  : 17280
 total energy-change (2. order) : 0.5934076E-02  (-0.3540679E+00)
 number of electron     376.0000047 magnetization 
 augmentation part       27.5253382 magnetization 

 Broyden mixing:
  rms(total) = 0.52977E+00    rms(broyden)= 0.52898E+00
  rms(prec ) = 0.75852E+00
  weight for this iteration     100.00

 eigenvalues of (default mixing * dielectric matrix)
  average eigenvalue GAMMA=   1.1777
  4.6549  2.1297  1.1713  0.9019  0.7810  0.7810  0.4092  0.4092  0.3318  0.2067

 Free energy of the ion-electron system (eV)
  ---------------------------------------------------
  alpha Z        PSCENC =       527.48178200
  Ewald energy   TEWEN  =    -14529.27944803
  -Hartree energ DENC   =     -8470.25396305
  -exchange      EXHF   =         0.00000000
  -V(xc)+E(xc)   XCENC  =      1182.34335522
  PAW double counting   =     60718.81635377   -60415.96570588
  entropy T*S    EENTRO =        -0.05194454
  eigenvalues    EBANDS =     -2234.54878237
  atomic energy  EATOM  =     22691.42155104
  Solvation  Ediel_sol  =         0.00000000
  ---------------------------------------------------
  free energy    TOTEN  =      -530.03680184 eV

  energy without entropy =     -529.98485730  energy(sigma->0) =     -530.01082957


--------------------------------------------------------------------------------------------------------




--------------------------------------- Iteration      1(  16)  ---------------------------------------


    POTLOK:  cpu time      0.0124: real time      0.0129
    SETDIJ:  cpu time      0.0015: real time      0.0015
     EDDAV:  cpu time     18.4572: real time     18.5476
       DOS:  cpu time      0.0028: real time      0.0028
    CHARGE:  cpu time      0.0814: real time      0.0819
    MIXING:  cpu time      0.0008: real time      0.0008
    --------------------------------------------
      LOOP:  cpu time     18.5559: real time     18.6475

 eigenvalue-minimisations  : 17280
 total energy-change (2. order) :-0.2003545E-02  (-0.3246138E+00)
 number of electron     376.0000047 magnetization 
 augmentation part       27.5185893 magnetization 

 Broyden mixing:
  rms(total) = 0.53193E+00    rms(broyden)= 0.53130E+00
  rms(prec ) = 0.75930E+00
  weight for this iteration     100.00

 eigenvalues of (default mixing * dielectric matrix)
  average eigenvalue GAMMA=   1.1627
  4.6944  2.2215  1.4681  0.7975  0.7975  0.8535  0.5667  0.4312  0.4312  0.3221
  0.2059

 Free energy of the ion-electron system (eV)
  ---------------------------------------------------
  alpha Z        PSCENC =       527.48178200
  Ewald energy   TEWEN  =    -14529.27944803
  -Hartree energ DENC   =     -8475.10791780
  -exchange      EXHF   =         0.00000000
  -V(xc)+E(xc)   XCENC  =      1182.71854460
  PAW double counting   =     61202.52384346   -60899.72198776
  entropy T*S    EENTRO =        -0.05261172
  eigenvalues    EBANDS =     -2230.02256119
  atomic energy  EATOM  =     22691.42155104
  Solvation  Ediel_sol  =         0.00000000
  ---------------------------------------------------
  free energy    TOTEN  =      -530.03880539 eV

  energy without entropy =     -529.98619367  energy(sigma->0) =     -530.01249953


--------------------------------------------------------------------------------------------------------




--------------------------------------- Iteration      1(  17)  ---------------------------------------


    POTLOK:  cpu time      0.0128: real time      0.0133
    SETDIJ:  cpu time      0.0016: real time      0.0016
     EDDAV:  cpu time     18.3826: real time     18.4704
       DOS:  cpu time      0.0028: real time      0.0028
    CHARGE:  cpu time      0.0809: real time      0.0814
    MIXING:  cpu time      0.0009: real time      0.0009
    --------------------------------------------
      LOOP:  cpu time     18.4816: real time     18.5704

 eigenvalue-minimisations  : 17280
 total energy-change (2. order) : 0.8268063E-01  (-0.7110828E-01)
 number of electron     376.0000047 magnetization 
 augmentation part       27.5079092 magnetization 

 Broyden mixing:
  rms(total) = 0.23598E+00    rms(broyden)= 0.23536E+00
  rms(prec ) = 0.30913E+00
  weight for this iteration     100.00

 eigenvalues of (default mixing * dielectric matrix)
  average eigenvalue GAMMA=   1.1358
  4.7700  2.3338  1.7333  0.9356  0.8177  0.8177  0.4125  0.4125  0.2059  0.4162
  0.4162  0.3585

 Free energy of the ion-electron system (eV)
  ---------------------------------------------------
  alpha Z        PSCENC =       527.48178200
  Ewald energy   TEWEN  =    -14529.27944803
  -Hartree energ DENC   =     -8478.01941432
  -exchange      EXHF   =         0.00000000
  -V(xc)+E(xc)   XCENC  =      1182.92611175
  PAW double counting   =     61122.66928608   -60819.89862757
  entropy T*S    EENTRO =        -0.06764567
  eigenvalues    EBANDS =     -2227.18972003
  atomic energy  EATOM  =     22691.42155104
  Solvation  Ediel_sol  =         0.00000000
  ---------------------------------------------------
  free energy    TOTEN  =      -529.95612476 eV

  energy without entropy =     -529.88847909  energy(sigma->0) =     -529.92230192


--------------------------------------------------------------------------------------------------------




--------------------------------------- Iteration      1(  18)  ---------------------------------------


    POTLOK:  cpu time      0.0123: real time      0.0128
    SETDIJ:  cpu time      0.0016: real time      0.0016
     EDDAV:  cpu time     16.2916: real time     16.3709
       DOS:  cpu time      0.0030: real time      0.0030
    CHARGE:  cpu time      0.0785: real time      0.0790
    MIXING:  cpu time      0.0008: real time      0.0008
    --------------------------------------------
      LOOP:  cpu time     16.3878: real time     16.4680

 eigenvalue-minimisations  : 15360
 total energy-change (2. order) :-0.2106917E-02  (-0.9312485E-02)
 number of electron     376.0000047 magnetization 
 augmentation part       27.5023703 magnetization 

 Broyden mixing:
  rms(total) = 0.16406E+00    rms(broyden)= 0.16395E+00
  rms(prec ) = 0.22390E+00
  weight for this iteration     100.00

 eigenvalues of (default mixing * dielectric matrix)
  average eigenvalue GAMMA=   1.2694
  4.8005  3.8492  1.9430  0.9792  0.9792  0.7783  0.7783  0.5628  0.4342  0.4342
  0.4214  0.3363  0.2058

 Free energy of the ion-electron system (eV)
  ---------------------------------------------------
  alpha Z        PSCENC =       527.48178200
  Ewald energy   TEWEN  =    -14529.27944803
  -Hartree energ DENC   =     -8479.47651938
  -exchange      EXHF   =         0.00000000
  -V(xc)+E(xc)   XCENC  =      1183.03199927
  PAW double counting   =     61115.79848493   -60813.04148676
  entropy T*S    EENTRO =        -0.06916457
  eigenvalues    EBANDS =     -2225.82543017
  atomic energy  EATOM  =     22691.42155104
  Solvation  Ediel_sol  =         0.00000000
  ---------------------------------------------------
  free energy    TOTEN  =      -529.95823168 eV

  energy without entropy =     -529.88906710  energy(sigma->0) =     -529.92364939


--------------------------------------------------------------------------------------------------------




--------------------------------------- Iteration      1(  19)  ---------------------------------------


    POTLOK:  cpu time      0.0125: real time      0.0129
    SETDIJ:  cpu time      0.0016: real time      0.0016
     EDDAV:  cpu time     18.7169: real time     18.8044
       DOS:  cpu time      0.0029: real time      0.0029
    CHARGE:  cpu time      0.0809: real time      0.0814
    MIXING:  cpu time      0.0008: real time      0.0008
    --------------------------------------------
      LOOP:  cpu time     18.8155: real time     18.9039

 eigenvalue-minimisations  : 17280
 total energy-change (2. order) :-0.1945461E-01  (-0.3036769E-01)
 number of electron     376.0000047 magnetization 
 augmentation part       27.4996863 magnetization 

 Broyden mixing:
  rms(total) = 0.38695E+00    rms(broyden)= 0.38667E+00
  rms(prec ) = 0.53532E+00
  weight for this iteration     100.00

[...]
   -.628E+01 0.924E+01 -.412E+01   0.100E+02 -.184E+02 0.864E+01   -.220E+01 0.654E+01 -.264E+01   -.113E-02 0.287E-02 -.178E-02
   -.427E+02 0.119E+03 -.466E+02   0.440E+02 -.117E+03 0.451E+02   0.742E+00 -.423E+01 0.218E+01   -.462E-03 0.244E-03 0.845E-03
   -.309E+01 -.879E+00 -.122E+01   0.355E+01 0.112E+01 0.182E+01   -.102E+00 -.154E+00 -.142E+00   -.576E-03 -.120E-03 -.211E-04
   -.709E+01 -.507E+01 -.163E+01   0.823E+01 0.550E+01 -.179E+00   -.732E+00 -.377E+00 0.962E+00   -.230E-03 0.122E-03 0.146E-03
   0.902E+01 -.825E+01 -.254E+01   -.939E+01 0.159E+02 0.110E+02   -.268E+00 -.515E+01 -.577E+01   0.637E-03 0.426E-02 0.521E-02
   0.134E+02 -.183E+02 0.660E+00   -.140E+02 0.187E+02 -.228E+01   0.492E-01 -.100E+00 0.438E+00   0.278E-03 -.192E-03 -.205E-03
   0.635E+01 0.558E+01 -.243E+01   -.719E+01 -.547E+01 0.296E+01   0.106E+00 -.329E+00 0.185E-01   0.209E-03 -.408E-03 -.383E-03
   0.646E+01 0.619E+01 0.939E-01   -.800E+01 -.595E+01 -.126E+01   0.719E+00 -.257E+00 0.508E+00   0.596E-03 -.351E-04 0.504E-03
   -.234E+01 -.162E+02 0.808E+01   0.377E+01 0.158E+02 -.637E+01   -.787E+00 0.449E+00 -.513E+00   0.105E-02 -.501E-03 0.698E-03
   -.804E+01 -.208E+02 -.713E+01   0.118E+02 0.300E+02 0.246E+01   -.219E+01 -.659E+01 0.269E+01   0.751E-03 -.158E-02 -.379E-03
   0.105E+02 0.878E+01 0.867E+01   -.112E+02 -.954E+01 -.728E+01   0.637E-01 0.305E+00 -.388E+00   0.599E-03 -.253E-03 -.279E-03
   0.196E+02 0.161E+02 -.123E+02   -.198E+02 -.237E+02 0.375E+01   -.291E+00 0.512E+01 0.582E+01   0.581E-03 0.199E-02 0.227E-02
   -.581E+01 0.223E+01 0.781E+01   0.697E+01 -.269E+01 -.599E+01   -.715E+00 0.382E+00 -.976E+00   -.499E-03 0.463E-03 0.534E-05
   -.106E+02 0.471E+01 -.712E+01   0.110E+02 -.496E+01 0.642E+01   -.871E-01 0.179E+00 0.119E+00   -.480E-03 0.677E-03 -.150E-03
   0.292E+01 -.390E+01 0.282E+01   -.439E+01 0.364E+01 -.167E+01   0.709E+00 0.265E+00 -.476E+00   -.111E-02 0.283E-03 0.134E-02
   0.701E+01 -.568E+01 -.145E+01   -.777E+01 0.557E+01 0.862E+00   0.627E-01 0.330E+00 0.909E-02   -.110E-02 -.810E-05 -.141E-02
   -.116E+02 0.903E+02 -.348E+02   0.236E+02 -.123E+03 0.519E+02   -.125E+02 0.327E+02 -.178E+02   0.355E-02 -.743E-02 -.404E-02
   0.406E+02 0.578E+02 0.284E+02   -.489E+02 -.742E+02 -.383E+02   0.803E+01 0.163E+02 0.942E+01   0.457E-03 0.933E-03 -.580E-03
   0.421E+02 0.576E+02 0.353E+02   -.504E+02 -.738E+02 -.464E+02   0.817E+01 0.159E+02 0.112E+02   0.295E-03 0.453E-03 0.607E-03
   0.460E+02 0.496E+02 0.271E+02   -.548E+02 -.636E+02 -.366E+02   0.905E+01 0.126E+02 0.933E+01   -.120E-02 0.731E-02 0.107E-02
   0.433E+02 0.553E+02 0.361E+02   -.519E+02 -.713E+02 -.471E+02   0.855E+01 0.157E+02 0.111E+02   0.761E-05 0.538E-03 0.788E-06
   0.510E+02 0.592E+02 0.270E+02   -.607E+02 -.756E+02 -.369E+02   0.979E+01 0.163E+02 0.962E+01   -.131E-02 -.210E-02 -.670E-03
   0.445E+02 0.580E+02 0.361E+02   -.533E+02 -.742E+02 -.470E+02   0.888E+01 0.158E+02 0.109E+02   -.223E-04 -.507E-03 0.514E-03
   -.236E+02 0.238E+02 0.750E+02   0.406E+02 -.233E+02 -.858E+02   -.163E+02 -.473E+00 0.108E+02   0.166E-03 -.115E-02 0.374E-03
   -.540E+01 0.758E+02 0.477E+02   0.347E+01 -.103E+03 -.746E+02   0.251E+01 0.278E+02 0.273E+02   0.626E-02 -.495E-02 -.171E-02
   -.740E+02 -.101E+02 0.428E+02   0.925E+02 0.111E+02 -.528E+02   -.184E+02 -.113E+01 0.964E+01   0.551E-03 0.418E-03 0.895E-03
   -.793E+02 -.133E+02 0.271E+02   0.985E+02 0.166E+02 -.381E+02   -.195E+02 -.440E+01 0.106E+02   0.240E-02 0.489E-03 -.167E-02
   -.695E+02 0.126E+02 0.392E+02   0.875E+02 -.119E+02 -.493E+02   -.176E+02 -.737E+00 0.985E+01   -.833E-03 0.825E-03 0.113E-02
   -.662E+02 0.780E+01 0.269E+02   0.839E+02 -.694E+01 -.380E+02   -.172E+02 -.810E+00 0.113E+02   -.296E-02 0.258E-02 -.202E-02
   -.979E+02 0.135E+02 0.498E+02   0.117E+03 -.128E+02 -.600E+02   -.185E+02 -.917E+00 0.977E+01   -.567E-03 -.580E-04 0.136E-03
   -.880E+02 0.130E+02 0.224E+02   0.108E+03 -.126E+02 -.333E+02   -.195E+02 -.306E+00 0.110E+02   -.169E-02 0.494E-03 -.346E-04
   0.292E+02 -.463E+02 0.403E+02   -.390E+02 0.596E+02 -.488E+02   0.102E+02 -.123E+02 0.725E+01   0.690E-03 0.164E-02 -.184E-02
   0.379E+02 -.554E+01 -.984E-01   -.472E+02 0.185E+02 -.122E+02   0.843E+01 -.121E+02 0.131E+02   -.154E-02 0.150E-02 0.298E-02
   0.170E+02 -.758E+02 0.366E+02   -.260E+02 0.916E+02 -.461E+02   0.869E+01 -.157E+02 0.914E+01   0.187E-03 -.105E-02 0.477E-04
   0.483E+01 -.896E+02 0.218E+02   -.127E+02 0.106E+03 -.338E+02   0.647E+01 -.167E+02 0.129E+02   -.474E-03 -.810E-03 0.404E-03
   0.404E+02 -.754E+02 0.309E+02   -.512E+02 0.917E+02 -.389E+02   0.117E+02 -.163E+02 0.642E+01   -.215E-02 0.733E-03 0.605E-02
   0.510E+02 -.840E+02 0.338E+02   -.623E+02 0.101E+03 -.463E+02   0.115E+02 -.166E+02 0.128E+02   -.176E-03 -.104E-02 -.227E-02
   0.279E+02 -.633E+02 0.348E+02   -.376E+02 0.788E+02 -.446E+02   0.970E+01 -.152E+02 0.941E+01   -.295E-03 0.314E-03 0.276E-03
   0.256E+02 -.615E+02 0.289E+02   -.358E+02 0.769E+02 -.401E+02   0.102E+02 -.153E+02 0.112E+02   0.723E-03 0.486E-03 -.935E-04
   0.403E+02 -.901E+02 0.203E+02   -.480E+02 0.107E+03 -.898E+01   0.742E+01 -.170E+02 -.114E+02   0.165E-02 -.118E-02 -.127E-03
   -.115E+02 -.105E+03 -.341E+01   0.236E+02 0.137E+03 -.138E+02   -.126E+02 -.326E+02 0.181E+02   0.284E-02 -.523E-02 -.161E-02
   0.502E+02 -.475E+02 -.235E+02   -.589E+02 0.634E+02 0.344E+02   0.875E+01 -.154E+02 -.111E+02   0.410E-03 0.154E-03 0.332E-03
   0.508E+02 -.443E+02 -.386E+02   -.596E+02 0.583E+02 0.481E+02   0.900E+01 -.126E+02 -.928E+01   0.100E-02 0.300E-02 -.255E-03
   0.351E+02 -.498E+02 -.227E+02   -.433E+02 0.659E+02 0.337E+02   0.806E+01 -.158E+02 -.112E+02   -.124E-03 0.124E-02 0.518E-03
   0.358E+02 -.525E+02 -.399E+02   -.442E+02 0.689E+02 0.497E+02   0.803E+01 -.163E+02 -.935E+01   -.757E-03 0.246E-02 -.101E-02
   0.445E+02 -.603E+02 -.264E+02   -.533E+02 0.765E+02 0.373E+02   0.886E+01 -.159E+02 -.110E+02   -.106E-02 -.443E-03 0.108E-02
   0.510E+02 -.609E+02 -.361E+02   -.607E+02 0.773E+02 0.460E+02   0.977E+01 -.163E+02 -.958E+01   -.122E-02 -.165E-02 -.154E-02
   0.273E+02 0.459E+02 -.383E+02   -.363E+02 -.591E+02 0.513E+02   0.815E+01 0.124E+02 -.141E+02   0.419E-02 0.209E-02 0.375E-02
   0.312E+02 0.250E+02 -.363E+02   -.409E+02 -.384E+02 0.446E+02   0.102E+02 0.125E+02 -.701E+01   0.922E-03 -.584E-03 -.326E-03
   0.442E+02 0.768E+02 -.376E+02   -.556E+02 -.933E+02 0.500E+02   0.116E+02 0.166E+02 -.127E+02   0.936E-03 -.166E-02 -.844E-03
   0.652E+02 0.835E+02 -.375E+02   -.761E+02 -.998E+02 0.455E+02   0.118E+02 0.164E+02 -.661E+01   0.104E-02 -.410E-04 0.279E-02
   0.149E+02 0.737E+02 -.289E+02   -.227E+02 -.902E+02 0.409E+02   0.643E+01 0.168E+02 -.128E+02   -.243E-02 0.176E-02 -.104E-02
   -.280E+02 0.990E+02 -.591E+02   0.193E+02 -.114E+03 0.689E+02   0.827E+01 0.152E+02 -.946E+01   -.513E-03 0.660E-03 0.738E-03
   0.289E+02 0.650E+02 -.321E+02   -.390E+02 -.805E+02 0.432E+02   0.101E+02 0.153E+02 -.112E+02   -.210E-02 0.825E-03 0.825E-03
   0.277E+02 0.660E+02 -.337E+02   -.374E+02 -.814E+02 0.435E+02   0.970E+01 0.152E+02 -.941E+01   -.777E-03 0.557E-03 -.416E-03
   -.120E+02 -.765E+02 -.729E+02   0.101E+02 0.103E+03 0.999E+02   0.254E+01 -.278E+02 -.273E+02   0.828E-03 -.735E-02 -.532E-02
   -.215E+02 -.552E+02 -.125E+02   0.390E+02 0.552E+02 0.227E+02   -.171E+02 -.476E-01 -.100E+02   0.569E-04 -.159E-03 0.105E-02
   -.657E+02 -.497E+01 -.369E+02   0.833E+02 0.409E+01 0.480E+02   -.172E+02 0.825E+00 -.112E+02   0.157E-02 0.123E-02 -.101E-02
   -.656E+02 -.496E+01 -.275E+02   0.835E+02 0.417E+01 0.377E+02   -.175E+02 0.902E+00 -.984E+01   0.205E-03 0.111E-03 0.546E-03
   -.797E+02 0.123E+02 -.416E+02   0.990E+02 -.156E+02 0.525E+02   -.195E+02 0.441E+01 -.105E+02   -.235E-02 0.460E-02 -.690E-03
   -.867E+02 0.576E+02 -.152E+02   0.106E+03 -.595E+02 0.251E+02   -.189E+02 0.260E+01 -.938E+01   -.320E-03 -.183E-03 0.160E-03
   -.831E+02 -.135E+02 -.385E+02   0.103E+03 0.131E+02 0.494E+02   -.195E+02 0.305E+00 -.109E+02   -.193E-02 -.116E-02 -.522E-03
   -.981E+02 -.237E+02 -.243E+02   0.117E+03 0.229E+02 0.344E+02   -.183E+02 0.885E+00 -.979E+01   -.363E-03 -.192E-03 0.301E-03
 -----------------------------------------------------------------------------------------------
   0.156E+02 0.173E+02 0.114E+02   0.128E-12 0.394E-12 -.135E-12   -.156E+02 -.173E+02 -.114E+02   0.115E-02 0.946E-02 0.308E-02
 
 
 POSITION                                       TOTAL-FORCE (eV/Angst)
 -----------------------------------------------------------------------------------
      2.61028     -0.00000      0.00000        -1.809166      1.957125     -1.860181
      5.06777      4.25649      0.00000        -0.050970      0.011712      0.039375
      5.06777      4.25649      5.43130         0.065500      0.093672      0.777504
      5.06777     -4.25649      0.00000         0.007595     -0.096175      0.010391
      5.06777     -4.25649      5.43130         0.069339     -0.101547     -0.823763
      7.52525      0.00000      0.00000         0.004151      0.037618      0.026728
      7.52525      0.00000      5.43130        -0.011335      0.001483     -0.016891
      1.15234      1.99591      3.62087         1.539001     -2.573286      1.868762
      1.15234      1.99591      9.05217         2.053021     -2.507224      0.740562
      3.60982      6.25240      3.62087         0.358206      0.082064      0.455942
      3.60982      6.25240      9.05217         0.408647      0.051630     -0.849711
      3.60982     -2.26057      3.62087        -0.631574      2.458781      2.733635
      3.60982     -2.26057      9.05217        -0.560700      0.295809     -1.183295
      6.06731      1.99591      3.62087        -0.734145     -0.224958      0.551191
      6.06731      1.99591      9.05217        -0.813270     -0.017456     -0.660074
      1.15234     -1.99591      1.81043         0.644330      0.100629      1.192909
      1.15234     -1.99591      7.24173         1.525437      2.613079     -1.979959
      3.60982      2.26057      1.81043        -0.623441     -0.456168      0.999643
      3.60982      2.26057      7.24173        -0.521191     -2.512109     -2.735755
      3.60982     -6.25240      1.81043         0.450395     -0.085523      0.847387
      3.60982     -6.25240      7.24173         0.264802     -0.076922     -0.580006
      6.06731     -1.99591      1.81043        -0.765010      0.004579      0.678065
      6.06731     -1.99591      7.24173        -0.700901      0.227268     -0.581422
      1.67752      0.61366      4.26298        -0.516518      0.249940     -0.675820
      4.13500      4.87015      4.26298        -0.316852     -0.042397     -0.459430
      4.13500      4.87015      9.69428        -0.149532     -0.275656      0.098634
      4.13500     -3.64282      4.26298         0.221593     -1.390609     -0.187208
      4.13500     -3.64282      9.69428        -0.032897     -0.347675      0.112598
      6.59249      0.61366      4.26298         0.130779     -0.130803     -0.258112
      6.59249      0.61366      9.69428         0.033725     -0.307462      0.054667
      3.54476      1.14594      0.64211         0.738371      0.057405      0.003536
      3.54476      1.14594      6.07341         0.577633      0.879210      0.389578
      6.00224      5.40243      0.64211         0.090627     -0.204326     -0.406332
      6.00224      5.40243      6.07341        -0.228390     -1.137186     -0.371420
      6.00224     -3.11054      0.64211         0.348039     -0.065573     -0.299991
      6.00224     -3.11054      6.07341         0.441547      0.058983      0.177300
      8.45972      1.14594      0.64211         0.102152     -0.142587     -0.345959
      8.45972      1.14594      6.07341        -0.001375      0.099766      0.038123
      2.15017      2.49688      2.45255         0.444954      1.033478     -1.247916
      2.15017      2.49688      7.88385        -0.892193      0.809372      0.859537
      4.60765      6.75336      2.45255        -0.339770      0.130689     -0.382135
      4.60765      6.75336      7.88385        -1.387777     -0.279232      0.887236
      4.60765     -1.75961      2.45255         0.885299      0.001189     -1.486106
      4.60765     -1.75961      7.88385         0.204442     -0.042287      0.342126
      7.06514      2.49688      2.45255        -0.039997      0.246681     -0.417895
      7.06514      2.49688      7.88385        -0.029467      0.208905      0.075558
      1.67752     -0.61366      1.16832        -0.276693      0.107861     -0.071798
      1.67752     -0.61366      6.59962        -0.529628     -0.245611      0.792002
      4.13500      3.64282      1.16832         0.043844      0.448484     -0.142724
      4.13500      3.64282      6.59962         0.205992      1.392115      0.207722
      4.13500     -4.87015      1.16832        -0.171949      0.306621     -0.099626
      4.13500     -4.87015      6.59962        -0.321538      0.039288      0.483226
      6.59249     -0.61366      1.16832         0.028552      0.295258     -0.066182
      6.59249     -0.61366      6.59962         0.122089      0.120067      0.273946
      2.15017     -2.49688      2.97876        -0.930835     -0.764479     -1.080695
      2.15017     -2.49688      8.41006         0.463523     -1.010899      1.323706
      4.60765      1.75961      2.97876         0.253051      0.054995     -0.277681
      4.60765      1.75961      8.41006         0.898739      0.007330      1.448027
      4.60765     -6.75336      2.97876        -1.391399      0.287887     -0.857973
      4.60765     -6.75336      8.41006        -0.452089     -0.224390      0.362023
      7.06514     -2.49688      2.97876        -0.043606     -0.200477     -0.075995
      7.06514     -2.49688      8.41006        -0.039697     -0.240597      0.419386
      3.54476     -1.14594      4.78919         0.586069     -0.877375     -0.387109
      3.54476     -1.14594     10.22049         0.417115     -0.063464      0.224474
      6.00224      3.11054      4.78919         0.443192     -0.049042     -0.156555
      6.00224      3.11054     10.22049         0.360737      0.114308      0.312951
      6.00224     -5.40243      4.78919        -0.235118      1.146629      0.401056
      6.00224     -5.40243     10.22049        -0.023334      0.632345      0.510827
      8.45972     -1.14594      4.78919        -0.005070     -0.095410     -0.026272
      8.45972     -1.14594     10.22049         0.144935      0.124649      0.331655
 -----------------------------------------------------------------------------------
    total drift:                                0.011017      0.001441     -0.000615


--------------------------------------------------------------------------------------------------------



  FREE ENERGIE OF THE ION-ELECTRON SYSTEM (eV)
  ---------------------------------------------------
  free  energy   TOTEN  =      -529.95916037 eV

  energy  without entropy=     -529.88904439  energy(sigma->0) =     -529.92410238
 


--------------------------------------------------------------------------------------------------------


    POTLOK:  cpu time      0.0153: real time      0.0154


--------------------------------------------------------------------------------------------------------


 stress matrix after NEB project (eV)
     49.31493      2.67180     -2.41584
      2.67180     48.39749      3.35546
     -2.41584      3.35546     46.26307
  FORCES: max atom, RMS     3.750558    1.351075
  FORCE total and by dimension   11.303908    2.735755
  Stress total and by dimension   83.444707   49.314928
 writing wavefunctions
     LOOP+:  cpu time    560.1943: real time    562.9935
    4ORBIT:  cpu time      0.0000: real time      0.0000



 total charge

# of ion       s       p       d       tot
------------------------------------------
    1        0.676   0.932   0.000   1.609
    2        0.649   1.012   0.000   1.662
    3        0.650   1.013   0.000   1.662
    4        0.651   1.013   0.000   1.664
    5        0.650   1.013   0.000   1.662
    6        0.650   1.013   0.000   1.662
    7        0.648   1.010   0.000   1.657
    8        0.671   1.034   0.000   1.705
    9        0.674   0.928   0.000   1.602
   10        0.649   1.011   0.000   1.659
   11        0.651   1.014   0.000   1.666
   12        0.671   1.034   0.000   1.705
   13        0.649   1.011   0.000   1.660
   14        0.648   1.010   0.000   1.658
   15        0.650   1.013   0.000   1.663
   16        0.650   1.011   0.000   1.661
   17        0.671   1.034   0.000   1.705
   18        0.649   1.011   0.000   1.660
   19        0.671   1.034   0.000   1.705
   20        0.651   1.014   0.000   1.665
   21        0.649   1.011   0.000   1.660
   22        0.650   1.013   0.000   1.664
   23        0.648   1.010   0.000   1.658
   24        1.593   3.370   0.000   4.963
   25        1.549   3.711   0.000   5.259
   26        1.550   3.709   0.000   5.258
   27        1.550   3.710   0.000   5.260
   28        1.550   3.709   0.000   5.259
   29        1.549   3.707   0.000   5.256
   30        1.550   3.709   0.000   5.259
   31        1.553   3.702   0.000   5.255
   32        1.593   3.368   0.000   4.961
   33        1.550   3.710   0.000   5.259
   34        1.553   3.701   0.000   5.253
   35        1.549   3.711   0.000   5.260
   36        1.549   3.710   0.000   5.259
   37        1.550   3.709   0.000   5.259
   38        1.550   3.705   0.000   5.254
   39        1.548   3.713   0.000   5.261
   40        1.555   3.693   0.000   5.248
   41        1.548   3.711   0.000   5.259
   42        1.554   3.701   0.000   5.255
   43        1.552   3.704   0.000   5.256
   44        1.551   3.699   0.000   5.250
   45        1.549   3.711   0.000   5.260
   46        1.550   3.708   0.000   5.258
   47        1.555   3.693   0.000   5.248
   48        1.593   3.370   0.000   4.963
   49        1.550   3.709   0.000   5.259
   50        1.550   3.710   0.000   5.260
   51        1.549   3.709   0.000   5.259
   52        1.549   3.711   0.000   5.259
   53        1.550   3.709   0.000   5.258
   54        1.549   3.707   0.000   5.256
   55        1.551   3.705   0.000   5.256
   56        1.549   3.712   0.000   5.261
   57        1.551   3.699   0.000   5.250
   58        1.552   3.703   0.000   5.255
   59        1.554   3.701   0.000   5.255
   60        1.552   3.701   0.000   5.253
   61        1.550   3.708   0.000   5.258
   62        1.549   3.711   0.000   5.260
   63        1.593   3.368   0.000   4.961
   64        1.554   3.697   0.000   5.251
   65        1.549   3.710   0.000   5.259
   66        1.549   3.711   0.000   5.260
   67        1.553   3.701   0.000   5.253
   68        1.555   3.698   0.000   5.253
   69        1.550   3.705   0.000   5.254
   70        1.549   3.710   0.000   5.259
--------------------------------------------------
tot         88.125 196.032   0.000 284.157
 

 total amount of memory used by VASP MPI-rank0   166467. kBytes
=======================================================================

   base      :      30000. kBytes
   nonl-proj :      98565. kBytes
   fftplans  :       1721. kBytes
   grid      :       9701. kBytes
   one-center:        215. kBytes
   wavefun   :      26265. kBytes
 
  
  
 General timing and accounting informations for this job:
 ========================================================
  
                  Total CPU time used (sec):      579.570
                            User time (sec):      574.999
                          System time (sec):        4.571
                         Elapsed time (sec):      584.373
  
                   Maximum memory used (kb):      448652.
                   Average memory used (kb):          N/A
  
                          Minor page faults:       220055
                          Major page faults:           43
                 Voluntary context switches:         3229
