<?xml version="1.0" encoding="ISO-8859-1"?>
<modeling>
 <generator>
  <i name="program" type="string">vasp </i>
  <i name="version" type="string">5.4.4.18Apr17-6-g9f103f2a35  </i>
  <i name="subversion" type="string">(build Jun 19 2019 10:34:07) complex            parallel </i>
  <i name="platform" type="string">LB-5.4 </i>
  <i name="date" type="string">2023 05 15 </i>
  <i name="time" type="string">18:34:05 </i>
 </generator>
 <incar>
  <i type="string" name="SYSTEM"> Si</i>
  <i type="string" name="PREC">normal</i>
  <i type="string" name="ALGO"> Normal</i>
  <i type="int" name="ISPIN">     1</i>
  <i name="AMIX">      0.20000000</i>
  <i type="int" name="NELM">   200</i>
  <i type="int" name="IBRION">     2</i>
  <i name="EDIFF">      0.00000100</i>
  <i name="EDIFFG">     -0.05000000</i>
  <i type="int" name="NSW">     0</i>
  <i type="int" name="ISIF">     2</i>
  <i type="int" name="ISYM">     2</i>
  <i name="ENCUT">    550.00000000</i>
  <i name="NELECT">    215.00000000</i>
  <i type="logical" name="LREAL"> F  </i>
  <i type="int" name="ISMEAR">     0</i>
  <i name="SIGMA">      0.05000000</i>
  <i type="logical" name="LWAVE"> T  </i>
  <i type="logical" name="LCHARG"> T  </i>
  <i type="int" name="LORBIT">    10</i>
  <v type="int" name="KPOINT_BSE">    -1     0     0     0</v>
  <i type="int" name="NELM">   200</i>
 </incar>
 <structure name="primitive_cell" >
  <crystal>
   <varray name="basis" >
    <v>       9.97646553       0.00000000       5.75991507 </v>
    <v>       3.32548851       9.40590192       5.75991507 </v>
    <v>       0.00000000       0.00000000      11.51983014 </v>
   </varray>
   <i name="volume">   1080.99386112 </i>
   <varray name="rec_basis" >
    <v>       0.10023590      -0.03543874       0.00000000 </v>
    <v>       0.00000000       0.10631623       0.00000000 </v>
    <v>      -0.05011795      -0.03543874       0.08680684 </v>
   </varray>
  </crystal>
  <varray name="positions" >
   <v>       0.29166667       0.29166667       0.29166667 </v>
   <v>       0.04166667       0.37500000       0.37500000 </v>
   <v>       0.37500000       0.37500000       0.04166667 </v>
   <v>       0.37500000       0.37500000       0.37500000 </v>
   <v>       0.37500000       0.04166667       0.37500000 </v>
   <v>      -0.04166667       0.29166667       0.29166667 </v>
   <v>      -0.37500000       0.29166667      -0.04166667 </v>
   <v>      -0.04166667       0.29166667      -0.37500000 </v>
   <v>      -0.37500000       0.29166667       0.29166667 </v>
   <v>      -0.37500000      -0.04166667       0.29166667 </v>
   <v>      -0.04166667      -0.37500000       0.29166667 </v>
   <v>       0.29166667      -0.04166667       0.29166667 </v>
   <v>       0.29166667      -0.37500000      -0.04166667 </v>
   <v>       0.29166667      -0.04166667      -0.37500000 </v>
   <v>       0.29166667      -0.37500000       0.29166667 </v>
   <v>       0.29166667       0.29166667      -0.04166667 </v>
   <v>       0.29166667       0.29166667      -0.37500000 </v>
   <v>      -0.29166667       0.37500000       0.04166667 </v>
   <v>       0.04166667       0.04166667       0.37500000 </v>
   <v>      -0.29166667       0.04166667       0.04166667 </v>
   <v>       0.04166667       0.04166667      -0.29166667 </v>
   <v>      -0.29166667       0.04166667       0.37500000 </v>
   <v>       0.37500000      -0.29166667       0.04166667 </v>
   <v>       0.04166667       0.37500000       0.04166667 </v>
   <v>       0.04166667       0.37500000      -0.29166667 </v>
   <v>       0.04166667      -0.29166667       0.04166667 </v>
   <v>       0.04166667      -0.29166667       0.37500000 </v>
   <v>       0.37500000       0.04166667       0.04166667 </v>
   <v>       0.37500000       0.04166667      -0.29166667 </v>
   <v>      -0.04166667      -0.04166667      -0.37500000 </v>
   <v>      -0.37500000      -0.37500000      -0.04166667 </v>
   <v>      -0.37500000      -0.04166667      -0.04166667 </v>
   <v>      -0.04166667      -0.37500000      -0.04166667 </v>
   <v>      -0.37500000      -0.04166667      -0.37500000 </v>
   <v>      -0.04166667      -0.37500000      -0.37500000 </v>
   <v>      -0.29166667       0.37500000       0.37500000 </v>
   <v>      -0.29166667       0.37500000      -0.29166667 </v>
   <v>      -0.29166667      -0.29166667       0.37500000 </v>
   <v>       0.37500000      -0.29166667      -0.29166667 </v>
   <v>       0.37500000      -0.29166667       0.37500000 </v>
   <v>       0.37500000       0.37500000      -0.29166667 </v>
   <v>      -0.37500000       0.29166667      -0.37500000 </v>
   <v>      -0.04166667       0.29166667      -0.04166667 </v>
   <v>      -0.37500000      -0.37500000       0.29166667 </v>
   <v>      -0.04166667      -0.04166667      -0.04166667 </v>
   <v>      -0.37500000      -0.37500000      -0.37500000 </v>
   <v>      -0.04166667      -0.04166667       0.29166667 </v>
   <v>       0.29166667      -0.37500000      -0.37500000 </v>
   <v>       0.29166667      -0.04166667      -0.04166667 </v>
   <v>      -0.29166667       0.04166667      -0.29166667 </v>
   <v>       0.04166667       0.04166667       0.04166667 </v>
   <v>      -0.29166667      -0.29166667      -0.29166667 </v>
   <v>      -0.29166667      -0.29166667       0.04166667 </v>
   <v>       0.04166667      -0.29166667      -0.29166667 </v>
  </varray>
 </structure>
 <varray name="primitive_index" >
  <v type="int" >        1 </v>
  <v type="int" >       32 </v>
  <v type="int" >       40 </v>
  <v type="int" >       41 </v>
  <v type="int" >       38 </v>
  <v type="int" >       19 </v>
  <v type="int" >       12 </v>
  <v type="int" >       20 </v>
  <v type="int" >       10 </v>
  <v type="int" >       16 </v>
  <v type="int" >       22 </v>
  <v type="int" >        7 </v>
  <v type="int" >        6 </v>
  <v type="int" >        8 </v>
  <v type="int" >        4 </v>
  <v type="int" >        3 </v>
  <v type="int" >        2 </v>
  <v type="int" >       49 </v>
  <v type="int" >       29 </v>
  <v type="int" >       46 </v>
  <v type="int" >       30 </v>
  <v type="int" >       47 </v>
  <v type="int" >       43 </v>
  <v type="int" >       31 </v>
  <v type="int" >       33 </v>
  <v type="int" >       34 </v>
  <v type="int" >       35 </v>
  <v type="int" >       37 </v>
  <v type="int" >       39 </v>
  <v type="int" >       26 </v>
  <v type="int" >       15 </v>
  <v type="int" >       18 </v>
  <v type="int" >       24 </v>
  <v type="int" >       17 </v>
  <v type="int" >       23 </v>
  <v type="int" >       50 </v>
  <v type="int" >       51 </v>
  <v type="int" >       53 </v>
  <v type="int" >       45 </v>
  <v type="int" >       44 </v>
  <v type="int" >       42 </v>
  <v type="int" >       11 </v>
  <v type="int" >       21 </v>
  <v type="int" >       13 </v>
  <v type="int" >       27 </v>
  <v type="int" >       14 </v>
  <v type="int" >       25 </v>
  <v type="int" >        5 </v>
  <v type="int" >        9 </v>
  <v type="int" >       48 </v>
  <v type="int" >       28 </v>
  <v type="int" >       54 </v>
  <v type="int" >       52 </v>
  <v type="int" >       36 </v>
 </varray>
 <kpoints>
  <generation param="Gamma">
   <v type="int" name="divisions">       4        4        4 </v>
   <v name="usershift">      0.00000000       0.00000000       0.00000000 </v>
   <v name="genvec1">      0.25000000       0.00000000       0.00000000 </v>
   <v name="genvec2">      0.00000000       0.25000000       0.00000000 </v>
   <v name="genvec3">     -0.00000000      -0.00000000       0.25000000 </v>
   <v name="shift">      0.00000000       0.00000000       0.00000000 </v>
  </generation>
  <varray name="kpointlist" >
   <v>       0.00000000       0.00000000       0.00000000 </v>
   <v>       0.25000000       0.00000000       0.00000000 </v>
   <v>       0.50000000       0.00000000       0.00000000 </v>
   <v>       0.25000000       0.25000000       0.00000000 </v>
   <v>       0.50000000       0.25000000       0.00000000 </v>
   <v>      -0.25000000       0.25000000       0.00000000 </v>
   <v>       0.50000000       0.50000000       0.00000000 </v>
   <v>      -0.25000000       0.50000000       0.25000000 </v>
  </varray>
  <varray name="weights" >
   <v>       0.01562500 </v>
   <v>       0.12500000 </v>
   <v>       0.06250000 </v>
   <v>       0.09375000 </v>
   <v>       0.37500000 </v>
   <v>       0.18750000 </v>
   <v>       0.04687500 </v>
   <v>       0.09375000 </v>
  </varray>
 </kpoints>
 <parameters>
  <separator name="general" >
   <i type="string" name="SYSTEM">Si</i>
   <i type="logical" name="LCOMPAT"> F  </i>
  </separator>
  <separator name="electronic" >
   <i type="string" name="PREC">normal</i>
   <i name="ENMAX">    550.00000000</i>
   <i name="ENAUG">    342.92400000</i>
   <i name="EDIFF">      0.00000100</i>
   <i type="int" name="IALGO">    38</i>
   <i type="int" name="IWAVPR">    10</i>
   <i type="int" name="NBANDS">   144</i>
   <i name="NELECT">    215.00000000</i>
   <i type="int" name="TURBO">     0</i>
   <i type="int" name="IRESTART">     0</i>
   <i type="int" name="NREBOOT">     0</i>
   <i type="int" name="NMIN">     0</i>
   <i name="EREF">      0.00000000</i>
   <separator name="electronic smearing" >
    <i type="int" name="ISMEAR">     0</i>
    <i name="SIGMA">      0.05000000</i>
    <i name="KSPACING">      0.50000000</i>
    <i type="logical" name="KGAMMA"> T  </i>
   </separator>
   <separator name="electronic projectors" >
    <i type="logical" name="LREAL"> F  </i>
    <v name="ROPT">      0.00000000      0.00000000</v>
    <i type="int" name="LMAXPAW">  -100</i>
    <i type="int" name="LMAXMIX">     2</i>
    <i type="logical" name="NLSPLINE"> F  </i>
   </separator>
   <separator name="electronic startup" >
    <i type="int" name="ISTART">     0</i>
    <i type="int" name="ICHARG">     2</i>
    <i type="int" name="INIWAV">     1</i>
   </separator>
   <separator name="electronic spin" >
    <i type="int" name="ISPIN">     1</i>
    <i type="logical" name="LNONCOLLINEAR"> F  </i>
    <v name="MAGMOM">      1.00000000      1.00000000      1.00000000      1.00000000      1.00000000      1.00000000      1.00000000      1.00000000      1.00000000      1.00000000      1.00000000      1.00000000      1.00000000      1.00000000      1.00000000      1.00000000      1.00000000      1.00000000      1.00000000      1.00000000
      1.00000000      1.00000000      1.00000000      1.00000000      1.00000000      1.00000000      1.00000000      1.00000000      1.00000000      1.00000000      1.00000000      1.00000000      1.00000000      1.00000000      1.00000000      1.00000000      1.00000000      1.00000000      1.00000000      1.00000000
      1.00000000      1.00000000      1.00000000      1.00000000      1.00000000      1.00000000      1.00000000      1.00000000      1.00000000      1.00000000      1.00000000      1.00000000      1.00000000      1.00000000</v>
    <i name="NUPDOWN">     -1.00000000</i>
    <i type="logical" name="LSORBIT"> F  </i>
    <v name="SAXIS">      0.00000000      0.00000000      1.00000000</v>
    <i type="logical" name="LSPIRAL"> F  </i>
    <v name="QSPIRAL">      0.00000000      0.00000000      0.00000000</v>
    <i type="logical" name="LZEROZ"> F  </i>
   </separator>
   <separator name="electronic exchange-correlation" >
    <i type="logical" name="LASPH"> F  </i>
    <i type="logical" name="LMETAGGA"> F  </i>
   </separator>
   <separator name="electronic convergence" >
    <i type="int" name="NELM">   200</i>
    <i type="int" name="NELMDL">    -5</i>
    <i type="int" name="NELMIN">     2</i>
    <i name="ENINI">    550.00000000</i>
    <separator name="electronic convergence detail" >
     <i type="logical" name="LDIAG"> T  </i>
     <i type="logical" name="LSUBROT"> F  </i>
     <i name="WEIMIN">      0.00000000</i>
     <i name="EBREAK">      0.00000000</i>
     <i name="DEPER">      0.30000000</i>
     <i type="int" name="NRMM">     4</i>
     <i name="TIME">      0.40000000</i>
    </separator>
   </separator>
   <separator name="electronic mixer" >
    <i name="AMIX">      0.20000000</i>
    <i name="BMIX">      1.00000000</i>
    <i name="AMIN">      0.10000000</i>
    <i name="AMIX_MAG">      0.80000000</i>
    <i name="BMIX_MAG">      1.00000000</i>
    <separator name="electronic mixer details" >
     <i type="int" name="IMIX">     4</i>
     <i type="logical" name="MIXFIRST"> F  </i>
     <i type="int" name="MAXMIX">   -45</i>
     <i name="WC">    100.00000000</i>
     <i type="int" name="INIMIX">     1</i>
     <i type="int" name="MIXPRE">     1</i>
     <i type="int" name="MREMOVE">     5</i>
    </separator>
   </separator>
   <separator name="electronic dipolcorrection" >
    <i type="logical" name="LDIPOL"> F  </i>
    <i type="logical" name="LMONO"> F  </i>
    <i type="int" name="IDIPOL">     0</i>
    <i name="EPSILON">      1.00000000</i>
    <v name="DIPOL">   -100.00000000   -100.00000000   -100.00000000</v>
    <i name="EFIELD">      0.00000000</i>
   </separator>
  </separator>
  <separator name="grids" >
   <i type="int" name="NGX">    70</i>
   <i type="int" name="NGY">    70</i>
   <i type="int" name="NGZ">    70</i>
   <i type="int" name="NGXF">   140</i>
   <i type="int" name="NGYF">   140</i>
   <i type="int" name="NGZF">   140</i>
   <i type="logical" name="ADDGRID"> F  </i>
  </separator>
  <separator name="ionic" >
   <i type="int" name="NSW">     0</i>
   <i type="int" name="IBRION">    -1</i>
   <i type="int" name="MDALGO">     0</i>
   <i type="int" name="ISIF">     2</i>
   <i name="PSTRESS">      0.00000000</i>
   <i name="EDIFFG">     -0.05000000</i>
   <i type="int" name="NFREE">     1</i>
   <i name="POTIM">      0.50000000</i>
   <i name="SMASS">     -3.00000000</i>
   <i name="SCALEE">      1.00000000</i>
  </separator>
  <separator name="ionic md" >
   <i name="TEBEG">      0.00010000</i>
   <i name="TEEND">      0.00010000</i>
   <i type="int" name="NBLOCK">     1</i>
   <i type="int" name="KBLOCK">     1</i>
   <i type="int" name="NPACO">   256</i>
   <i name="APACO">     16.00000000</i>
  </separator>
  <separator name="symmetry" >
   <i type="int" name="ISYM">     2</i>
   <i name="SYMPREC">      0.00001000</i>
  </separator>
  <separator name="dos" >
   <i type="int" name="LORBIT">    10</i>
   <v name="RWIGS">     -1.00000000     -1.00000000</v>
   <i type="int" name="NEDOS">   301</i>
   <i name="EMIN">     10.00000000</i>
   <i name="EMAX">    -10.00000000</i>
   <i name="EFERMI">      0.00000000</i>
  </separator>
  <separator name="writing" >
   <i type="int" name="NWRITE">     2</i>
   <i type="logical" name="LWAVE"> T  </i>
   <i type="logical" name="LDOWNSAMPLE"> F  </i>
   <i type="logical" name="LCHARG"> T  </i>
   <i type="logical" name="LPARD"> F  </i>
   <i type="logical" name="LVTOT"> F  </i>
   <i type="logical" name="LVHAR"> F  </i>
   <i type="logical" name="LELF"> F  </i>
   <i type="logical" name="LOPTICS"> F  </i>
   <v name="STM">      0.00000000      0.00000000      0.00000000      0.00000000      0.00000000      0.00000000      0.00000000</v>
  </separator>
  <separator name="performance" >
   <i type="int" name="NPAR">    24</i>
   <i type="int" name="NSIM">     4</i>
   <i type="int" name="NBLK">    -1</i>
   <i type="logical" name="LPLANE"> T  </i>
   <i type="logical" name="LSCALAPACK"> T  </i>
   <i type="logical" name="LSCAAWARE"> F  </i>
   <i type="logical" name="LSCALU"> F  </i>
   <i type="logical" name="LASYNC"> F  </i>
   <i type="logical" name="LORBITALREAL"> F  </i>
  </separator>
  <separator name="miscellaneous" >
   <i type="int" name="IDIOT">     3</i>
   <i type="int" name="ISPECIAL">     0</i>
   <i type="logical" name="LMUSIC"> F  </i>
   <v name="POMASS">     30.97400000     28.08500000</v>
   <v name="DARWINR">      0.00000000      0.00000000</v>
   <v name="DARWINV">      1.00000000      1.00000000</v>
   <i type="logical" name="LCORR"> T  </i>
  </separator>
  <i type="logical" name="GGA_COMPAT"> T  </i>
  <i type="logical" name="LBERRY"> F  </i>
  <i type="int" name="ICORELEVEL">     0</i>
  <i type="logical" name="LDAU"> F  </i>
  <i type="int" name="I_CONSTRAINED_M">     0</i>
  <separator name="electronic exchange-correlation" >
   <i type="string" name="GGA">--</i>
   <i type="int" name="VOSKOWN">     0</i>
   <i type="logical" name="LHFCALC"> F  </i>
   <i type="string" name="PRECFOCK"></i>
   <i type="logical" name="LSYMGRAD"> F  </i>
   <i type="logical" name="LHFONE"> F  </i>
   <i type="logical" name="LRHFCALC"> F  </i>
   <i type="logical" name="LTHOMAS"> F  </i>
   <i type="logical" name="LMODELHF"> F  </i>
   <i name="ENCUT4O">     -1.00000000</i>
   <i type="int" name="EXXOEP">     0</i>
   <i type="int" name="FOURORBIT">     0</i>
   <i name="AEXX">      0.00000000</i>
   <i name="HFALPHA">      0.00000000</i>
   <i name="MCALPHA">      0.00000000</i>
   <i name="ALDAX">      1.00000000</i>
   <i name="AGGAX">      1.00000000</i>
   <i name="ALDAC">      1.00000000</i>
   <i name="AGGAC">      1.00000000</i>
   <i type="int" name="NKREDX">     1</i>
   <i type="int" name="NKREDY">     1</i>
   <i type="int" name="NKREDZ">     1</i>
   <i type="logical" name="SHIFTRED"> F  </i>
   <i type="logical" name="ODDONLY"> F  </i>
   <i type="logical" name="EVENONLY"> F  </i>
   <i type="int" name="LMAXFOCK">     0</i>
   <i type="int" name="NMAXFOCKAE">     0</i>
   <i type="logical" name="LFOCKAEDFT"> F  </i>
   <i name="HFSCREEN">      0.00000000</i>
   <i name="HFSCREENC">      0.00000000</i>
   <i type="int" name="NBANDSGWLOW">     0</i>
  </separator>
  <separator name="vdW DFT" >
   <i type="logical" name="LUSE_VDW"> F  </i>
   <i name="Zab_VDW">     -0.84910000</i>
   <i name="PARAM1">      0.12340000</i>
   <i name="PARAM2">      1.00000000</i>
   <i name="PARAM3">      0.00000000</i>
  </separator>
  <separator name="model GW" >
   <i type="int" name="MODEL_GW">     0</i>
   <i name="MODEL_EPS0">     12.01104290</i>
   <i name="MODEL_ALPHA">      1.00000000</i>
  </separator>
  <separator name="linear response parameters" >
   <i type="logical" name="LEPSILON"> F  </i>
   <i type="logical" name="LRPA"> F  </i>
   <i type="logical" name="LNABLA"> F  </i>
   <i type="logical" name="LVEL"> F  </i>
   <i type="int" name="KINTER">     0</i>
   <i name="CSHIFT">      0.10000000</i>
   <i name="OMEGAMAX">     -1.00000000</i>
   <i name="DEG_THRESHOLD">      0.00200000</i>
   <i name="RTIME">     -0.10000000</i>
   <i name="WPLASMAI">      0.00000000</i>
   <v name="DFIELD">      0.00000000      0.00000000      0.00000000</v>
   <v name="WPLASMA">      0.00000000      0.00000000      0.00000000      0.00000000      0.00000000      0.00000000      0.00000000      0.00000000      0.00000000</v>
  </separator>
  <separator name="orbital magnetization" >
   <i type="logical" name="NUCIND"> F  </i>
   <v name="MAGPOS">      0.00000000      0.00000000      0.00000000</v>
   <i type="logical" name="LNICSALL"> T  </i>
   <i type="logical" name="ORBITALMAG"> F  </i>
   <i type="logical" name="LMAGBLOCH"> F  </i>
   <i type="logical" name="LCHIMAG"> F  </i>
   <i type="logical" name="LGAUGE"> T  </i>
   <i type="int" name="MAGATOM">     0</i>
   <v name="MAGDIPOL">      0.00000000      0.00000000      0.00000000</v>
   <v name="AVECCONST">      0.00000000      0.00000000      0.00000000</v>
  </separator>
  <separator name="response functions" >
   <i type="logical" name="LADDER"> F  </i>
   <i type="logical" name="LRPAFORCE"> F  </i>
   <i type="logical" name="LFXC"> F  </i>
   <i type="logical" name="LHARTREE"> T  </i>
   <i type="int" name="IBSE">     0</i>
   <v type="int" name="KPOINT">    -1     0     0     0</v>
   <i type="logical" name="LTCTE"> F  </i>
   <i type="logical" name="LTETE"> F  </i>
   <i type="logical" name="LTRIPLET"> F  </i>
   <i type="logical" name="LFXCEPS"> F  </i>
   <i type="logical" name="LFXHEG"> F  </i>
   <i type="int" name="NATURALO">     2</i>
   <i type="logical" name="L2ORDER"> F  </i>
   <i type="logical" name="LMP2LT"> F  </i>
   <i type="logical" name="LUSEW"> F  </i>
   <i name="ENCUTGW">     -2.00000000</i>
   <i name="ENCUTGWSOFT">     -2.00000000</i>
   <i name="ENCUTLF">     -1.00000000</i>
   <i type="int" name="LMAXMP2">    -1</i>
   <i name="SCISSOR">      0.00000000</i>
   <i type="int" name="NOMEGA">     0</i>
   <i type="int" name="NOMEGAR">     0</i>
   <i type="int" name="NBANDSGW">    -1</i>
   <i type="int" name="NBANDSO">    -1</i>
   <i type="int" name="NBANDSV">    -1</i>
   <i type="int" name="NELM">   200</i>
   <i type="int" name="NELMHF">     1</i>
   <i type="int" name="DIM">     3</i>
   <i type="int" name="ANTIRES">     0</i>
   <i name="OMEGAMAX">    -30.00000000</i>
   <i name="OMEGAMIN">    -30.00000000</i>
   <i name="OMEGATL">   -200.00000000</i>
   <i type="int" name="OMEGAGRID">   140</i>
   <i name="CSHIFT">     -0.10000000</i>
   <i type="logical" name="SELFENERGY"> F  </i>
   <i type="logical" name="LSPECTRAL"> F  </i>
   <i type="logical" name="LSPECTRALGW"> F  </i>
   <i type="logical" name="LSINGLES"> F  </i>
   <i type="logical" name="LFERMIGW"> F  </i>
   <i type="logical" name="ODDONLYGW"> F  </i>
   <i type="logical" name="EVENONLYGW"> F  </i>
   <i type="int" name="NKREDLFX">     1</i>
   <i type="int" name="NKREDLFY">     1</i>
   <i type="int" name="NKREDLFZ">     1</i>
   <i type="int" name="MAXMEM">  2800</i>
   <i type="int" name="TELESCOPE">     0</i>
   <i type="int" name="TAUPAR">     1</i>
   <i type="int" name="OMEGAPAR">    -1</i>
   <i name="LAMBDA">      1.00000000</i>
  </separator>
  <separator name="External order field" >
   <i name="OFIELD_KAPPA">      0.00000000</i>
   <v name="OFIELD_K">      0.00000000      0.00000000      0.00000000</v>
   <i name="OFIELD_Q6_NEAR">      0.00000000</i>
   <i name="OFIELD_Q6_FAR">      0.00000000</i>
   <i name="OFIELD_A">      0.00000000</i>
  </separator>
 </parameters>
 <atominfo>
  <atoms>      54 </atoms>
  <types>       2 </types>
  <array name="atoms" >
   <dimension dim="1">ion</dimension>
   <field type="string">element</field>
   <field type="int">atomtype</field>
   <set>
    <rc><c>P </c><c>   1</c></rc>
    <rc><c>Si</c><c>   2</c></rc>
    <rc><c>Si</c><c>   2</c></rc>
    <rc><c>Si</c><c>   2</c></rc>
    <rc><c>Si</c><c>   2</c></rc>
    <rc><c>Si</c><c>   2</c></rc>
    <rc><c>Si</c><c>   2</c></rc>
    <rc><c>Si</c><c>   2</c></rc>
    <rc><c>Si</c><c>   2</c></rc>
    <rc><c>Si</c><c>   2</c></rc>
    <rc><c>Si</c><c>   2</c></rc>
    <rc><c>Si</c><c>   2</c></rc>
    <rc><c>Si</c><c>   2</c></rc>
    <rc><c>Si</c><c>   2</c></rc>
    <rc><c>Si</c><c>   2</c></rc>
    <rc><c>Si</c><c>   2</c></rc>
    <rc><c>Si</c><c>   2</c></rc>
    <rc><c>Si</c><c>   2</c></rc>
    <rc><c>Si</c><c>   2</c></rc>
    <rc><c>Si</c><c>   2</c></rc>
    <rc><c>Si</c><c>   2</c></rc>
    <rc><c>Si</c><c>   2</c></rc>
    <rc><c>Si</c><c>   2</c></rc>
    <rc><c>Si</c><c>   2</c></rc>
    <rc><c>Si</c><c>   2</c></rc>
    <rc><c>Si</c><c>   2</c></rc>
    <rc><c>Si</c><c>   2</c></rc>
    <rc><c>Si</c><c>   2</c></rc>
    <rc><c>Si</c><c>   2</c></rc>
    <rc><c>Si</c><c>   2</c></rc>
    <rc><c>Si</c><c>   2</c></rc>
    <rc><c>Si</c><c>   2</c></rc>
    <rc><c>Si</c><c>   2</c></rc>
    <rc><c>Si</c><c>   2</c></rc>
    <rc><c>Si</c><c>   2</c></rc>
    <rc><c>Si</c><c>   2</c></rc>
    <rc><c>Si</c><c>   2</c></rc>
    <rc><c>Si</c><c>   2</c></rc>
    <rc><c>Si</c><c>   2</c></rc>
    <rc><c>Si</c><c>   2</c></rc>
    <rc><c>Si</c><c>   2</c></rc>
    <rc><c>Si</c><c>   2</c></rc>
    <rc><c>Si</c><c>   2</c></rc>
    <rc><c>Si</c><c>   2</c></rc>
    <rc><c>Si</c><c>   2</c></rc>
    <rc><c>Si</c><c>   2</c></rc>
    <rc><c>Si</c><c>   2</c></rc>
    <rc><c>Si</c><c>   2</c></rc>
    <rc><c>Si</c><c>   2</c></rc>
    <rc><c>Si</c><c>   2</c></rc>
    <rc><c>Si</c><c>   2</c></rc>
    <rc><c>Si</c><c>   2</c></rc>
    <rc><c>Si</c><c>   2</c></rc>
    <rc><c>Si</c><c>   2</c></rc>
   </set>
  </array>
  <array name="atomtypes" >
   <dimension dim="1">type</dimension>
   <field type="int">atomspertype</field>
   <field type="string">element</field>
   <field>mass</field>
   <field>valence</field>
   <field type="string">pseudopotential</field>
   <set>
    <rc><c>   1</c><c>P </c><c>     30.97400000</c><c>      5.00000000</c><c>  PAW_PBE P 06Sep2000                   </c></rc>
    <rc><c>  53</c><c>Si</c><c>     28.08500000</c><c>      4.00000000</c><c>  PAW_PBE Si 05Jan2001                  </c></rc>
   </set>
  </array>
 </atominfo>
 <structure name="initialpos" >
  <crystal>
   <varray name="basis" >
    <v>       9.97646553       0.00000000       5.75991507 </v>
    <v>       3.32548851       9.40590192       5.75991507 </v>
    <v>       0.00000000       0.00000000      11.51983014 </v>
   </varray>
   <i name="volume">   1080.99386112 </i>
   <varray name="rec_basis" >
    <v>       0.10023590      -0.03543874       0.00000000 </v>
    <v>       0.00000000       0.10631623       0.00000000 </v>
    <v>      -0.05011795      -0.03543874       0.08680684 </v>
   </varray>
  </crystal>
  <varray name="positions" >
   <v>       0.29166667       0.29166667       0.29166667 </v>
   <v>       0.29166667       0.29166667       0.62500000 </v>
   <v>       0.29166667       0.29166667       0.95833333 </v>
   <v>       0.29166667       0.62500000       0.29166667 </v>
   <v>       0.29166667       0.62500000       0.62500000 </v>
   <v>       0.29166667       0.62500000       0.95833333 </v>
   <v>       0.29166667       0.95833333       0.29166667 </v>
   <v>       0.29166667       0.95833333       0.62500000 </v>
   <v>       0.29166667       0.95833333       0.95833333 </v>
   <v>       0.62500000       0.29166667       0.29166667 </v>
   <v>       0.62500000       0.29166667       0.62500000 </v>
   <v>       0.62500000       0.29166667       0.95833333 </v>
   <v>       0.62500000       0.62500000       0.29166667 </v>
   <v>       0.62500000       0.62500000       0.62500000 </v>
   <v>       0.62500000       0.62500000       0.95833333 </v>
   <v>       0.62500000       0.95833333       0.29166667 </v>
   <v>       0.62500000       0.95833333       0.62500000 </v>
   <v>       0.62500000       0.95833333       0.95833333 </v>
   <v>       0.95833333       0.29166667       0.29166667 </v>
   <v>       0.95833333       0.29166667       0.62500000 </v>
   <v>       0.95833333       0.29166667       0.95833333 </v>
   <v>       0.95833333       0.62500000       0.29166667 </v>
   <v>       0.95833333       0.62500000       0.62500000 </v>
   <v>       0.95833333       0.62500000       0.95833333 </v>
   <v>       0.95833333       0.95833333       0.29166667 </v>
   <v>       0.95833333       0.95833333       0.62500000 </v>
   <v>       0.95833333       0.95833333       0.95833333 </v>
   <v>       0.04166667       0.04166667       0.04166667 </v>
   <v>       0.04166667       0.04166667       0.37500000 </v>
   <v>       0.04166667       0.04166667       0.70833333 </v>
   <v>       0.04166667       0.37500000       0.04166667 </v>
   <v>       0.04166667       0.37500000       0.37500000 </v>
   <v>       0.04166667       0.37500000       0.70833333 </v>
   <v>       0.04166667       0.70833333       0.04166667 </v>
   <v>       0.04166667       0.70833333       0.37500000 </v>
   <v>       0.04166667       0.70833333       0.70833333 </v>
   <v>       0.37500000       0.04166667       0.04166667 </v>
   <v>       0.37500000       0.04166667       0.37500000 </v>
   <v>       0.37500000       0.04166667       0.70833333 </v>
   <v>       0.37500000       0.37500000       0.04166667 </v>
   <v>       0.37500000       0.37500000       0.37500000 </v>
   <v>       0.37500000       0.37500000       0.70833333 </v>
   <v>       0.37500000       0.70833333       0.04166667 </v>
   <v>       0.37500000       0.70833333       0.37500000 </v>
   <v>       0.37500000       0.70833333       0.70833333 </v>
   <v>       0.70833333       0.04166667       0.04166667 </v>
   <v>       0.70833333       0.04166667       0.37500000 </v>
   <v>       0.70833333       0.04166667       0.70833333 </v>
   <v>       0.70833333       0.37500000       0.04166667 </v>
   <v>       0.70833333       0.37500000       0.37500000 </v>
   <v>       0.70833333       0.37500000       0.70833333 </v>
   <v>       0.70833333       0.70833333       0.04166667 </v>
   <v>       0.70833333       0.70833333       0.37500000 </v>
   <v>       0.70833333       0.70833333       0.70833333 </v>
  </varray>
 </structure>
 <calculation>
  <scstep>
   <time name="dav">    4.16    4.21</time>
   <time name="total">    4.39    4.47</time>
   <energy>
    <i name="alphaZ">     93.56316191 </i>
    <i name="ewald">  -6229.80980546 </i>
    <i name="hartreedc">   -311.93506175 </i>
    <i name="XCdc">   -489.62529972 </i>
    <i name="pawpsdc">   4810.32140949 </i>
    <i name="pawaedc">  -3869.71602298 </i>
    <i name="eentropy">     -0.01668480 </i>
    <i name="bandstr">    909.22207938 </i>
    <i name="atom">   5638.56506835 </i>
    <i name="e_fr_energy">    550.56884442 </i>
    <i name="e_wo_entrp">    550.58552922 </i>
    <i name="e_0_energy">    550.57718682 </i>
   </energy>
  </scstep>
  <scstep>
   <time name="dav">    5.08    5.14</time>
   <time name="total">    5.08    5.14</time>
   <energy>
    <i name="e_fr_energy">   -258.51618847 </i>
    <i name="e_wo_entrp">   -258.50653085 </i>
    <i name="e_0_energy">   -258.51135966 </i>
   </energy>
  </scstep>
  <scstep>
   <time name="dav">    5.67    5.73</time>
   <time name="total">    6.13    6.20</time>
   <energy>
    <i name="e_fr_energy">   -307.87283686 </i>
    <i name="e_wo_entrp">   -307.87045228 </i>
    <i name="e_0_energy">   -307.87164457 </i>
   </energy>
  </scstep>
  <scstep>
   <time name="dav">    4.88    4.94</time>
   <time name="total">    5.36    5.43</time>
   <energy>
    <i name="e_fr_energy">   -308.85626234 </i>
    <i name="e_wo_entrp">   -308.85386452 </i>
    <i name="e_0_energy">   -308.85506343 </i>
   </energy>
  </scstep>
  <scstep>
   <time name="dav">    4.05    4.10</time>
   <time name="total">    4.30    4.36</time>
   <energy>
    <i name="e_fr_energy">   -308.87749043 </i>
    <i name="e_wo_entrp">   -308.87509270 </i>
    <i name="e_0_energy">   -308.87629157 </i>
   </energy>
  </scstep>
  <scstep>
   <time name="dav">    5.22    5.28</time>
   <time name="total">    6.13    6.20</time>
   <energy>
    <i name="e_fr_energy">   -307.44028432 </i>
    <i name="e_wo_entrp">   -307.43787721 </i>
    <i name="e_0_energy">   -307.43908076 </i>
   </energy>
  </scstep>
  <scstep>
   <time name="dav">    4.57    4.62</time>
   <time name="total">    4.84    4.89</time>
   <energy>
    <i name="e_fr_energy">   -304.68130739 </i>
    <i name="e_wo_entrp">   -304.67888839 </i>
    <i name="e_0_energy">   -304.68009789 </i>
   </energy>
  </scstep>
  <scstep>
   <time name="dav">    4.40    4.44</time>
   <time name="total">    4.71    4.75</time>
   <energy>
    <i name="e_fr_energy">   -304.64505537 </i>
    <i name="e_wo_entrp">   -304.64265713 </i>
    <i name="e_0_energy">   -304.64385625 </i>
   </energy>
  </scstep>
  <scstep>
   <time name="dav">    4.18    4.21</time>
   <time name="total">    4.53    4.57</time>
   <energy>
    <i name="e_fr_energy">   -304.66131377 </i>
    <i name="e_wo_entrp">   -304.65891695 </i>
    <i name="e_0_energy">   -304.66011536 </i>
   </energy>
  </scstep>
  <scstep>
   <time name="dav">    4.34    4.39</time>
   <time name="total">    5.47    5.54</time>
   <energy>
    <i name="e_fr_energy">   -304.66275318 </i>
    <i name="e_wo_entrp">   -304.66035603 </i>
    <i name="e_0_energy">   -304.66155461 </i>
   </energy>
  </scstep>
  <scstep>
   <time name="dav">    4.77    4.81</time>
   <time name="total">    5.73    5.79</time>
   <energy>
    <i name="e_fr_energy">   -304.67060769 </i>
    <i name="e_wo_entrp">   -304.66821303 </i>
    <i name="e_0_energy">   -304.66941036 </i>
   </energy>
  </scstep>
  <scstep>
   <time name="dav">    6.30    6.37</time>
   <time name="total">    7.23    7.31</time>
   <energy>
    <i name="e_fr_energy">   -304.67114827 </i>
    <i name="e_wo_entrp">   -304.66875346 </i>
    <i name="e_0_energy">   -304.66995087 </i>
   </energy>
  </scstep>
  <scstep>
   <time name="dav">    5.63    5.69</time>
   <time name="total">    6.62    6.69</time>
   <energy>
    <i name="e_fr_energy">   -304.67187942 </i>
    <i name="e_wo_entrp">   -304.66948440 </i>
    <i name="e_0_energy">   -304.67068191 </i>
   </energy>
  </scstep>
  <scstep>
   <time name="dav">    6.06    6.13</time>
   <time name="total">    6.99    7.06</time>
   <energy>
    <i name="e_fr_energy">   -304.67263274 </i>
    <i name="e_wo_entrp">   -304.67023783 </i>
    <i name="e_0_energy">   -304.67143528 </i>
   </energy>
  </scstep>
  <scstep>
   <time name="dav">    4.91    4.96</time>
   <time name="total">    5.83    5.90</time>
   <energy>
    <i name="e_fr_energy">   -304.67255974 </i>
    <i name="e_wo_entrp">   -304.67016460 </i>
    <i name="e_0_energy">   -304.67136217 </i>
   </energy>
  </scstep>
  <scstep>
   <time name="dav">    4.77    4.81</time>
   <time name="total">    5.23    5.28</time>
   <energy>
    <i name="e_fr_energy">   -304.67257084 </i>
    <i name="e_wo_entrp">   -304.67017552 </i>
    <i name="e_0_energy">   -304.67137318 </i>
   </energy>
  </scstep>
  <scstep>
   <time name="dav">    3.90    3.96</time>
   <time name="total">    4.18    4.24</time>
   <energy>
    <i name="e_fr_energy">   -304.67257061 </i>
    <i name="e_wo_entrp">   -304.67017539 </i>
    <i name="e_0_energy">   -304.67137300 </i>
   </energy>
  </scstep>
  <scstep>
   <time name="dav">    4.06    4.11</time>
   <time name="total">    4.60    4.65</time>
   <energy>
    <i name="alphaZ">     93.56316191 </i>
    <i name="ewald">  -6229.80980546 </i>
    <i name="hartreedc">   -412.05696194 </i>
    <i name="XCdc">   -478.63286420 </i>
    <i name="pawpsdc">  23021.89343797 </i>
    <i name="pawaedc"> -22086.83129919 </i>
    <i name="eentropy">     -0.00239522 </i>
    <i name="bandstr">    148.63908680 </i>
    <i name="atom">   5638.56506835 </i>
    <i name="e_fr_energy">   -304.67257097 </i>
    <i name="e_wo_entrp">   -304.67017575 </i>
    <i name="e_0_energy">   -304.67137336 </i>
   </energy>
  </scstep>
  <structure>
   <crystal>
    <varray name="basis" >
     <v>       9.97646553       0.00000000       5.75991507 </v>
     <v>       3.32548851       9.40590192       5.75991507 </v>
     <v>       0.00000000       0.00000000      11.51983014 </v>
    </varray>
    <i name="volume">   1080.99386112 </i>
    <varray name="rec_basis" >
     <v>       0.10023590      -0.03543874       0.00000000 </v>
     <v>       0.00000000       0.10631623       0.00000000 </v>
     <v>      -0.05011795      -0.03543874       0.08680684 </v>
    </varray>
   </crystal>
   <varray name="positions" >
    <v>       0.29166667       0.29166667       0.29166667 </v>
    <v>       0.29166667       0.29166667       0.62500000 </v>
    <v>       0.29166667       0.29166667       0.95833333 </v>
    <v>       0.29166667       0.62500000       0.29166667 </v>
    <v>       0.29166667       0.62500000       0.62500000 </v>
    <v>       0.29166667       0.62500000       0.95833333 </v>
    <v>       0.29166667       0.95833333       0.29166667 </v>
    <v>       0.29166667       0.95833333       0.62500000 </v>
    <v>       0.29166667       0.95833333       0.95833333 </v>
    <v>       0.62500000       0.29166667       0.29166667 </v>
    <v>       0.62500000       0.29166667       0.62500000 </v>
    <v>       0.62500000       0.29166667       0.95833333 </v>
    <v>       0.62500000       0.62500000       0.29166667 </v>
    <v>       0.62500000       0.62500000       0.62500000 </v>
    <v>       0.62500000       0.62500000       0.95833333 </v>
    <v>       0.62500000       0.95833333       0.29166667 </v>
    <v>       0.62500000       0.95833333       0.62500000 </v>
    <v>       0.62500000       0.95833333       0.95833333 </v>
    <v>       0.95833333       0.29166667       0.29166667 </v>
    <v>       0.95833333       0.29166667       0.62500000 </v>
    <v>       0.95833333       0.29166667       0.95833333 </v>
    <v>       0.95833333       0.62500000       0.29166667 </v>
    <v>       0.95833333       0.62500000       0.62500000 </v>
    <v>       0.95833333       0.62500000       0.95833333 </v>
    <v>       0.95833333       0.95833333       0.29166667 </v>
    <v>       0.95833333       0.95833333       0.62500000 </v>
    <v>       0.95833333       0.95833333       0.95833333 </v>
    <v>       0.04166667       0.04166667       0.04166667 </v>
    <v>       0.04166667       0.04166667       0.37500000 </v>
    <v>       0.04166667       0.04166667       0.70833333 </v>
    <v>       0.04166667       0.37500000       0.04166667 </v>
    <v>       0.04166667       0.37500000       0.37500000 </v>
    <v>       0.04166667       0.37500000       0.70833333 </v>
    <v>       0.04166667       0.70833333       0.04166667 </v>
    <v>       0.04166667       0.70833333       0.37500000 </v>
    <v>       0.04166667       0.70833333       0.70833333 </v>
    <v>       0.37500000       0.04166667       0.04166667 </v>
    <v>       0.37500000       0.04166667       0.37500000 </v>
    <v>       0.37500000       0.04166667       0.70833333 </v>
    <v>       0.37500000       0.37500000       0.04166667 </v>
    <v>       0.37500000       0.37500000       0.37500000 </v>
    <v>       0.37500000       0.37500000       0.70833333 </v>
    <v>       0.37500000       0.70833333       0.04166667 </v>
    <v>       0.37500000       0.70833333       0.37500000 </v>
    <v>       0.37500000       0.70833333       0.70833333 </v>
    <v>       0.70833333       0.04166667       0.04166667 </v>
    <v>       0.70833333       0.04166667       0.37500000 </v>
    <v>       0.70833333       0.04166667       0.70833333 </v>
    <v>       0.70833333       0.37500000       0.04166667 </v>
    <v>       0.70833333       0.37500000       0.37500000 </v>
    <v>       0.70833333       0.37500000       0.70833333 </v>
    <v>       0.70833333       0.70833333       0.04166667 </v>
    <v>       0.70833333       0.70833333       0.37500000 </v>
    <v>       0.70833333       0.70833333       0.70833333 </v>
   </varray>
  </structure>
  <varray name="forces" >
   <v>       0.00000000      -0.00000000       0.00000000 </v>
   <v>      -0.20132128      -0.14235564      -0.02352118 </v>
   <v>      -0.20132128      -0.14235564       0.02352118 </v>
   <v>      -0.10745062       0.12315068      -0.18610993 </v>
   <v>      -0.03779610       0.01336294      -0.00000000 </v>
   <v>      -0.10745062       0.12315068       0.18610993 </v>
   <v>      -0.09387066       0.16156061      -0.16258875 </v>
   <v>      -0.09387066       0.16156061       0.16258875 </v>
   <v>      -0.04128540       0.01459659       0.00000000 </v>
   <v>       0.08029070      -0.14235564      -0.18610993 </v>
   <v>       0.00000000      -0.04008882      -0.00000000 </v>
   <v>       0.08029070      -0.14235564       0.18610993 </v>
   <v>       0.01889805       0.01336294      -0.03273239 </v>
   <v>       0.01889805       0.01336294       0.03273239 </v>
   <v>       0.00637411       0.00450718       0.00000000 </v>
   <v>       0.18774132       0.16156061      -0.00000000 </v>
   <v>       0.00318705      -0.00450718       0.00552014 </v>
   <v>       0.00318705      -0.00450718      -0.00552014 </v>
   <v>       0.12103058      -0.14235564      -0.16258875 </v>
   <v>       0.12103058      -0.14235564       0.16258875 </v>
   <v>       0.00000000      -0.04378978      -0.00000000 </v>
   <v>       0.21490124       0.12315068      -0.00000000 </v>
   <v>      -0.00318705       0.00450718       0.00552014 </v>
   <v>      -0.00318705       0.00450718      -0.00552014 </v>
   <v>       0.02064270       0.01459659      -0.03575420 </v>
   <v>      -0.00637411      -0.00450718       0.00000000 </v>
   <v>       0.02064270       0.01459659       0.03575420 </v>
   <v>       0.00000000      -0.00000000       0.00000000 </v>
   <v>      -0.03175797      -0.02245627       0.03220943 </v>
   <v>      -0.03175797      -0.02245627      -0.03220943 </v>
   <v>      -0.00658092       0.04875516      -0.01139849 </v>
   <v>       0.05217595      -0.01844698      -0.00000000 </v>
   <v>      -0.00658092       0.04875516       0.01139849 </v>
   <v>      -0.02517704      -0.00384262      -0.04360792 </v>
   <v>      -0.02517704      -0.00384262       0.04360792 </v>
   <v>       0.00146982      -0.00051966       0.00000000 </v>
   <v>       0.04377317      -0.02245627      -0.01139849 </v>
   <v>       0.00000000       0.05534095       0.00000000 </v>
   <v>       0.04377317      -0.02245627       0.01139849 </v>
   <v>      -0.02608797      -0.01844698       0.04518570 </v>
   <v>      -0.02608797      -0.01844698      -0.04518570 </v>
   <v>       0.17652345       0.12482093      -0.00000000 </v>
   <v>       0.05035409      -0.00384262       0.00000000 </v>
   <v>       0.08826172      -0.12482093       0.15287379 </v>
   <v>       0.08826172      -0.12482093      -0.15287379 </v>
   <v>      -0.01201520      -0.02245627      -0.04360792 </v>
   <v>      -0.01201520      -0.02245627       0.04360792 </v>
   <v>       0.00000000       0.00155898       0.00000000 </v>
   <v>       0.01316184       0.04875516       0.00000000 </v>
   <v>      -0.08826172       0.12482093       0.15287379 </v>
   <v>      -0.08826172       0.12482093      -0.15287379 </v>
   <v>      -0.00073491      -0.00051966       0.00127290 </v>
   <v>      -0.17652345      -0.12482093      -0.00000000 </v>
   <v>      -0.00073491      -0.00051966      -0.00127290 </v>
  </varray>
  <varray name="stress" >
   <v>     -12.53064516       0.00000000      -0.00000000 </v>
   <v>       0.00000000     -12.53064520       0.00000000 </v>
   <v>      -0.00000000       0.00000000     -12.53064520 </v>
  </varray>
  <energy>
   <i name="e_fr_energy">   -304.67257097 </i>
   <i name="e_wo_entrp">   -304.67137336 </i>
   <i name="e_0_energy">     -0.00239522 </i>
  </energy>
  <time name="totalsc">  111.85  113.41</time>
  <eigenvalues>
   <array>
    <dimension dim="1">band</dimension>
    <dimension dim="2">kpoint</dimension>
    <dimension dim="3">spin</dimension>
    <field>eigene</field>
    <field>occ</field>
    <set>
     <set comment="spin 1">
      <set comment="kpoint 1">
       <r>   -6.7265    1.0000 </r>
       <r>   -5.8201    1.0000 </r>
       <r>   -4.7811    1.0000 </r>
       <r>   -4.7811    1.0000 </r>
       <r>   -4.7811    1.0000 </r>
       <r>   -4.7245    1.0000 </r>
       <r>   -4.7245    1.0000 </r>
       <r>   -4.7245    1.0000 </r>
       <r>   -4.6938    1.0000 </r>
       <r>   -4.3643    1.0000 </r>
       <r>   -4.2244    1.0000 </r>
       <r>   -4.2244    1.0000 </r>
       <r>   -4.2244    1.0000 </r>
       <r>   -4.2046    1.0000 </r>
       <r>   -4.2046    1.0000 </r>
       <r>   -3.4166    1.0000 </r>
       <r>   -2.9528    1.0000 </r>
       <r>   -2.9528    1.0000 </r>
       <r>   -2.9528    1.0000 </r>
       <r>   -2.8585    1.0000 </r>
       <r>   -2.8585    1.0000 </r>
       <r>   -2.8585    1.0000 </r>
       <r>   -2.8353    1.0000 </r>
       <r>   -2.8353    1.0000 </r>
       <r>   -2.8094    1.0000 </r>
       <r>   -2.8094    1.0000 </r>
       <r>   -2.8094    1.0000 </r>
       <r>   -1.4385    1.0000 </r>
       <r>   -1.0782    1.0000 </r>
       <r>   -1.0782    1.0000 </r>
       <r>   -1.0782    1.0000 </r>
       <r>   -0.9379    1.0000 </r>
       <r>   -0.9379    1.0000 </r>
       <r>   -0.9379    1.0000 </r>
       <r>   -0.9073    1.0000 </r>
       <r>   -0.9073    1.0000 </r>
       <r>   -0.8839    1.0000 </r>
       <r>   -0.8839    1.0000 </r>
       <r>   -0.8839    1.0000 </r>
       <r>    0.2488    1.0000 </r>
       <r>    0.3353    1.0000 </r>
       <r>    0.3353    1.0000 </r>
       <r>    0.3353    1.0000 </r>
       <r>    0.5084    1.0000 </r>
       <r>    0.5084    1.0000 </r>
       <r>    0.5084    1.0000 </r>
       <r>    0.5256    1.0000 </r>
       <r>    0.7687    1.0000 </r>
       <r>    0.7890    1.0000 </r>
       <r>    0.7890    1.0000 </r>
       <r>    0.7890    1.0000 </r>
       <r>    0.8304    1.0000 </r>
       <r>    0.8304    1.0000 </r>
       <r>    1.2028    1.0000 </r>
       <r>    1.2028    1.0000 </r>
       <r>    1.2028    1.0000 </r>
       <r>    1.4123    1.0000 </r>
       <r>    1.4123    1.0000 </r>
       <r>    1.4766    1.0000 </r>
       <r>    1.4766    1.0000 </r>
       <r>    1.4766    1.0000 </r>
       <r>    1.4907    1.0000 </r>
       <r>    1.4907    1.0000 </r>
       <r>    1.4907    1.0000 </r>
       <r>    1.4930    1.0000 </r>
       <r>    2.9678    1.0000 </r>
       <r>    2.9678    1.0000 </r>
       <r>    2.9678    1.0000 </r>
       <r>    3.3940    1.0000 </r>
       <r>    3.3940    1.0000 </r>
       <r>    3.3940    1.0000 </r>
       <r>    3.4234    1.0000 </r>
       <r>    3.4234    1.0000 </r>
       <r>    3.4234    1.0000 </r>
       <r>    3.4475    1.0000 </r>
       <r>    3.4475    1.0000 </r>
       <r>    3.4475    1.0000 </r>
       <r>    3.6619    1.0000 </r>
       <r>    3.6619    1.0000 </r>
       <r>    3.6619    1.0000 </r>
       <r>    3.7211    1.0000 </r>
       <r>    3.7211    1.0000 </r>
       <r>    3.7211    1.0000 </r>
       <r>    3.7275    1.0000 </r>
       <r>    3.7275    1.0000 </r>
       <r>    3.7432    1.0000 </r>
       <r>    3.7558    1.0000 </r>
       <r>    3.7558    1.0000 </r>
       <r>    3.7558    1.0000 </r>
       <r>    4.5802    1.0000 </r>
       <r>    4.5802    1.0000 </r>
       <r>    4.5802    1.0000 </r>
       <r>    4.8123    1.0000 </r>
       <r>    4.8123    1.0000 </r>
       <r>    4.8145    1.0000 </r>
       <r>    4.8145    1.0000 </r>
       <r>    4.8145    1.0000 </r>
       <r>    4.8672    1.0000 </r>
       <r>    4.8672    1.0000 </r>
       <r>    4.8672    1.0000 </r>
       <r>    4.8697    1.0000 </r>
       <r>    4.8697    1.0000 </r>
       <r>    4.8702    1.0000 </r>
       <r>    4.8702    1.0000 </r>
       <r>    4.8702    1.0000 </r>
       <r>    5.8035    0.0000 </r>
       <r>    5.8035    0.0000 </r>
       <r>    5.8035    0.0000 </r>
       <r>    6.2880    0.0000 </r>
       <r>    6.5252    0.0000 </r>
       <r>    6.5252    0.0000 </r>
       <r>    6.5252    0.0000 </r>
       <r>    6.5828    0.0000 </r>
       <r>    6.5828    0.0000 </r>
       <r>    6.9257    0.0000 </r>
       <r>    7.3196    0.0000 </r>
       <r>    7.3196    0.0000 </r>
       <r>    7.3196    0.0000 </r>
       <r>    7.3897    0.0000 </r>
       <r>    7.3897    0.0000 </r>
       <r>    7.4261    0.0000 </r>
       <r>    7.4261    0.0000 </r>
       <r>    7.4261    0.0000 </r>
       <r>    7.4424    0.0000 </r>
       <r>    7.4424    0.0000 </r>
       <r>    7.4424    0.0000 </r>
       <r>    7.5443    0.0000 </r>
       <r>    7.5769    0.0000 </r>
       <r>    7.5769    0.0000 </r>
       <r>    7.5769    0.0000 </r>
       <r>    7.6420    0.0000 </r>
       <r>    7.6479    0.0000 </r>
       <r>    7.6479    0.0000 </r>
       <r>    7.6479    0.0000 </r>
       <r>    7.8490    0.0000 </r>
       <r>    7.8490    0.0000 </r>
       <r>    7.8490    0.0000 </r>
       <r>    7.8564    0.0000 </r>
       <r>    7.8564    0.0000 </r>
       <r>    7.8610    0.0000 </r>
       <r>    8.3532    0.0000 </r>
       <r>    8.3532    0.0000 </r>
       <r>    8.3532    0.0000 </r>
       <r>    9.1293    0.0000 </r>
      </set>
      <set comment="kpoint 2">
       <r>   -6.7083    1.0000 </r>
       <r>   -5.7917    1.0000 </r>
       <r>   -5.2277    1.0000 </r>
       <r>   -4.8810    1.0000 </r>
       <r>   -4.8810    1.0000 </r>
       <r>   -4.7029    1.0000 </r>
       <r>   -4.6092    1.0000 </r>
       <r>   -4.6092    1.0000 </r>
       <r>   -4.5212    1.0000 </r>
       <r>   -4.4473    1.0000 </r>
       <r>   -4.4473    1.0000 </r>
       <r>   -4.1930    1.0000 </r>
       <r>   -3.8713    1.0000 </r>
       <r>   -3.6900    1.0000 </r>
       <r>   -3.6900    1.0000 </r>
       <r>   -3.5906    1.0000 </r>
       <r>   -3.4557    1.0000 </r>
       <r>   -3.4557    1.0000 </r>
       <r>   -3.1058    1.0000 </r>
       <r>   -2.9049    1.0000 </r>
       <r>   -2.9049    1.0000 </r>
       <r>   -2.8537    1.0000 </r>
       <r>   -2.8163    1.0000 </r>
       <r>   -2.8163    1.0000 </r>
       <r>   -2.6757    1.0000 </r>
       <r>   -2.5886    1.0000 </r>
       <r>   -2.5886    1.0000 </r>
       <r>   -1.5192    1.0000 </r>
       <r>   -1.2370    1.0000 </r>
       <r>   -1.2370    1.0000 </r>
       <r>   -1.1983    1.0000 </r>
       <r>   -1.0502    1.0000 </r>
       <r>   -1.0502    1.0000 </r>
       <r>   -0.9735    1.0000 </r>
       <r>   -0.9374    1.0000 </r>
       <r>   -0.9374    1.0000 </r>
       <r>   -0.6742    1.0000 </r>
       <r>   -0.5266    1.0000 </r>
       <r>   -0.4930    1.0000 </r>
       <r>   -0.4930    1.0000 </r>
       <r>   -0.1178    1.0000 </r>
       <r>   -0.0081    1.0000 </r>
       <r>   -0.0081    1.0000 </r>
       <r>    0.1092    1.0000 </r>
       <r>    0.1092    1.0000 </r>
       <r>    0.1374    1.0000 </r>
       <r>    0.8441    1.0000 </r>
       <r>    0.8788    1.0000 </r>
       <r>    0.8788    1.0000 </r>
       <r>    1.2593    1.0000 </r>
       <r>    1.2846    1.0000 </r>
       <r>    1.2846    1.0000 </r>
       <r>    1.4203    1.0000 </r>
       <r>    1.4733    1.0000 </r>
       <r>    1.4733    1.0000 </r>
       <r>    1.6148    1.0000 </r>
       <r>    1.6148    1.0000 </r>
       <r>    1.6511    1.0000 </r>
       <r>    1.6723    1.0000 </r>
       <r>    1.6728    1.0000 </r>
       <r>    1.6728    1.0000 </r>
       <r>    1.7723    1.0000 </r>
       <r>    1.8373    1.0000 </r>
       <r>    1.8373    1.0000 </r>
       <r>    1.9342    1.0000 </r>
       <r>    2.6861    1.0000 </r>
       <r>    2.8151    1.0000 </r>
       <r>    2.8151    1.0000 </r>
       <r>    3.0673    1.0000 </r>
       <r>    3.0673    1.0000 </r>
       <r>    3.1551    1.0000 </r>
       <r>    3.2754    1.0000 </r>
       <r>    3.3558    1.0000 </r>
       <r>    3.3558    1.0000 </r>
       <r>    3.4163    1.0000 </r>
       <r>    3.4163    1.0000 </r>
       <r>    3.4231    1.0000 </r>
       <r>    3.4400    1.0000 </r>
       <r>    3.4400    1.0000 </r>
       <r>    3.4539    1.0000 </r>
       <r>    3.5009    1.0000 </r>
       <r>    3.5143    1.0000 </r>
       <r>    3.5143    1.0000 </r>
       <r>    3.6519    1.0000 </r>
       <r>    3.6519    1.0000 </r>
       <r>    3.7137    1.0000 </r>
       <r>    3.8856    1.0000 </r>
       <r>    3.9867    1.0000 </r>
       <r>    3.9867    1.0000 </r>
       <r>    4.0556    1.0000 </r>
       <r>    4.0556    1.0000 </r>
       <r>    4.1249    1.0000 </r>
       <r>    4.4296    1.0000 </r>
       <r>    4.4296    1.0000 </r>
       <r>    4.4685    1.0000 </r>
       <r>    4.5280    1.0000 </r>
       <r>    4.5616    1.0000 </r>
       <r>    4.5616    1.0000 </r>
       <r>    4.6512    1.0000 </r>
       <r>    4.6512    1.0000 </r>
       <r>    4.8131    1.0000 </r>
       <r>    4.8131    1.0000 </r>
       <r>    4.8517    1.0000 </r>
       <r>    4.9613    1.0000 </r>
       <r>    5.0561    1.0000 </r>
       <r>    5.0561    1.0000 </r>
       <r>    5.6640    0.0000 </r>
       <r>    5.6640    0.0000 </r>
       <r>    6.5398    0.0000 </r>
       <r>    6.7023    0.0000 </r>
       <r>    6.7023    0.0000 </r>
       <r>    6.8242    0.0000 </r>
       <r>    7.0167    0.0000 </r>
       <r>    7.0167    0.0000 </r>
       <r>    7.0887    0.0000 </r>
       <r>    7.1196    0.0000 </r>
       <r>    7.1196    0.0000 </r>
       <r>    7.3300    0.0000 </r>
       <r>    7.5187    0.0000 </r>
       <r>    7.6856    0.0000 </r>
       <r>    7.6856    0.0000 </r>
       <r>    7.7638    0.0000 </r>
       <r>    7.8340    0.0000 </r>
       <r>    7.8340    0.0000 </r>
       <r>    7.8654    0.0000 </r>
       <r>    7.9144    0.0000 </r>
       <r>    7.9376    0.0000 </r>
       <r>    7.9376    0.0000 </r>
       <r>    7.9945    0.0000 </r>
       <r>    7.9945    0.0000 </r>
       <r>    8.0096    0.0000 </r>
       <r>    8.0426    0.0000 </r>
       <r>    8.0460    0.0000 </r>
       <r>    8.0460    0.0000 </r>
       <r>    8.1366    0.0000 </r>
       <r>    8.1545    0.0000 </r>
       <r>    8.1545    0.0000 </r>
       <r>    8.3963    0.0000 </r>
       <r>    8.5560    0.0000 </r>
       <r>    8.5560    0.0000 </r>
       <r>    8.6085    0.0000 </r>
       <r>    8.6354    0.0000 </r>
       <r>    8.6354    0.0000 </r>
       <r>    8.9887    0.0000 </r>
      </set>
      <set comment="kpoint 3">
       <r>   -6.6889    1.0000 </r>
       <r>   -5.7300    1.0000 </r>
       <r>   -5.4674    1.0000 </r>
       <r>   -4.8708    1.0000 </r>
       <r>   -4.8708    1.0000 </r>
       <r>   -4.7821    1.0000 </r>
       <r>   -4.7821    1.0000 </r>
       <r>   -4.7663    1.0000 </r>
       <r>   -4.3910    1.0000 </r>
       <r>   -4.0492    1.0000 </r>
       <r>   -4.0396    1.0000 </r>
       <r>   -4.0396    1.0000 </r>
       <r>   -3.9973    1.0000 </r>
       <r>   -3.9973    1.0000 </r>
       <r>   -3.8185    1.0000 </r>
       <r>   -3.3956    1.0000 </r>
       <r>   -3.0958    1.0000 </r>
       <r>   -3.0829    1.0000 </r>
       <r>   -3.0829    1.0000 </r>
       <r>   -3.0452    1.0000 </r>
       <r>   -3.0452    1.0000 </r>
       <r>   -2.9326    1.0000 </r>
       <r>   -2.8839    1.0000 </r>
       <r>   -2.8839    1.0000 </r>
       <r>   -2.8488    1.0000 </r>
       <r>   -2.8104    1.0000 </r>
       <r>   -2.8104    1.0000 </r>
       <r>   -1.4662    1.0000 </r>
       <r>   -1.2024    1.0000 </r>
       <r>   -1.1086    1.0000 </r>
       <r>   -1.1086    1.0000 </r>
       <r>   -1.0075    1.0000 </r>
       <r>   -0.9757    1.0000 </r>
       <r>   -0.9757    1.0000 </r>
       <r>   -0.8798    1.0000 </r>
       <r>   -0.7560    1.0000 </r>
       <r>   -0.7560    1.0000 </r>
       <r>   -0.7322    1.0000 </r>
       <r>   -0.7160    1.0000 </r>
       <r>   -0.7160    1.0000 </r>
       <r>   -0.2417    1.0000 </r>
       <r>   -0.2417    1.0000 </r>
       <r>   -0.2403    1.0000 </r>
       <r>   -0.1646    1.0000 </r>
       <r>   -0.1533    1.0000 </r>
       <r>   -0.1533    1.0000 </r>
       <r>    1.1646    1.0000 </r>
       <r>    1.1874    1.0000 </r>
       <r>    1.1874    1.0000 </r>
       <r>    1.4107    1.0000 </r>
       <r>    1.4107    1.0000 </r>
       <r>    1.4404    1.0000 </r>
       <r>    1.6606    1.0000 </r>
       <r>    1.6606    1.0000 </r>
       <r>    1.7690    1.0000 </r>
       <r>    1.8613    1.0000 </r>
       <r>    1.8667    1.0000 </r>
       <r>    1.8667    1.0000 </r>
       <r>    1.8804    1.0000 </r>
       <r>    2.1530    1.0000 </r>
       <r>    2.1530    1.0000 </r>
       <r>    2.2226    1.0000 </r>
       <r>    2.2226    1.0000 </r>
       <r>    2.2398    1.0000 </r>
       <r>    2.5077    1.0000 </r>
       <r>    2.7347    1.0000 </r>
       <r>    2.7471    1.0000 </r>
       <r>    2.7471    1.0000 </r>
       <r>    2.8040    1.0000 </r>
       <r>    2.8040    1.0000 </r>
       <r>    2.9828    1.0000 </r>
       <r>    2.9828    1.0000 </r>
       <r>    3.0083    1.0000 </r>
       <r>    3.0860    1.0000 </r>
       <r>    3.1089    1.0000 </r>
       <r>    3.1089    1.0000 </r>
       <r>    3.1236    1.0000 </r>
       <r>    3.1236    1.0000 </r>
       <r>    3.2603    1.0000 </r>
       <r>    3.3226    1.0000 </r>
       <r>    3.3226    1.0000 </r>
       <r>    3.3227    1.0000 </r>
       <r>    3.4008    1.0000 </r>
       <r>    3.4267    1.0000 </r>
       <r>    3.7248    1.0000 </r>
       <r>    3.7897    1.0000 </r>
       <r>    3.7897    1.0000 </r>
       <r>    3.8743    1.0000 </r>
       <r>    3.8815    1.0000 </r>
       <r>    3.8815    1.0000 </r>
       <r>    3.9232    1.0000 </r>
       <r>    3.9232    1.0000 </r>
       <r>    4.0833    1.0000 </r>
       <r>    4.0914    1.0000 </r>
       <r>    4.0914    1.0000 </r>
       <r>    4.1101    1.0000 </r>
       <r>    4.4390    1.0000 </r>
       <r>    4.4390    1.0000 </r>
       <r>    4.5387    1.0000 </r>
       <r>    4.5401    1.0000 </r>
       <r>    4.5401    1.0000 </r>
       <r>    4.5626    1.0000 </r>
       <r>    4.6304    1.0000 </r>
       <r>    4.6304    1.0000 </r>
       <r>    5.3035    1.0000 </r>
       <r>    5.3035    1.0000 </r>
       <r>    5.4119    0.9983 </r>
       <r>    5.4119    0.9983 </r>
       <r>    6.6355    0.0000 </r>
       <r>    6.8284    0.0000 </r>
       <r>    6.8284    0.0000 </r>
       <r>    6.9546    0.0000 </r>
       <r>    6.9631    0.0000 </r>
       <r>    6.9631    0.0000 </r>
       <r>    7.2841    0.0000 </r>
       <r>    7.5654    0.0000 </r>
       <r>    7.7558    0.0000 </r>
       <r>    7.7558    0.0000 </r>
       <r>    7.7948    0.0000 </r>
       <r>    7.8292    0.0000 </r>
       <r>    7.8292    0.0000 </r>
       <r>    8.0483    0.0000 </r>
       <r>    8.1866    0.0000 </r>
       <r>    8.2456    0.0000 </r>
       <r>    8.2496    0.0000 </r>
       <r>    8.2496    0.0000 </r>
       <r>    8.3093    0.0000 </r>
       <r>    8.3093    0.0000 </r>
       <r>    8.3125    0.0000 </r>
       <r>    8.3830    0.0000 </r>
       <r>    8.5027    0.0000 </r>
       <r>    8.5027    0.0000 </r>
       <r>    8.5483    0.0000 </r>
       <r>    8.5664    0.0000 </r>
       <r>    8.5664    0.0000 </r>
       <r>    8.8812    0.0000 </r>
       <r>    8.8812    0.0000 </r>
       <r>    9.0068    0.0000 </r>
       <r>    9.0766    0.0000 </r>
       <r>    9.0766    0.0000 </r>
       <r>    9.1515    0.0000 </r>
       <r>    9.1530    0.0000 </r>
       <r>    9.1603    0.0000 </r>
       <r>    9.2006    0.0000 </r>
      </set>
      <set comment="kpoint 4">
       <r>   -6.7026    1.0000 </r>
       <r>   -5.7752    1.0000 </r>
       <r>   -5.0692    1.0000 </r>
       <r>   -5.0692    1.0000 </r>
       <r>   -5.0471    1.0000 </r>
       <r>   -4.9948    1.0000 </r>
       <r>   -4.7022    1.0000 </r>
       <r>   -4.2715    1.0000 </r>
       <r>   -4.2715    1.0000 </r>
       <r>   -4.2237    1.0000 </r>
       <r>   -4.1373    1.0000 </r>
       <r>   -4.1112    1.0000 </r>
       <r>   -4.1112    1.0000 </r>
       <r>   -4.1066    1.0000 </r>
       <r>   -3.6671    1.0000 </r>
       <r>   -3.4123    1.0000 </r>
       <r>   -3.4123    1.0000 </r>
       <r>   -3.3778    1.0000 </r>
       <r>   -3.2612    1.0000 </r>
       <r>   -3.1488    1.0000 </r>
       <r>   -3.0786    1.0000 </r>
       <r>   -3.0786    1.0000 </r>
       <r>   -3.0656    1.0000 </r>
       <r>   -2.5139    1.0000 </r>
       <r>   -2.3515    1.0000 </r>
       <r>   -2.3515    1.0000 </r>
       <r>   -2.3174    1.0000 </r>
       <r>   -1.6550    1.0000 </r>
       <r>   -1.4600    1.0000 </r>
       <r>   -1.4600    1.0000 </r>
       <r>   -1.4068    1.0000 </r>
       <r>   -1.1077    1.0000 </r>
       <r>   -1.0134    1.0000 </r>
       <r>   -0.9922    1.0000 </r>
       <r>   -0.9922    1.0000 </r>
       <r>   -0.6835    1.0000 </r>
       <r>   -0.5018    1.0000 </r>
       <r>   -0.4380    1.0000 </r>
       <r>   -0.4380    1.0000 </r>
       <r>   -0.3707    1.0000 </r>
       <r>   -0.3082    1.0000 </r>
       <r>   -0.2803    1.0000 </r>
       <r>   -0.2803    1.0000 </r>
       <r>   -0.2504    1.0000 </r>
       <r>    0.5362    1.0000 </r>
       <r>    0.5816    1.0000 </r>
       <r>    0.5816    1.0000 </r>
       <r>    0.6571    1.0000 </r>
       <r>    1.1451    1.0000 </r>
       <r>    1.2639    1.0000 </r>
       <r>    1.2639    1.0000 </r>
       <r>    1.4108    1.0000 </r>
       <r>    1.5225    1.0000 </r>
       <r>    1.5232    1.0000 </r>
       <r>    1.5232    1.0000 </r>
       <r>    1.5967    1.0000 </r>
       <r>    1.6886    1.0000 </r>
       <r>    1.7091    1.0000 </r>
       <r>    1.7091    1.0000 </r>
       <r>    1.7136    1.0000 </r>
       <r>    1.8929    1.0000 </r>
       <r>    1.9398    1.0000 </r>
       <r>    1.9398    1.0000 </r>
       <r>    1.9629    1.0000 </r>
       <r>    2.2910    1.0000 </r>
       <r>    2.7094    1.0000 </r>
       <r>    2.7364    1.0000 </r>
       <r>    2.7364    1.0000 </r>
       <r>    2.9944    1.0000 </r>
       <r>    3.0519    1.0000 </r>
       <r>    3.0589    1.0000 </r>
       <r>    3.0589    1.0000 </r>
       <r>    3.0851    1.0000 </r>
       <r>    3.0988    1.0000 </r>
       <r>    3.0988    1.0000 </r>
       <r>    3.3239    1.0000 </r>
       <r>    3.3812    1.0000 </r>
       <r>    3.3812    1.0000 </r>
       <r>    3.4347    1.0000 </r>
       <r>    3.6252    1.0000 </r>
       <r>    3.6252    1.0000 </r>
       <r>    3.6806    1.0000 </r>
       <r>    3.7713    1.0000 </r>
       <r>    3.7734    1.0000 </r>
       <r>    3.7734    1.0000 </r>
       <r>    3.8199    1.0000 </r>
       <r>    3.8223    1.0000 </r>
       <r>    3.9585    1.0000 </r>
       <r>    3.9585    1.0000 </r>
       <r>    4.0097    1.0000 </r>
       <r>    4.1107    1.0000 </r>
       <r>    4.1107    1.0000 </r>
       <r>    4.1507    1.0000 </r>
       <r>    4.2455    1.0000 </r>
       <r>    4.2609    1.0000 </r>
       <r>    4.2609    1.0000 </r>
       <r>    4.2751    1.0000 </r>
       <r>    4.3729    1.0000 </r>
       <r>    4.3729    1.0000 </r>
       <r>    4.4362    1.0000 </r>
       <r>    4.4374    1.0000 </r>
       <r>    5.0639    1.0000 </r>
       <r>    5.0639    1.0000 </r>
       <r>    5.1083    1.0000 </r>
       <r>    5.1565    1.0000 </r>
       <r>    5.1591    1.0000 </r>
       <r>    5.3968    0.9996 </r>
       <r>    5.3968    0.9996 </r>
       <r>    6.3804    0.0000 </r>
       <r>    6.7273    0.0000 </r>
       <r>    7.0234    0.0000 </r>
       <r>    7.1080    0.0000 </r>
       <r>    7.1619    0.0000 </r>
       <r>    7.1619    0.0000 </r>
       <r>    7.2427    0.0000 </r>
       <r>    7.3958    0.0000 </r>
       <r>    7.4712    0.0000 </r>
       <r>    7.5588    0.0000 </r>
       <r>    7.5588    0.0000 </r>
       <r>    7.5715    0.0000 </r>
       <r>    7.5859    0.0000 </r>
       <r>    7.5859    0.0000 </r>
       <r>    7.6022    0.0000 </r>
       <r>    7.8106    0.0000 </r>
       <r>    7.9009    0.0000 </r>
       <r>    7.9643    0.0000 </r>
       <r>    7.9643    0.0000 </r>
       <r>    8.1091    0.0000 </r>
       <r>    8.1540    0.0000 </r>
       <r>    8.2326    0.0000 </r>
       <r>    8.2326    0.0000 </r>
       <r>    8.2795    0.0000 </r>
       <r>    8.2979    0.0000 </r>
       <r>    8.3158    0.0000 </r>
       <r>    8.3158    0.0000 </r>
       <r>    8.3343    0.0000 </r>
       <r>    8.3974    0.0000 </r>
       <r>    8.3974    0.0000 </r>
       <r>    8.4079    0.0000 </r>
       <r>    8.4152    0.0000 </r>
       <r>    8.8584    0.0000 </r>
       <r>    8.8584    0.0000 </r>
       <r>    8.9440    0.0000 </r>
       <r>    9.0740    0.0000 </r>
      </set>
      <set comment="kpoint 5">
       <r>   -6.6839    1.0000 </r>
       <r>   -5.6783    1.0000 </r>
       <r>   -5.4408    1.0000 </r>
       <r>   -5.1969    1.0000 </r>
       <r>   -5.0899    1.0000 </r>
       <r>   -4.8402    1.0000 </r>
       <r>   -4.5884    1.0000 </r>
       <r>   -4.4017    1.0000 </r>
       <r>   -4.2510    1.0000 </r>
       <r>   -4.1610    1.0000 </r>
       <r>   -4.0086    1.0000 </r>
       <r>   -3.9659    1.0000 </r>
       <r>   -3.8871    1.0000 </r>
       <r>   -3.7940    1.0000 </r>
       <r>   -3.6486    1.0000 </r>
       <r>   -3.5287    1.0000 </r>
       <r>   -3.5129    1.0000 </r>
       <r>   -3.4320    1.0000 </r>
       <r>   -3.3349    1.0000 </r>
       <r>   -3.2871    1.0000 </r>
       <r>   -3.2118    1.0000 </r>
       <r>   -3.1970    1.0000 </r>
       <r>   -2.7103    1.0000 </r>
       <r>   -2.5437    1.0000 </r>
       <r>   -2.4929    1.0000 </r>
       <r>   -2.4156    1.0000 </r>
       <r>   -2.3757    1.0000 </r>
       <r>   -1.6476    1.0000 </r>
       <r>   -1.3776    1.0000 </r>
       <r>   -1.3632    1.0000 </r>
       <r>   -1.2928    1.0000 </r>
       <r>   -1.2919    1.0000 </r>
       <r>   -1.0743    1.0000 </r>
       <r>   -1.0109    1.0000 </r>
       <r>   -0.9387    1.0000 </r>
       <r>   -0.9374    1.0000 </r>
       <r>   -0.6726    1.0000 </r>
       <r>   -0.5901    1.0000 </r>
       <r>   -0.5809    1.0000 </r>
       <r>   -0.5505    1.0000 </r>
       <r>   -0.5397    1.0000 </r>
       <r>   -0.2460    1.0000 </r>
       <r>   -0.1927    1.0000 </r>
       <r>    0.0890    1.0000 </r>
       <r>    0.1361    1.0000 </r>
       <r>    0.1391    1.0000 </r>
       <r>    0.7912    1.0000 </r>
       <r>    0.8137    1.0000 </r>
       <r>    0.9140    1.0000 </r>
       <r>    1.5230    1.0000 </r>
       <r>    1.5505    1.0000 </r>
       <r>    1.6924    1.0000 </r>
       <r>    1.8182    1.0000 </r>
       <r>    1.8448    1.0000 </r>
       <r>    1.9376    1.0000 </r>
       <r>    1.9378    1.0000 </r>
       <r>    2.0738    1.0000 </r>
       <r>    2.1137    1.0000 </r>
       <r>    2.2765    1.0000 </r>
       <r>    2.2839    1.0000 </r>
       <r>    2.3588    1.0000 </r>
       <r>    2.3712    1.0000 </r>
       <r>    2.3730    1.0000 </r>
       <r>    2.3979    1.0000 </r>
       <r>    2.4952    1.0000 </r>
       <r>    2.5470    1.0000 </r>
       <r>    2.5926    1.0000 </r>
       <r>    2.6689    1.0000 </r>
       <r>    2.7323    1.0000 </r>
       <r>    2.7781    1.0000 </r>
       <r>    2.7970    1.0000 </r>
       <r>    2.8934    1.0000 </r>
       <r>    2.9013    1.0000 </r>
       <r>    2.9686    1.0000 </r>
       <r>    2.9817    1.0000 </r>
       <r>    3.0131    1.0000 </r>
       <r>    3.1225    1.0000 </r>
       <r>    3.1729    1.0000 </r>
       <r>    3.1838    1.0000 </r>
       <r>    3.2187    1.0000 </r>
       <r>    3.2470    1.0000 </r>
       <r>    3.2806    1.0000 </r>
       <r>    3.3992    1.0000 </r>
       <r>    3.5504    1.0000 </r>
       <r>    3.5844    1.0000 </r>
       <r>    3.6390    1.0000 </r>
       <r>    3.6624    1.0000 </r>
       <r>    3.7047    1.0000 </r>
       <r>    3.8512    1.0000 </r>
       <r>    3.8731    1.0000 </r>
       <r>    3.8934    1.0000 </r>
       <r>    3.9620    1.0000 </r>
       <r>    4.0000    1.0000 </r>
       <r>    4.1459    1.0000 </r>
       <r>    4.1491    1.0000 </r>
       <r>    4.2107    1.0000 </r>
       <r>    4.2352    1.0000 </r>
       <r>    4.2855    1.0000 </r>
       <r>    4.2868    1.0000 </r>
       <r>    4.3209    1.0000 </r>
       <r>    4.4372    1.0000 </r>
       <r>    4.4512    1.0000 </r>
       <r>    4.7923    1.0000 </r>
       <r>    4.8565    1.0000 </r>
       <r>    4.8653    1.0000 </r>
       <r>    5.0342    1.0000 </r>
       <r>    5.2112    1.0000 </r>
       <r>    5.4541    0.9591 </r>
       <r>    6.5723    0.0000 </r>
       <r>    7.0439    0.0000 </r>
       <r>    7.2184    0.0000 </r>
       <r>    7.3148    0.0000 </r>
       <r>    7.3339    0.0000 </r>
       <r>    7.5066    0.0000 </r>
       <r>    7.5542    0.0000 </r>
       <r>    7.5693    0.0000 </r>
       <r>    7.7301    0.0000 </r>
       <r>    7.8619    0.0000 </r>
       <r>    7.8940    0.0000 </r>
       <r>    7.9467    0.0000 </r>
       <r>    8.0019    0.0000 </r>
       <r>    8.0523    0.0000 </r>
       <r>    8.1710    0.0000 </r>
       <r>    8.2304    0.0000 </r>
       <r>    8.2898    0.0000 </r>
       <r>    8.3694    0.0000 </r>
       <r>    8.4036    0.0000 </r>
       <r>    8.4450    0.0000 </r>
       <r>    8.4857    0.0000 </r>
       <r>    8.4893    0.0000 </r>
       <r>    8.5236    0.0000 </r>
       <r>    8.6091    0.0000 </r>
       <r>    8.7169    0.0000 </r>
       <r>    8.7318    0.0000 </r>
       <r>    8.7958    0.0000 </r>
       <r>    8.8129    0.0000 </r>
       <r>    8.9024    0.0000 </r>
       <r>    8.9075    0.0000 </r>
       <r>    8.9552    0.0000 </r>
       <r>    8.9567    0.0000 </r>
       <r>    9.0007    0.0000 </r>
       <r>    9.0515    0.0000 </r>
       <r>    9.0667    0.0000 </r>
       <r>    9.0749    0.0000 </r>
      </set>
      <set comment="kpoint 6">
       <r>   -6.6898    1.0000 </r>
       <r>   -5.7223    1.0000 </r>
       <r>   -5.3949    1.0000 </r>
       <r>   -5.1804    1.0000 </r>
       <r>   -4.9397    1.0000 </r>
       <r>   -4.7792    1.0000 </r>
       <r>   -4.5301    1.0000 </r>
       <r>   -4.4920    1.0000 </r>
       <r>   -4.4863    1.0000 </r>
       <r>   -4.2710    1.0000 </r>
       <r>   -4.0612    1.0000 </r>
       <r>   -4.0265    1.0000 </r>
       <r>   -3.9263    1.0000 </r>
       <r>   -3.8663    1.0000 </r>
       <r>   -3.6486    1.0000 </r>
       <r>   -3.4531    1.0000 </r>
       <r>   -3.4146    1.0000 </r>
       <r>   -3.3824    1.0000 </r>
       <r>   -3.1936    1.0000 </r>
       <r>   -3.1102    1.0000 </r>
       <r>   -3.0416    1.0000 </r>
       <r>   -2.9439    1.0000 </r>
       <r>   -2.9092    1.0000 </r>
       <r>   -2.9065    1.0000 </r>
       <r>   -2.6788    1.0000 </r>
       <r>   -2.6107    1.0000 </r>
       <r>   -2.1799    1.0000 </r>
       <r>   -1.7998    1.0000 </r>
       <r>   -1.3598    1.0000 </r>
       <r>   -1.1171    1.0000 </r>
       <r>   -1.1114    1.0000 </r>
       <r>   -1.0334    1.0000 </r>
       <r>   -0.9457    1.0000 </r>
       <r>   -0.8888    1.0000 </r>
       <r>   -0.8433    1.0000 </r>
       <r>   -0.8311    1.0000 </r>
       <r>   -0.7958    1.0000 </r>
       <r>   -0.7798    1.0000 </r>
       <r>   -0.7044    1.0000 </r>
       <r>   -0.6739    1.0000 </r>
       <r>   -0.6438    1.0000 </r>
       <r>   -0.6415    1.0000 </r>
       <r>    0.2293    1.0000 </r>
       <r>    0.2731    1.0000 </r>
       <r>    0.3845    1.0000 </r>
       <r>    0.4535    1.0000 </r>
       <r>    0.5039    1.0000 </r>
       <r>    0.5751    1.0000 </r>
       <r>    0.5783    1.0000 </r>
       <r>    1.4589    1.0000 </r>
       <r>    1.4656    1.0000 </r>
       <r>    1.5774    1.0000 </r>
       <r>    1.7735    1.0000 </r>
       <r>    1.8123    1.0000 </r>
       <r>    1.8632    1.0000 </r>
       <r>    1.9171    1.0000 </r>
       <r>    1.9443    1.0000 </r>
       <r>    1.9616    1.0000 </r>
       <r>    2.0553    1.0000 </r>
       <r>    2.1561    1.0000 </r>
       <r>    2.2143    1.0000 </r>
       <r>    2.2229    1.0000 </r>
       <r>    2.2720    1.0000 </r>
       <r>    2.3981    1.0000 </r>
       <r>    2.4027    1.0000 </r>
       <r>    2.5166    1.0000 </r>
       <r>    2.5841    1.0000 </r>
       <r>    2.7016    1.0000 </r>
       <r>    2.7664    1.0000 </r>
       <r>    2.8095    1.0000 </r>
       <r>    2.8505    1.0000 </r>
       <r>    2.8635    1.0000 </r>
       <r>    2.8876    1.0000 </r>
       <r>    3.0826    1.0000 </r>
       <r>    3.1148    1.0000 </r>
       <r>    3.1426    1.0000 </r>
       <r>    3.2047    1.0000 </r>
       <r>    3.2305    1.0000 </r>
       <r>    3.2963    1.0000 </r>
       <r>    3.3821    1.0000 </r>
       <r>    3.4145    1.0000 </r>
       <r>    3.4265    1.0000 </r>
       <r>    3.4760    1.0000 </r>
       <r>    3.4780    1.0000 </r>
       <r>    3.5395    1.0000 </r>
       <r>    3.6096    1.0000 </r>
       <r>    3.7171    1.0000 </r>
       <r>    3.8361    1.0000 </r>
       <r>    3.8515    1.0000 </r>
       <r>    3.8690    1.0000 </r>
       <r>    3.9420    1.0000 </r>
       <r>    3.9498    1.0000 </r>
       <r>    4.1545    1.0000 </r>
       <r>    4.2057    1.0000 </r>
       <r>    4.2260    1.0000 </r>
       <r>    4.3251    1.0000 </r>
       <r>    4.4180    1.0000 </r>
       <r>    4.5004    1.0000 </r>
       <r>    4.5488    1.0000 </r>
       <r>    4.5567    1.0000 </r>
       <r>    4.5704    1.0000 </r>
       <r>    4.6107    1.0000 </r>
       <r>    4.7316    1.0000 </r>
       <r>    4.7395    1.0000 </r>
       <r>    4.8526    1.0000 </r>
       <r>    4.8913    1.0000 </r>
       <r>    4.9902    1.0000 </r>
       <r>    5.6837    0.0000 </r>
       <r>    6.6958    0.0000 </r>
       <r>    6.9853    0.0000 </r>
       <r>    7.0267    0.0000 </r>
       <r>    7.1180    0.0000 </r>
       <r>    7.2730    0.0000 </r>
       <r>    7.3483    0.0000 </r>
       <r>    7.5389    0.0000 </r>
       <r>    7.6096    0.0000 </r>
       <r>    7.6279    0.0000 </r>
       <r>    7.6592    0.0000 </r>
       <r>    7.7198    0.0000 </r>
       <r>    7.7430    0.0000 </r>
       <r>    7.7535    0.0000 </r>
       <r>    7.8336    0.0000 </r>
       <r>    7.9156    0.0000 </r>
       <r>    8.1445    0.0000 </r>
       <r>    8.2428    0.0000 </r>
       <r>    8.2984    0.0000 </r>
       <r>    8.3110    0.0000 </r>
       <r>    8.3188    0.0000 </r>
       <r>    8.3532    0.0000 </r>
       <r>    8.4134    0.0000 </r>
       <r>    8.4444    0.0000 </r>
       <r>    8.5122    0.0000 </r>
       <r>    8.5131    0.0000 </r>
       <r>    8.5343    0.0000 </r>
       <r>    8.5466    0.0000 </r>
       <r>    8.6483    0.0000 </r>
       <r>    8.7124    0.0000 </r>
       <r>    8.7251    0.0000 </r>
       <r>    8.8481    0.0000 </r>
       <r>    8.9958    0.0000 </r>
       <r>    9.0430    0.0000 </r>
       <r>    9.1164    0.0000 </r>
       <r>    9.1577    0.0000 </r>
       <r>    9.1978    0.0000 </r>
      </set>
      <set comment="kpoint 7">
       <r>   -6.6786    1.0000 </r>
       <r>   -5.6271    1.0000 </r>
       <r>   -5.4214    1.0000 </r>
       <r>   -5.1768    1.0000 </r>
       <r>   -5.1768    1.0000 </r>
       <r>   -5.1466    1.0000 </r>
       <r>   -4.6436    1.0000 </r>
       <r>   -3.9270    1.0000 </r>
       <r>   -3.9270    1.0000 </r>
       <r>   -3.8481    1.0000 </r>
       <r>   -3.8426    1.0000 </r>
       <r>   -3.8002    1.0000 </r>
       <r>   -3.8002    1.0000 </r>
       <r>   -3.7912    1.0000 </r>
       <r>   -3.7071    1.0000 </r>
       <r>   -3.6804    1.0000 </r>
       <r>   -3.6377    1.0000 </r>
       <r>   -3.6377    1.0000 </r>
       <r>   -3.6104    1.0000 </r>
       <r>   -3.5982    1.0000 </r>
       <r>   -3.5982    1.0000 </r>
       <r>   -3.5818    1.0000 </r>
       <r>   -2.3607    1.0000 </r>
       <r>   -2.0422    1.0000 </r>
       <r>   -1.9379    1.0000 </r>
       <r>   -1.9379    1.0000 </r>
       <r>   -1.9332    1.0000 </r>
       <r>   -1.8698    1.0000 </r>
       <r>   -1.8637    1.0000 </r>
       <r>   -1.8450    1.0000 </r>
       <r>   -1.8450    1.0000 </r>
       <r>   -1.8335    1.0000 </r>
       <r>   -0.9697    1.0000 </r>
       <r>   -0.8833    1.0000 </r>
       <r>   -0.8833    1.0000 </r>
       <r>   -0.8692    1.0000 </r>
       <r>   -0.7385    1.0000 </r>
       <r>   -0.7318    1.0000 </r>
       <r>   -0.7267    1.0000 </r>
       <r>   -0.7267    1.0000 </r>
       <r>   -0.0487    1.0000 </r>
       <r>    0.0785    1.0000 </r>
       <r>    0.0785    1.0000 </r>
       <r>    0.1748    1.0000 </r>
       <r>    0.2007    1.0000 </r>
       <r>    0.2129    1.0000 </r>
       <r>    0.2129    1.0000 </r>
       <r>    0.2278    1.0000 </r>
       <r>    1.5981    1.0000 </r>
       <r>    1.7069    1.0000 </r>
       <r>    1.7069    1.0000 </r>
       <r>    1.9885    1.0000 </r>
       <r>    2.1402    1.0000 </r>
       <r>    2.1402    1.0000 </r>
       <r>    2.1499    1.0000 </r>
       <r>    2.1866    1.0000 </r>
       <r>    2.1930    1.0000 </r>
       <r>    2.2072    1.0000 </r>
       <r>    2.2072    1.0000 </r>
       <r>    2.2073    1.0000 </r>
       <r>    2.2703    1.0000 </r>
       <r>    2.2943    1.0000 </r>
       <r>    2.2943    1.0000 </r>
       <r>    2.2949    1.0000 </r>
       <r>    2.3003    1.0000 </r>
       <r>    2.3094    1.0000 </r>
       <r>    2.3094    1.0000 </r>
       <r>    2.3179    1.0000 </r>
       <r>    2.7745    1.0000 </r>
       <r>    2.8646    1.0000 </r>
       <r>    2.8646    1.0000 </r>
       <r>    2.9820    1.0000 </r>
       <r>    3.0385    1.0000 </r>
       <r>    3.0385    1.0000 </r>
       <r>    3.0622    1.0000 </r>
       <r>    3.0746    1.0000 </r>
       <r>    3.0746    1.0000 </r>
       <r>    3.0910    1.0000 </r>
       <r>    3.2982    1.0000 </r>
       <r>    3.3565    1.0000 </r>
       <r>    3.3565    1.0000 </r>
       <r>    3.4384    1.0000 </r>
       <r>    3.5085    1.0000 </r>
       <r>    3.5115    1.0000 </r>
       <r>    3.5115    1.0000 </r>
       <r>    3.5351    1.0000 </r>
       <r>    3.5795    1.0000 </r>
       <r>    3.5795    1.0000 </r>
       <r>    3.5823    1.0000 </r>
       <r>    3.5957    1.0000 </r>
       <r>    3.7643    1.0000 </r>
       <r>    3.7849    1.0000 </r>
       <r>    3.8438    1.0000 </r>
       <r>    3.8438    1.0000 </r>
       <r>    4.0442    1.0000 </r>
       <r>    4.0445    1.0000 </r>
       <r>    4.0924    1.0000 </r>
       <r>    4.0928    1.0000 </r>
       <r>    4.0965    1.0000 </r>
       <r>    4.0965    1.0000 </r>
       <r>    4.5826    1.0000 </r>
       <r>    4.5826    1.0000 </r>
       <r>    4.6486    1.0000 </r>
       <r>    4.6486    1.0000 </r>
       <r>    5.2114    1.0000 </r>
       <r>    5.2114    1.0000 </r>
       <r>    5.2725    1.0000 </r>
       <r>    5.2766    1.0000 </r>
       <r>    6.5054    0.0000 </r>
       <r>    6.5274    0.0000 </r>
       <r>    7.3482    0.0000 </r>
       <r>    7.4514    0.0000 </r>
       <r>    7.6586    0.0000 </r>
       <r>    7.7698    0.0000 </r>
       <r>    7.8764    0.0000 </r>
       <r>    7.8764    0.0000 </r>
       <r>    7.9274    0.0000 </r>
       <r>    7.9274    0.0000 </r>
       <r>    7.9312    0.0000 </r>
       <r>    7.9381    0.0000 </r>
       <r>    8.3336    0.0000 </r>
       <r>    8.3336    0.0000 </r>
       <r>    8.3355    0.0000 </r>
       <r>    8.4755    0.0000 </r>
       <r>    8.5508    0.0000 </r>
       <r>    8.5670    0.0000 </r>
       <r>    8.5670    0.0000 </r>
       <r>    8.6050    0.0000 </r>
       <r>    8.6638    0.0000 </r>
       <r>    8.6978    0.0000 </r>
       <r>    8.6978    0.0000 </r>
       <r>    8.6985    0.0000 </r>
       <r>    8.7151    0.0000 </r>
       <r>    8.7151    0.0000 </r>
       <r>    8.7170    0.0000 </r>
       <r>    8.7172    0.0000 </r>
       <r>    8.8156    0.0000 </r>
       <r>    8.8307    0.0000 </r>
       <r>    8.8968    0.0000 </r>
       <r>    8.8968    0.0000 </r>
       <r>    9.2387    0.0000 </r>
       <r>    9.2387    0.0000 </r>
       <r>    9.3628    0.0000 </r>
       <r>    9.4059    0.0000 </r>
      </set>
      <set comment="kpoint 8">
       <r>   -6.6781    1.0000 </r>
       <r>   -5.5265    1.0000 </r>
       <r>   -5.4927    1.0000 </r>
       <r>   -5.4707    1.0000 </r>
       <r>   -5.0712    1.0000 </r>
       <r>   -4.6345    1.0000 </r>
       <r>   -4.6126    1.0000 </r>
       <r>   -4.5783    1.0000 </r>
       <r>   -4.2597    1.0000 </r>
       <r>   -3.8639    1.0000 </r>
       <r>   -3.8347    1.0000 </r>
       <r>   -3.8103    1.0000 </r>
       <r>   -3.7439    1.0000 </r>
       <r>   -3.7436    1.0000 </r>
       <r>   -3.7378    1.0000 </r>
       <r>   -3.7220    1.0000 </r>
       <r>   -3.5946    1.0000 </r>
       <r>   -3.5810    1.0000 </r>
       <r>   -3.5343    1.0000 </r>
       <r>   -3.5327    1.0000 </r>
       <r>   -3.0251    1.0000 </r>
[...]
        <r>  0.0000  0.0053  0.0000 </r>
       </set>
       <set comment="band 138">
        <r>  0.0000  0.0012  0.0000 </r>
        <r>  0.0006  0.0024  0.0000 </r>
        <r>  0.0006  0.0024  0.0000 </r>
        <r>  0.0010  0.0028  0.0000 </r>
        <r>  0.0022  0.0012  0.0000 </r>
        <r>  0.0006  0.0025  0.0000 </r>
        <r>  0.0010  0.0027  0.0000 </r>
        <r>  0.0006  0.0024  0.0000 </r>
        <r>  0.0001  0.0018  0.0000 </r>
        <r>  0.0006  0.0024  0.0000 </r>
        <r>  0.0022  0.0012  0.0000 </r>
        <r>  0.0010  0.0028  0.0000 </r>
        <r>  0.0022  0.0012  0.0000 </r>
        <r>  0.0022  0.0011  0.0000 </r>
        <r>  0.0000  0.0022  0.0000 </r>
        <r>  0.0006  0.0024  0.0000 </r>
        <r>  0.0000  0.0102  0.0000 </r>
        <r>  0.0000  0.0022  0.0000 </r>
        <r>  0.0006  0.0024  0.0000 </r>
        <r>  0.0010  0.0028  0.0000 </r>
        <r>  0.0001  0.0018  0.0000 </r>
        <r>  0.0006  0.0025  0.0000 </r>
        <r>  0.0000  0.0022  0.0000 </r>
        <r>  0.0000  0.0101  0.0000 </r>
        <r>  0.0001  0.0018  0.0000 </r>
        <r>  0.0000  0.0022  0.0000 </r>
        <r>  0.0001  0.0018  0.0000 </r>
        <r>  0.0000  0.0040  0.0000 </r>
        <r>  0.0000  0.0030  0.0000 </r>
        <r>  0.0000  0.0030  0.0000 </r>
        <r>  0.0004  0.0009  0.0000 </r>
        <r>  0.0000  0.0054  0.0000 </r>
        <r>  0.0000  0.0029  0.0000 </r>
        <r>  0.0004  0.0009  0.0000 </r>
        <r>  0.0000  0.0030  0.0000 </r>
        <r>  0.0004  0.0033  0.0000 </r>
        <r>  0.0000  0.0030  0.0000 </r>
        <r>  0.0000  0.0054  0.0000 </r>
        <r>  0.0004  0.0009  0.0000 </r>
        <r>  0.0000  0.0054  0.0000 </r>
        <r>  0.0000  0.0053  0.0000 </r>
        <r>  0.0013  0.0054  0.0000 </r>
        <r>  0.0000  0.0030  0.0000 </r>
        <r>  0.0004  0.0018  0.0000 </r>
        <r>  0.0013  0.0054  0.0000 </r>
        <r>  0.0000  0.0029  0.0000 </r>
        <r>  0.0004  0.0009  0.0000 </r>
        <r>  0.0004  0.0032  0.0000 </r>
        <r>  0.0000  0.0029  0.0000 </r>
        <r>  0.0013  0.0054  0.0000 </r>
        <r>  0.0004  0.0018  0.0000 </r>
        <r>  0.0004  0.0033  0.0000 </r>
        <r>  0.0013  0.0054  0.0000 </r>
        <r>  0.0005  0.0032  0.0000 </r>
       </set>
       <set comment="band 139">
        <r>  0.0000  0.0000  0.0000 </r>
        <r>  0.0012  0.0024  0.0000 </r>
        <r>  0.0012  0.0024  0.0000 </r>
        <r>  0.0013  0.0006  0.0000 </r>
        <r>  0.0028  0.0027  0.0000 </r>
        <r>  0.0011  0.0024  0.0000 </r>
        <r>  0.0013  0.0006  0.0000 </r>
        <r>  0.0012  0.0023  0.0000 </r>
        <r>  0.0000  0.0032  0.0000 </r>
        <r>  0.0012  0.0024  0.0000 </r>
        <r>  0.0028  0.0028  0.0000 </r>
        <r>  0.0013  0.0006  0.0000 </r>
        <r>  0.0028  0.0027  0.0000 </r>
        <r>  0.0027  0.0027  0.0000 </r>
        <r>  0.0003  0.0041  0.0000 </r>
        <r>  0.0012  0.0023  0.0000 </r>
        <r>  0.0000  0.0042  0.0000 </r>
        <r>  0.0004  0.0041  0.0000 </r>
        <r>  0.0012  0.0024  0.0000 </r>
        <r>  0.0013  0.0006  0.0000 </r>
        <r>  0.0000  0.0033  0.0000 </r>
        <r>  0.0012  0.0024  0.0000 </r>
        <r>  0.0003  0.0041  0.0000 </r>
        <r>  0.0000  0.0042  0.0000 </r>
        <r>  0.0000  0.0032  0.0000 </r>
        <r>  0.0004  0.0041  0.0000 </r>
        <r>  0.0000  0.0032  0.0000 </r>
        <r>  0.0023  0.0000  0.0000 </r>
        <r>  0.0022  0.0022  0.0000 </r>
        <r>  0.0022  0.0022  0.0000 </r>
        <r>  0.0012  0.0050  0.0000 </r>
        <r>  0.0001  0.0017  0.0000 </r>
        <r>  0.0022  0.0022  0.0000 </r>
        <r>  0.0012  0.0050  0.0000 </r>
        <r>  0.0022  0.0022  0.0000 </r>
        <r>  0.0001  0.0031  0.0000 </r>
        <r>  0.0022  0.0022  0.0000 </r>
        <r>  0.0001  0.0017  0.0000 </r>
        <r>  0.0012  0.0050  0.0000 </r>
        <r>  0.0001  0.0017  0.0000 </r>
        <r>  0.0001  0.0017  0.0000 </r>
        <r>  0.0006  0.0027  0.0000 </r>
        <r>  0.0022  0.0022  0.0000 </r>
        <r>  0.0012  0.0012  0.0000 </r>
        <r>  0.0006  0.0027  0.0000 </r>
        <r>  0.0022  0.0022  0.0000 </r>
        <r>  0.0012  0.0050  0.0000 </r>
        <r>  0.0001  0.0031  0.0000 </r>
        <r>  0.0022  0.0022  0.0000 </r>
        <r>  0.0006  0.0027  0.0000 </r>
        <r>  0.0012  0.0012  0.0000 </r>
        <r>  0.0001  0.0031  0.0000 </r>
        <r>  0.0006  0.0027  0.0000 </r>
        <r>  0.0001  0.0031  0.0000 </r>
       </set>
       <set comment="band 140">
        <r>  0.0006  0.0000  0.0000 </r>
        <r>  0.0002  0.0041  0.0000 </r>
        <r>  0.0002  0.0041  0.0000 </r>
        <r>  0.0000  0.0038  0.0000 </r>
        <r>  0.0000  0.0028  0.0000 </r>
        <r>  0.0002  0.0041  0.0000 </r>
        <r>  0.0000  0.0038  0.0000 </r>
        <r>  0.0002  0.0041  0.0000 </r>
        <r>  0.0000  0.0047  0.0000 </r>
        <r>  0.0002  0.0041  0.0000 </r>
        <r>  0.0000  0.0028  0.0000 </r>
        <r>  0.0000  0.0038  0.0000 </r>
        <r>  0.0000  0.0028  0.0000 </r>
        <r>  0.0000  0.0028  0.0000 </r>
        <r>  0.0001  0.0034  0.0000 </r>
        <r>  0.0002  0.0041  0.0000 </r>
        <r>  0.0013  0.0000  0.0000 </r>
        <r>  0.0001  0.0034  0.0000 </r>
        <r>  0.0002  0.0041  0.0000 </r>
        <r>  0.0000  0.0038  0.0000 </r>
        <r>  0.0000  0.0047  0.0000 </r>
        <r>  0.0002  0.0041  0.0000 </r>
        <r>  0.0001  0.0034  0.0000 </r>
        <r>  0.0013  0.0000  0.0000 </r>
        <r>  0.0000  0.0048  0.0000 </r>
        <r>  0.0001  0.0034  0.0000 </r>
        <r>  0.0000  0.0047  0.0000 </r>
        <r>  0.0000  0.0032  0.0000 </r>
        <r>  0.0008  0.0022  0.0000 </r>
        <r>  0.0008  0.0022  0.0000 </r>
        <r>  0.0011  0.0029  0.0000 </r>
        <r>  0.0001  0.0023  0.0000 </r>
        <r>  0.0008  0.0022  0.0000 </r>
        <r>  0.0011  0.0029  0.0000 </r>
        <r>  0.0007  0.0022  0.0000 </r>
        <r>  0.0000  0.0036  0.0000 </r>
        <r>  0.0008  0.0022  0.0000 </r>
        <r>  0.0001  0.0023  0.0000 </r>
        <r>  0.0011  0.0029  0.0000 </r>
        <r>  0.0001  0.0023  0.0000 </r>
        <r>  0.0001  0.0023  0.0000 </r>
        <r>  0.0002  0.0034  0.0000 </r>
        <r>  0.0008  0.0022  0.0000 </r>
        <r>  0.0000  0.0030  0.0000 </r>
        <r>  0.0002  0.0034  0.0000 </r>
        <r>  0.0008  0.0022  0.0000 </r>
        <r>  0.0011  0.0030  0.0000 </r>
        <r>  0.0000  0.0035  0.0000 </r>
        <r>  0.0008  0.0022  0.0000 </r>
        <r>  0.0002  0.0034  0.0000 </r>
        <r>  0.0000  0.0030  0.0000 </r>
        <r>  0.0000  0.0035  0.0000 </r>
        <r>  0.0002  0.0034  0.0000 </r>
        <r>  0.0000  0.0035  0.0000 </r>
       </set>
       <set comment="band 141">
        <r>  0.0000  0.0031  0.0000 </r>
        <r>  0.0021  0.0032  0.0000 </r>
        <r>  0.0020  0.0032  0.0000 </r>
        <r>  0.0000  0.0018  0.0000 </r>
        <r>  0.0004  0.0031  0.0000 </r>
        <r>  0.0021  0.0031  0.0000 </r>
        <r>  0.0000  0.0017  0.0000 </r>
        <r>  0.0020  0.0033  0.0000 </r>
        <r>  0.0000  0.0102  0.0000 </r>
        <r>  0.0021  0.0032  0.0000 </r>
        <r>  0.0003  0.0032  0.0000 </r>
        <r>  0.0000  0.0017  0.0000 </r>
        <r>  0.0004  0.0031  0.0000 </r>
        <r>  0.0004  0.0031  0.0000 </r>
        <r>  0.0000  0.0003  0.0000 </r>
        <r>  0.0020  0.0033  0.0000 </r>
        <r>  0.0006  0.0038  0.0000 </r>
        <r>  0.0000  0.0003  0.0000 </r>
        <r>  0.0019  0.0032  0.0000 </r>
        <r>  0.0000  0.0017  0.0000 </r>
        <r>  0.0000  0.0104  0.0000 </r>
        <r>  0.0021  0.0032  0.0000 </r>
        <r>  0.0000  0.0003  0.0000 </r>
        <r>  0.0006  0.0038  0.0000 </r>
        <r>  0.0000  0.0103  0.0000 </r>
        <r>  0.0000  0.0003  0.0000 </r>
        <r>  0.0000  0.0106  0.0000 </r>
        <r>  0.0000  0.0076  0.0000 </r>
        <r>  0.0004  0.0024  0.0000 </r>
        <r>  0.0005  0.0025  0.0000 </r>
        <r>  0.0030  0.0073  0.0000 </r>
        <r>  0.0000  0.0063  0.0000 </r>
        <r>  0.0005  0.0025  0.0000 </r>
        <r>  0.0030  0.0071  0.0000 </r>
        <r>  0.0005  0.0026  0.0000 </r>
        <r>  0.0014  0.0013  0.0000 </r>
        <r>  0.0005  0.0024  0.0000 </r>
        <r>  0.0000  0.0064  0.0000 </r>
        <r>  0.0031  0.0071  0.0000 </r>
        <r>  0.0000  0.0062  0.0000 </r>
        <r>  0.0000  0.0062  0.0000 </r>
        <r>  0.0012  0.0029  0.0000 </r>
        <r>  0.0005  0.0026  0.0000 </r>
        <r>  0.0000  0.0013  0.0000 </r>
        <r>  0.0014  0.0028  0.0000 </r>
        <r>  0.0005  0.0025  0.0000 </r>
        <r>  0.0031  0.0071  0.0000 </r>
        <r>  0.0013  0.0012  0.0000 </r>
        <r>  0.0005  0.0026  0.0000 </r>
        <r>  0.0013  0.0029  0.0000 </r>
        <r>  0.0000  0.0013  0.0000 </r>
        <r>  0.0014  0.0013  0.0000 </r>
        <r>  0.0014  0.0027  0.0000 </r>
        <r>  0.0013  0.0014  0.0000 </r>
       </set>
       <set comment="band 142">
        <r>  0.0024  0.0000  0.0000 </r>
        <r>  0.0023  0.0042  0.0000 </r>
        <r>  0.0022  0.0041  0.0000 </r>
        <r>  0.0012  0.0011  0.0000 </r>
        <r>  0.0019  0.0049  0.0000 </r>
        <r>  0.0022  0.0040  0.0000 </r>
        <r>  0.0014  0.0012  0.0000 </r>
        <r>  0.0020  0.0045  0.0000 </r>
        <r>  0.0021  0.0007  0.0000 </r>
        <r>  0.0022  0.0040  0.0000 </r>
        <r>  0.0017  0.0044  0.0000 </r>
        <r>  0.0013  0.0013  0.0000 </r>
        <r>  0.0019  0.0040  0.0000 </r>
        <r>  0.0021  0.0043  0.0000 </r>
        <r>  0.0005  0.0016  0.0000 </r>
        <r>  0.0019  0.0040  0.0000 </r>
        <r>  0.0041  0.0000  0.0000 </r>
        <r>  0.0006  0.0016  0.0000 </r>
        <r>  0.0021  0.0042  0.0000 </r>
        <r>  0.0013  0.0010  0.0000 </r>
        <r>  0.0021  0.0007  0.0000 </r>
        <r>  0.0020  0.0043  0.0000 </r>
        <r>  0.0005  0.0016  0.0000 </r>
        <r>  0.0041  0.0000  0.0000 </r>
        <r>  0.0017  0.0008  0.0000 </r>
        <r>  0.0006  0.0015  0.0000 </r>
        <r>  0.0018  0.0008  0.0000 </r>
        <r>  0.0000  0.0002  0.0000 </r>
        <r>  0.0000  0.0047  0.0000 </r>
        <r>  0.0000  0.0050  0.0000 </r>
        <r>  0.0016  0.0061  0.0000 </r>
        <r>  0.0000  0.0031  0.0000 </r>
        <r>  0.0000  0.0046  0.0000 </r>
        <r>  0.0017  0.0055  0.0000 </r>
        <r>  0.0000  0.0049  0.0000 </r>
        <r>  0.0000  0.0041  0.0000 </r>
        <r>  0.0000  0.0047  0.0000 </r>
        <r>  0.0000  0.0031  0.0000 </r>
        <r>  0.0016  0.0062  0.0000 </r>
        <r>  0.0000  0.0027  0.0000 </r>
        <r>  0.0000  0.0027  0.0000 </r>
        <r>  0.0001  0.0156  0.0000 </r>
        <r>  0.0000  0.0049  0.0000 </r>
        <r>  0.0000  0.0001  0.0000 </r>
        <r>  0.0001  0.0150  0.0000 </r>
        <r>  0.0000  0.0051  0.0000 </r>
        <r>  0.0015  0.0054  0.0000 </r>
        <r>  0.0000  0.0040  0.0000 </r>
        <r>  0.0000  0.0045  0.0000 </r>
        <r>  0.0003  0.0148  0.0000 </r>
        <r>  0.0000  0.0001  0.0000 </r>
        <r>  0.0000  0.0045  0.0000 </r>
        <r>  0.0003  0.0143  0.0000 </r>
        <r>  0.0000  0.0046  0.0000 </r>
       </set>
       <set comment="band 143">
        <r>  0.0000  0.0015  0.0000 </r>
        <r>  0.0006  0.0032  0.0000 </r>
        <r>  0.0007  0.0037  0.0000 </r>
        <r>  0.0002  0.0031  0.0000 </r>
        <r>  0.0000  0.0085  0.0000 </r>
        <r>  0.0006  0.0036  0.0000 </r>
        <r>  0.0002  0.0032  0.0000 </r>
        <r>  0.0009  0.0032  0.0000 </r>
        <r>  0.0027  0.0069  0.0000 </r>
        <r>  0.0008  0.0039  0.0000 </r>
        <r>  0.0000  0.0087  0.0000 </r>
        <r>  0.0002  0.0031  0.0000 </r>
        <r>  0.0000  0.0097  0.0000 </r>
        <r>  0.0000  0.0090  0.0000 </r>
        <r>  0.0000  0.0010  0.0000 </r>
        <r>  0.0006  0.0038  0.0000 </r>
        <r>  0.0000  0.0060  0.0000 </r>
        <r>  0.0000  0.0011  0.0000 </r>
        <r>  0.0006  0.0030  0.0000 </r>
        <r>  0.0001  0.0036  0.0000 </r>
        <r>  0.0029  0.0062  0.0000 </r>
        <r>  0.0008  0.0033  0.0000 </r>
        <r>  0.0000  0.0013  0.0000 </r>
        <r>  0.0000  0.0061  0.0000 </r>
        <r>  0.0030  0.0057  0.0000 </r>
        <r>  0.0000  0.0012  0.0000 </r>
        <r>  0.0030  0.0062  0.0000 </r>
        <r>  0.0000  0.0043  0.0000 </r>
        <r>  0.0009  0.0014  0.0000 </r>
        <r>  0.0007  0.0016  0.0000 </r>
        <r>  0.0001  0.0081  0.0000 </r>
        <r>  0.0003  0.0020  0.0000 </r>
        <r>  0.0007  0.0016  0.0000 </r>
        <r>  0.0001  0.0084  0.0000 </r>
        <r>  0.0008  0.0012  0.0000 </r>
        <r>  0.0000  0.0032  0.0000 </r>
        <r>  0.0007  0.0013  0.0000 </r>
        <r>  0.0004  0.0021  0.0000 </r>
        <r>  0.0001  0.0081  0.0000 </r>
        <r>  0.0004  0.0024  0.0000 </r>
        <r>  0.0004  0.0022  0.0000 </r>
        <r>  0.0056  0.0024  0.0000 </r>
        <r>  0.0008  0.0015  0.0000 </r>
        <r>  0.0001  0.0020  0.0000 </r>
        <r>  0.0056  0.0027  0.0000 </r>
        <r>  0.0009  0.0015  0.0000 </r>
        <r>  0.0001  0.0090  0.0000 </r>
        <r>  0.0000  0.0029  0.0000 </r>
        <r>  0.0009  0.0015  0.0000 </r>
        <r>  0.0051  0.0030  0.0000 </r>
        <r>  0.0001  0.0020  0.0000 </r>
        <r>  0.0000  0.0028  0.0000 </r>
        <r>  0.0051  0.0032  0.0000 </r>
        <r>  0.0000  0.0028  0.0000 </r>
       </set>
       <set comment="band 144">
        <r>  0.0000  0.0000  0.0000 </r>
        <r>  0.0006  0.0062  0.0000 </r>
        <r>  0.0004  0.0066  0.0000 </r>
        <r>  0.0016  0.0038  0.0000 </r>
        <r>  0.0003  0.0024  0.0000 </r>
        <r>  0.0006  0.0064  0.0000 </r>
        <r>  0.0019  0.0037  0.0000 </r>
        <r>  0.0004  0.0060  0.0000 </r>
        <r>  0.0016  0.0025  0.0000 </r>
        <r>  0.0005  0.0060  0.0000 </r>
        <r>  0.0013  0.0029  0.0000 </r>
        <r>  0.0010  0.0034  0.0000 </r>
        <r>  0.0003  0.0024  0.0000 </r>
        <r>  0.0015  0.0029  0.0000 </r>
        <r>  0.0005  0.0068  0.0000 </r>
        <r>  0.0006  0.0060  0.0000 </r>
        <r>  0.0000  0.0006  0.0000 </r>
        <r>  0.0008  0.0071  0.0000 </r>
        <r>  0.0003  0.0065  0.0000 </r>
        <r>  0.0011  0.0035  0.0000 </r>
        <r>  0.0026  0.0027  0.0000 </r>
        <r>  0.0007  0.0064  0.0000 </r>
        <r>  0.0007  0.0070  0.0000 </r>
        <r>  0.0000  0.0002  0.0000 </r>
        <r>  0.0015  0.0023  0.0000 </r>
        <r>  0.0007  0.0070  0.0000 </r>
        <r>  0.0024  0.0026  0.0000 </r>
        <r>  0.0016  0.0001  0.0000 </r>
        <r>  0.0003  0.0074  0.0000 </r>
        <r>  0.0002  0.0074  0.0000 </r>
        <r>  0.0005  0.0018  0.0000 </r>
        <r>  0.0010  0.0043  0.0000 </r>
        <r>  0.0003  0.0069  0.0000 </r>
        <r>  0.0003  0.0018  0.0000 </r>
        <r>  0.0002  0.0077  0.0000 </r>
        <r>  0.0010  0.0052  0.0000 </r>
        <r>  0.0002  0.0072  0.0000 </r>
        <r>  0.0009  0.0026  0.0000 </r>
        <r>  0.0004  0.0027  0.0000 </r>
        <r>  0.0012  0.0043  0.0000 </r>
        <r>  0.0010  0.0026  0.0000 </r>
        <r>  0.0002  0.0059  0.0000 </r>
        <r>  0.0002  0.0078  0.0000 </r>
        <r>  0.0042  0.0001  0.0000 </r>
        <r>  0.0002  0.0055  0.0000 </r>
        <r>  0.0002  0.0074  0.0000 </r>
        <r>  0.0004  0.0027  0.0000 </r>
        <r>  0.0007  0.0028  0.0000 </r>
        <r>  0.0003  0.0073  0.0000 </r>
        <r>  0.0002  0.0058  0.0000 </r>
        <r>  0.0039  0.0000  0.0000 </r>
        <r>  0.0009  0.0052  0.0000 </r>
        <r>  0.0002  0.0053  0.0000 </r>
        <r>  0.0007  0.0028  0.0000 </r>
       </set>
      </set>
     </set>
    </set>
   </array>
  </projected>
 </calculation>
 <structure name="finalpos" >
  <crystal>
   <varray name="basis" >
    <v>       9.97646553       0.00000000       5.75991507 </v>
    <v>       3.32548851       9.40590192       5.75991507 </v>
    <v>       0.00000000       0.00000000      11.51983014 </v>
   </varray>
   <i name="volume">   1080.99386112 </i>
   <varray name="rec_basis" >
    <v>       0.10023590      -0.03543874       0.00000000 </v>
    <v>       0.00000000       0.10631623       0.00000000 </v>
    <v>      -0.05011795      -0.03543874       0.08680684 </v>
   </varray>
  </crystal>
  <varray name="positions" >
   <v>       0.29166667       0.29166667       0.29166667 </v>
   <v>       0.29166667       0.29166667       0.62500000 </v>
   <v>       0.29166667       0.29166667       0.95833333 </v>
   <v>       0.29166667       0.62500000       0.29166667 </v>
   <v>       0.29166667       0.62500000       0.62500000 </v>
   <v>       0.29166667       0.62500000       0.95833333 </v>
   <v>       0.29166667       0.95833333       0.29166667 </v>
   <v>       0.29166667       0.95833333       0.62500000 </v>
   <v>       0.29166667       0.95833333       0.95833333 </v>
   <v>       0.62500000       0.29166667       0.29166667 </v>
   <v>       0.62500000       0.29166667       0.62500000 </v>
   <v>       0.62500000       0.29166667       0.95833333 </v>
   <v>       0.62500000       0.62500000       0.29166667 </v>
   <v>       0.62500000       0.62500000       0.62500000 </v>
   <v>       0.62500000       0.62500000       0.95833333 </v>
   <v>       0.62500000       0.95833333       0.29166667 </v>
   <v>       0.62500000       0.95833333       0.62500000 </v>
   <v>       0.62500000       0.95833333       0.95833333 </v>
   <v>       0.95833333       0.29166667       0.29166667 </v>
   <v>       0.95833333       0.29166667       0.62500000 </v>
   <v>       0.95833333       0.29166667       0.95833333 </v>
   <v>       0.95833333       0.62500000       0.29166667 </v>
   <v>       0.95833333       0.62500000       0.62500000 </v>
   <v>       0.95833333       0.62500000       0.95833333 </v>
   <v>       0.95833333       0.95833333       0.29166667 </v>
   <v>       0.95833333       0.95833333       0.62500000 </v>
   <v>       0.95833333       0.95833333       0.95833333 </v>
   <v>       0.04166667       0.04166667       0.04166667 </v>
   <v>       0.04166667       0.04166667       0.37500000 </v>
   <v>       0.04166667       0.04166667       0.70833333 </v>
   <v>       0.04166667       0.37500000       0.04166667 </v>
   <v>       0.04166667       0.37500000       0.37500000 </v>
   <v>       0.04166667       0.37500000       0.70833333 </v>
   <v>       0.04166667       0.70833333       0.04166667 </v>
   <v>       0.04166667       0.70833333       0.37500000 </v>
   <v>       0.04166667       0.70833333       0.70833333 </v>
   <v>       0.37500000       0.04166667       0.04166667 </v>
   <v>       0.37500000       0.04166667       0.37500000 </v>
   <v>       0.37500000       0.04166667       0.70833333 </v>
   <v>       0.37500000       0.37500000       0.04166667 </v>
   <v>       0.37500000       0.37500000       0.37500000 </v>
   <v>       0.37500000       0.37500000       0.70833333 </v>
   <v>       0.37500000       0.70833333       0.04166667 </v>
   <v>       0.37500000       0.70833333       0.37500000 </v>
   <v>       0.37500000       0.70833333       0.70833333 </v>
   <v>       0.70833333       0.04166667       0.04166667 </v>
   <v>       0.70833333       0.04166667       0.37500000 </v>
   <v>       0.70833333       0.04166667       0.70833333 </v>
   <v>       0.70833333       0.37500000       0.04166667 </v>
   <v>       0.70833333       0.37500000       0.37500000 </v>
   <v>       0.70833333       0.37500000       0.70833333 </v>
   <v>       0.70833333       0.70833333       0.04166667 </v>
   <v>       0.70833333       0.70833333       0.37500000 </v>
   <v>       0.70833333       0.70833333       0.70833333 </v>
  </varray>
 </structure>
</modeling>
