 vasp.5.4.4.18Apr17-6-g9f103f2a35 (build Sep 10 2020 14:01:29) complex          
  
 executed on               LB-5.4 date 2021.06.15  15:26:48
 running on  384 total cores
 distrk:  each k-point on  384 cores,    1 groups
 distr:  one band on NCORES_PER_BAND=   1 cores,  384 groups


--------------------------------------------------------------------------------------------------------


 INCAR:
 POTCAR:    PAW_PBE Na 08Apr2002                  
 POTCAR:    PAW_PBE Nb_pv 08Apr2002               
 POTCAR:    PAW_PBE O 08Apr2002                   

 ----------------------------------------------------------------------------- 
|                                                                             |
|           W    W    AA    RRRRR   N    N  II  N    N   GGGG   !!!           |
|           W    W   A  A   R    R  NN   N  II  NN   N  G    G  !!!           |
|           W    W  A    A  R    R  N N  N  II  N N  N  G       !!!           |
|           W WW W  AAAAAA  RRRRR   N  N N  II  N  N N  G  GGG   !            |
|           WW  WW  A    A  R   R   N   NN  II  N   NN  G    G                |
|           W    W  A    A  R    R  N    N  II  N    N   GGGG   !!!           |
|                                                                             |
|      For optimal performance we recommend to set                            |
|        NCORE= 4 - approx SQRT( number of cores)                             |
|      NCORE specifies how many cores store one orbital (NPAR=cpu/NCORE).     |
|      This setting can  greatly improve the performance of VASP for DFT.     |
|      The default,   NCORE=1            might be grossly inefficient         |
|      on modern multi-core architectures or massively parallel machines.     |
|      Do your own testing !!!!                                               |
|      Unfortunately you need to use the default for GW and RPA calculations. |
|      (for HF NCORE is supported but not extensively tested yet)             |
|                                                                             |
 ----------------------------------------------------------------------------- 

 POTCAR:    PAW_PBE Na 08Apr2002                  
   VRHFIN =Na: s1p0                                                             
   LEXCH  = PE                                                                  
   EATOM  =     5.1581 eV,    0.3791 Ry                                         
                                                                                
   TITEL  = PAW_PBE Na 08Apr2002                                                
   LULTRA =        F    use ultrasoft PP ?                                      
   IUNSCR =        1    unscreen: 0-lin 1-nonlin 2-no                           
   RPACOR =    1.800    partial core radius                                     
   POMASS =   22.990; ZVAL   =    1.000    mass and valenz                      
   RCORE  =    2.200    outmost cutoff radius                                   
   RWIGS  =    3.320; RWIGS  =    1.757    wigner-seitz radius (au A)           
   ENMAX  =  101.968; ENMIN  =   76.476 eV                                      
   ICORE  =        2    local potential                                         
   LCOR   =        T    correct aug charges                                     
   LPAW   =        T    paw PP                                                  
   EAUG   =  250.695                                                            
   DEXC   =    0.000                                                            
   RMAX   =    2.245    core radius for proj-oper                               
   RAUG   =    1.300    factor for augmentation sphere                          
   RDEP   =    2.259    radius for radial grids                                 
   RDEPT  =    2.115    core radius for aug-charge                              
                                                                                
   Atomic configuration                                                         
    6 entries                                                                   
     n  l   j            E        occ.                                          
     1  0  0.50     -1033.6933   2.0000                                         
     2  0  0.50       -56.7526   2.0000                                         
     2  1  1.50       -28.6721   6.0000                                         
     3  0  0.50        -2.7440   1.0000                                         
     3  1  0.50        -1.3606   0.0000                                         
     3  2  1.50        -1.3606   0.0000                                         
   Description                                                                  
     l       E           TYP  RCUT    TYP  RCUT                                 
     0     -2.7439560     23  2.200                                             
     0     27.2116520     23  2.200                                             
     1     -1.3605826     23  2.200                                             
     2     -1.3605826     23  2.200                                             
  local pseudopotential read in
  partial core-charges read in
  partial kinetic energy density read in
  atomic valenz-charges read in
  non local Contribution for L=           0  read in
    real space projection operators read in
  non local Contribution for L=           0  read in
    real space projection operators read in
  non local Contribution for L=           1  read in
    real space projection operators read in
    PAW grid and wavefunctions read in
 
   number of l-projection  operators is LMAX  =           3
   number of lm-projection operators is LMMAX =           5
 
 POTCAR:    PAW_PBE Nb_pv 08Apr2002               
   VRHFIN =Nb: 4p5s4d                                                           
   LEXCH  = PE                                                                  
   EATOM  =  1043.3917 eV,   76.6871 Ry                                         
                                                                                
   TITEL  = PAW_PBE Nb_pv 08Apr2002                                             
   LULTRA =        F    use ultrasoft PP ?                                      
   IUNSCR =        1    unscreen: 0-lin 1-nonlin 2-no                           
   RPACOR =    2.200    partial core radius                                     
   POMASS =   92.000; ZVAL   =   11.000    mass and valenz                      
   RCORE  =    2.750    outmost cutoff radius                                   
   RWIGS  =    2.840; RWIGS  =    1.503    wigner-seitz radius (au A)           
   ENMAX  =  208.608; ENMIN  =  156.456 eV                                      
   RCLOC  =    2.201    cutoff for local pot                                    
   LCOR   =        T    correct aug charges                                     
   LPAW   =        T    paw PP                                                  
   EAUG   =  355.067                                                            
   DEXC   =    0.000                                                            
   RMAX   =    2.804    core radius for proj-oper                               
   RAUG   =    1.300    factor for augmentation sphere                          
   RDEP   =    2.776    radius for radial grids                                 
   RDEPT  =    2.198    core radius for aug-charge                              
                                                                                
   Atomic configuration                                                         
   11 entries                                                                   
     n  l   j            E        occ.                                          
     1  0  0.50    -18805.2456   2.0000                                         
     2  0  0.50     -2630.2869   2.0000                                         
     2  1  1.50     -2348.4045   6.0000                                         
     3  0  0.50      -438.8756   2.0000                                         
     3  1  1.50      -346.7587   6.0000                                         
     3  2  2.50      -196.2559  10.0000                                         
     4  0  0.50       -58.3859   2.0000                                         
     4  1  1.50       -34.5141   6.0000                                         
     4  2  2.50        -3.0408   4.0000                                         
     5  0  0.50        -3.9816   1.0000                                         
     4  3  2.50        -1.3606   0.0000                                         
   Description                                                                  
     l       E           TYP  RCUT    TYP  RCUT                                 
     1    -34.5140617     23  2.600                                             
     1     -1.3605826     23  2.600                                             
     2     -3.0407924     23  2.600                                             
     2     -1.4463597     23  2.600                                             
     0     -3.9816219     23  2.750                                             
     0     20.4087390     23  2.750                                             
  local pseudopotential read in
  partial core-charges read in
  partial kinetic energy density read in
  atomic valenz-charges read in
  non local Contribution for L=           1  read in
    real space projection operators read in
  non local Contribution for L=           1  read in
    real space projection operators read in
  non local Contribution for L=           2  read in
    real space projection operators read in
  non local Contribution for L=           2  read in
    real space projection operators read in
  non local Contribution for L=           0  read in
    real space projection operators read in
  non local Contribution for L=           0  read in
    real space projection operators read in
    PAW grid and wavefunctions read in
 
   number of l-projection  operators is LMAX  =           6
   number of lm-projection operators is LMMAX =          18
 
 POTCAR:    PAW_PBE O 08Apr2002                   
   VRHFIN =O: s2p4                                                              
   LEXCH  = PE                                                                  
   EATOM  =   432.3788 eV,   31.7789 Ry                                         
                                                                                
   TITEL  = PAW_PBE O 08Apr2002                                                 
   LULTRA =        F    use ultrasoft PP ?                                      
   IUNSCR =        1    unscreen: 0-lin 1-nonlin 2-no                           
   RPACOR =    1.200    partial core radius                                     
   POMASS =   16.000; ZVAL   =    6.000    mass and valenz                      
   RCORE  =    1.520    outmost cutoff radius                                   
   RWIGS  =    1.550; RWIGS  =    0.820    wigner-seitz radius (au A)           
   ENMAX  =  400.000; ENMIN  =  300.000 eV                                      
   ICORE  =        2    local potential                                         
   LCOR   =        T    correct aug charges                                     
   LPAW   =        T    paw PP                                                  
   EAUG   =  605.392                                                            
   DEXC   =    0.000                                                            
   RMAX   =    1.553    core radius for proj-oper                               
   RAUG   =    1.300    factor for augmentation sphere                          
   RDEP   =    1.550    radius for radial grids                                 
   RDEPT  =    1.329    core radius for aug-charge                              
                                                                                
   Atomic configuration                                                         
    4 entries                                                                   
     n  l   j            E        occ.                                          
     1  0  0.50      -514.6923   2.0000                                         
     2  0  0.50       -23.9615   2.0000                                         
     2  1  0.50        -9.0305   4.0000                                         
     3  2  1.50        -9.5241   0.0000                                         
   Description                                                                  
     l       E           TYP  RCUT    TYP  RCUT                                 
     0    -23.9615318     23  1.200                                             
     0     -9.5240782     23  1.200                                             
     1     -9.0304911     23  1.520                                             
     1      8.1634956     23  1.520                                             
     2     -9.5240782      7  1.500                                             
  local pseudopotential read in
  partial core-charges read in
  partial kinetic energy density read in
  kinetic energy density of atom read in
  atomic valenz-charges read in
  non local Contribution for L=           0  read in
    real space projection operators read in
  non local Contribution for L=           0  read in
    real space projection operators read in
  non local Contribution for L=           1  read in
    real space projection operators read in
  non local Contribution for L=           1  read in
    real space projection operators read in
    PAW grid and wavefunctions read in
 
   number of l-projection  operators is LMAX  =           4
   number of lm-projection operators is LMMAX =           8
 

 ----------------------------------------------------------------------------- 
|                                                                             |
|  ADVICE TO THIS USER RUNNING 'VASP/VAMP'   (HEAR YOUR MASTER'S VOICE ...):  |
|                                                                             |
|      You have a (more or less) 'large supercell' and for larger cells       |
|      it might be more efficient to use real space projection opertators     |
|      So try LREAL= Auto  in the INCAR   file.                               |
|      Mind:          For very  accurate calculation you might also keep the  |
|      reciprocal projection scheme          (i.e. LREAL=.FALSE.)             |
|                                                                             |
 ----------------------------------------------------------------------------- 

  PAW_PBE Na 08Apr2002                  :
 energy of atom  1       EATOM=   -5.1581
 kinetic energy error for atom=    0.0000 (will be added to EATOM!!)
  PAW_PBE Nb_pv 08Apr2002               :
 energy of atom  2       EATOM=-1043.3917
 kinetic energy error for atom=    0.0009 (will be added to EATOM!!)
  PAW_PBE O 08Apr2002                   :
 energy of atom  3       EATOM= -432.3788
 kinetic energy error for atom=    0.0194 (will be added to EATOM!!)
 
 
 POSCAR: Na32 Nb32 O95                           
  positions in direct lattice
  No initial velocities read in
 exchange correlation table for  LEXCH =        8
   RHO(1)=    0.500       N(1)  =     2000
   RHO(2)=  100.500       N(2)  =     4000

 VTST: version 3.2, (02/03/18)

 CHAIN: initializing optimizer
 
 OPT: Using VASP Conjugate-Gradient optimizer
 CHAIN: Read ICHAIN            0
 
 POSCAR: Na32 Nb32 O95                           
  positions in direct lattice
  No initial velocities read in
 


--------------------------------------------------------------------------------------------------------


 ion  position               nearest neighbor table
   1  0.130  0.126  0.001- 128 2.35  89 2.36  93 2.36 124 2.76 120 2.84 136 2.85  75 2.89 137 2.90
                            80 2.95  33 3.30  38 3.36  53 3.38  49 3.41  55 3.41  51 3.43  37 3.58
   2  0.128  0.627  0.999- 129 2.35  94 2.37  90 2.39 121 2.78 125 2.79 137 2.81 136 2.88  76 2.90
                            79 2.94  34 3.31  37 3.32  50 3.40  56 3.41  54 3.41  52 3.42  38 3.56
   3  0.628  0.127  0.000- 130 2.35  95 2.37  91 2.39 126 2.78 122 2.79 138 2.84  73 2.88 139 2.90
                            78 2.92  35 3.30  40 3.32  53 3.40  55 3.40  51 3.40  49 3.41  39 3.55
   4  0.631  0.626  0.002- 131 2.35  92 2.37  96 2.37 123 2.74 127 2.76 139 2.84 138 2.87  74 2.89
                            77 2.99  36 3.30  39 3.34  56 3.37  52 3.39  54 3.42  50 3.43  40 3.57
   5  0.364  0.382  0.497- 132 2.30  85 2.37  81 2.43 116 2.68 141 2.74 112 2.79  68 2.89 140 2.98
                            71 3.05  42 3.25  59 3.29  61 3.33  57 3.37  63 3.44  45 3.51  46 3.57
   6  0.372  0.875  0.498- 133 2.33  86 2.33  82 2.36 113 2.76 117 2.81 140 2.83  67 2.85 141 2.90
                            72 2.99  41 3.31  46 3.33  64 3.38  62 3.41  60 3.43  58 3.44  45 3.52
   7  0.874  0.379  0.498- 134 2.31  87 2.35  83 2.36 143 2.67 114 2.72 118 2.78  66 2.82 142 2.93
                            69 2.95  44 3.27  47 3.33  61 3.37  57 3.40  63 3.41  59 3.55  48 3.59
   8  0.868  0.892  0.496- 135 2.33  84 2.36  88 2.38 142 2.65 119 2.65  65 2.75 115 2.87  43 3.16
                            64 3.34  62 3.39  60 3.42  48 3.43  58 3.46  47 3.49  15 3.60  44 3.71
   9  0.371  0.376  0.000- 136 2.34  73 2.36  77 2.37 104 2.79 108 2.80 129 2.83 128 2.86  96 2.91
                            91 2.96  54 3.31  49 3.34  37 3.39  33 3.40  35 3.41  39 3.42  50 3.56
  10  0.370  0.876  0.001- 137 2.36  74 2.36  78 2.37 105 2.77 109 2.79 128 2.86 129 2.89  95 2.91
                            92 2.94  53 3.31  50 3.33  34 3.39  38 3.40  40 3.42  36 3.42  54 3.58
  11  0.870  0.376  0.001- 138 2.35  75 2.36  79 2.38 110 2.77 106 2.77 131 2.87 130 2.89  94 2.90
                            89 2.93  56 3.31  51 3.33  39 3.39  35 3.40  33 3.41  37 3.42  52 3.57
  12  0.872  0.876  0.000- 139 2.33  76 2.36  80 2.37 111 2.79 107 2.80 130 2.84 131 2.85  93 2.90
                            90 3.00  55 3.30  52 3.35  40 3.38  34 3.40  36 3.41  38 3.42  51 3.56
  13  0.124  0.131  0.494-  65 2.33 140 2.37  69 2.37  97 2.71  87 2.76 132 2.82 133 2.84 101 2.93
                            84 2.97  61 3.23  43 3.34  45 3.35  41 3.39  58 3.41  47 3.42  62 3.58
  14  0.137  0.623  0.494- 141 2.31  66 2.32  70 2.37  98 2.64 132 2.81 102 2.81  88 2.84 133 2.99
                           116 3.03  83 3.06  42 3.28  62 3.29  57 3.35  48 3.40  46 3.42  44 3.44
  15  0.631  0.107  0.495-  67 2.28 142 2.34  71 2.36 135 2.60 103 2.74  99 2.79  82 2.90  85 2.93
                           119 3.00  60 3.21  43 3.35  64 3.37  41 3.41  59 3.42  47 3.43  63 3.45
  16  0.625  0.626  0.495-  68 2.32 143 2.33  72 2.35 100 2.70 134 2.75  86 2.79 135 2.91  81 2.94
                            64 3.26  42 3.34  44 3.38  46 3.41  63 3.53  48 3.57  60 3.62  59 3.64
  17  0.130  0.100  0.249- 145 2.48 154 2.48 124 2.49  97 2.54 117 2.61 105 2.63  93 2.66  65 2.72
                            34 3.33  62 3.35  41 3.37  53 3.39  55 3.41  43 3.41  33 3.55  61 3.57
  18  0.130  0.601  0.249- 144 2.45 155 2.48 125 2.49  98 2.54 104 2.64 116 2.66  94 2.68  66 2.72
                            61 3.34  33 3.35  54 3.38  42 3.39  56 3.41  44 3.43  34 3.53  62 3.55
  19  0.629  0.101  0.250- 147 2.46 152 2.48 126 2.50  99 2.55 119 2.63 107 2.64  95 2.67  67 2.70
                            36 3.34  64 3.35  43 3.38  55 3.39  53 3.40  41 3.42  35 3.54  63 3.57
  20  0.630  0.599  0.250- 146 2.47 127 2.49 153 2.50 100 2.55 118 2.62 106 2.64  96 2.66  68 2.67
                            35 3.33  63 3.34  44 3.38  56 3.39  42 3.41  54 3.42  36 3.54  64 3.56
  21  0.123  0.151  0.755- 148 2.39 158 2.45 101 2.47 120 2.49  89 2.58 108 2.64  69 2.69 112 2.79
                            37 3.30  51 3.32  45 3.34  57 3.39  49 3.40  47 3.41  38 3.51  58 3.60
  22  0.137  0.650  0.754- 121 2.42 149 2.43 102 2.49  90 2.57 109 2.57 113 2.71  70 2.77 159 2.79
                           157 3.08  38 3.30  50 3.30  46 3.37  58 3.39  48 3.43  52 3.46  37 3.53
  23  0.629  0.141  0.757- 122 2.39 156 2.43 103 2.49  91 2.56 150 2.59 110 2.66  71 2.85 114 2.90
                            59 3.26  51 3.34  49 3.34  39 3.36  40 3.42  47 3.46  60 3.52  45 3.62
  24  0.626  0.656  0.759- 151 2.37 157 2.46 123 2.47  92 2.52 111 2.57  72 2.70 115 2.78 159 3.04
                            40 3.23  50 3.31  52 3.33  60 3.36  46 3.43  39 3.54  48 3.66   4 3.81
  25  0.369  0.351  0.249- 152 2.43 104 2.47 146 2.48 116 2.52 124 2.64  97 2.65  73 2.69  85 2.78
                            41 3.35  53 3.35  33 3.38  61 3.39  35 3.41  63 3.43  54 3.53  42 3.54
  26  0.370  0.851  0.250- 153 2.43 147 2.48 105 2.49 117 2.50 125 2.64  98 2.69  74 2.69  86 2.73
                            42 3.34  54 3.35  34 3.38  36 3.41  62 3.41  64 3.43  41 3.53  53 3.54
  27  0.870  0.351  0.249- 154 2.44 144 2.47 106 2.48 118 2.49 126 2.63  75 2.68  99 2.69  87 2.74
                            43 3.33  55 3.35  35 3.37  33 3.41  63 3.41  61 3.42  56 3.54  44 3.55
  28  0.869  0.851  0.249- 155 2.45 107 2.46 145 2.47 119 2.52 127 2.63  76 2.67 100 2.68  88 2.80
                            56 3.34  44 3.36  36 3.36  64 3.39  34 3.42  62 3.42  55 3.53  43 3.55
  29  0.369  0.402  0.752- 157 2.41 108 2.48 112 2.50  77 2.60 121 2.61 150 2.64 102 2.66  81 2.71
                            50 3.30  37 3.35  46 3.36  57 3.39  59 3.39  39 3.42  49 3.54  45 3.68
  30  0.374  0.897  0.753- 109 2.46 151 2.47 156 2.49 113 2.49 120 2.63  78 2.63  82 2.67 101 2.72
                            45 3.29  49 3.33  38 3.37  40 3.38  60 3.40  58 3.47  50 3.51  46 3.53
  31  0.876  0.392  0.755- 159 2.40 110 2.43 148 2.44 114 2.47  79 2.58  83 2.68 123 2.75 150 3.06
                            37 3.33  52 3.36  39 3.39  57 3.40  51 3.44  47 3.49  48 3.56  59 3.73
  32  0.868  0.903  0.751- 158 2.43 111 2.48 149 2.53 115 2.55 122 2.61  80 2.64 103 2.64  84 2.69
                            51 3.31  47 3.36  40 3.37  60 3.37  38 3.43  58 3.45  52 3.57  48 3.57
  33  0.121  0.361  0.125-  75 1.89 124 1.90 136 2.01 144 2.02  94 2.18 104 2.20   1 3.30  18 3.35
                            25 3.38   9 3.40  27 3.41  11 3.41  17 3.55   2 3.60
  34  0.121  0.861  0.125- 125 1.90  76 1.90 137 2.01 145 2.02  93 2.17 105 2.19   2 3.31  17 3.33
                            26 3.38  10 3.39  12 3.40  28 3.42  18 3.53   1 3.58
  35  0.621  0.361  0.126-  73 1.90 126 1.90 138 2.02 146 2.02  96 2.17 106 2.20   3 3.30  20 3.33
                            27 3.37  11 3.40  25 3.41   9 3.41  19 3.54   4 3.58
  36  0.621  0.861  0.126-  74 1.90 127 1.90 147 2.00 139 2.01  95 2.18 107 2.20   4 3.30  19 3.34
                            28 3.36  26 3.41  12 3.41  10 3.42  20 3.54   3 3.61
  37  0.122  0.389  0.875- 121 1.89  79 1.90 136 2.00 148 2.01  89 2.19 108 2.20  21 3.30   2 3.32
                            31 3.33  29 3.35   9 3.39  11 3.42  22 3.53   1 3.58
  38  0.122  0.888  0.874-  80 1.90 120 1.90 137 2.00 149 2.02 109 2.20  90 2.20  22 3.30   1 3.36
                            30 3.37  10 3.40  12 3.42  32 3.43  21 3.51   2 3.56
  39  0.623  0.389  0.875- 123 1.89  77 1.90 138 1.99 150 2.06  91 2.16 110 2.18   4 3.34  23 3.36
                            11 3.39  31 3.39   9 3.42  29 3.42  24 3.54   3 3.55
  40  0.622  0.889  0.877-  78 1.90 122 1.90 139 1.99 151 2.02  92 2.19 111 2.20  24 3.23   3 3.32
                            32 3.37  30 3.38  12 3.38  10 3.42  23 3.42   4 3.57
  41  0.377  0.111  0.373- 117 1.89  67 1.90 152 1.99 140 2.05  97 2.18  85 2.21   6 3.31  25 3.35
                            17 3.37  13 3.39  15 3.41  19 3.42  26 3.53   5 3.63
  42  0.379  0.612  0.374-  68 1.90 116 1.90 153 1.99 141 2.03  86 2.16  98 2.19   5 3.25  14 3.28
                            16 3.34  26 3.34  18 3.39  20 3.41  25 3.54   6 3.56
  43  0.878  0.113  0.373- 119 1.91  65 1.91 154 1.98 142 2.04  87 2.16  99 2.17   8 3.16  27 3.33
                            13 3.34  15 3.35  19 3.38  17 3.41  28 3.55   7 3.60
  44  0.877  0.611  0.374- 118 1.89  66 1.90 155 1.98 143 2.11 100 2.16  88 2.19   7 3.27  28 3.36
                            20 3.38  16 3.38  18 3.43  14 3.44  27 3.55   8 3.71
  45  0.361  0.129  0.626- 112 1.88 140 1.97 101 1.97 156 2.00  71 2.10  82 2.20  30 3.29  21 3.34
                            13 3.35   5 3.51   6 3.52  23 3.62  15 3.64  29 3.68
  46  0.381  0.641  0.626- 113 1.89  72 1.90 141 2.00 157 2.00 102 2.22  81 2.25   6 3.33  29 3.36
                            22 3.37  16 3.41  14 3.42  24 3.43  30 3.53   5 3.57
  47  0.878  0.143  0.624-  69 1.89 114 1.93 142 1.98 158 2.01 103 2.21  84 2.21   7 3.33  32 3.36
                            21 3.41  13 3.42  15 3.43  23 3.46  31 3.49   8 3.49
  48  0.892  0.646  0.621-  70 1.85 115 1.89 143 1.96 159 1.98  83 2.15  14 3.40   8 3.43  22 3.43
                            31 3.56  16 3.57  32 3.57   7 3.59  24 3.66
  49  0.378  0.139  0.874- 108 1.89  91 1.91 128 2.00 156 2.02  78 2.19 120 2.19  30 3.33  23 3.34
                             9 3.34  21 3.40   1 3.41   3 3.41  29 3.54  10 3.59
  50  0.379  0.638  0.875- 109 1.90  92 1.90 129 2.00 157 2.01  77 2.18 121 2.20  22 3.30  29 3.30
                            24 3.31  10 3.33   2 3.40   4 3.43  30 3.51   9 3.56
  51  0.878  0.139  0.876- 110 1.90  89 1.90 130 2.01 158 2.01  80 2.18 122 2.19  32 3.31  21 3.32
                            11 3.33  23 3.34   3 3.40   1 3.43  31 3.44  12 3.56
  52  0.877  0.638  0.874- 111 1.89  90 1.90 131 2.00 159 2.07 123 2.17  79 2.18  24 3.33  12 3.35
                            31 3.36   4 3.39   2 3.42  22 3.46  32 3.57  11 3.57
  53  0.379  0.111  0.125-  95 1.90 105 1.90 128 2.01 152 2.02  73 2.18 124 2.20  10 3.31  25 3.35
                             1 3.38  17 3.39   3 3.40  19 3.40  26 3.54   9 3.58
  54  0.378  0.611  0.125- 104 1.89  96 1.90 129 2.01 153 2.01  74 2.18 125 2.20   9 3.31  26 3.35
                            18 3.38   2 3.41  20 3.42   4 3.42  25 3.53  10 3.58
  55  0.878  0.111  0.125- 107 1.89  93 1.90 130 1.99 154 2.02  75 2.19 126 2.20  12 3.30  27 3.35
                            19 3.39   3 3.40   1 3.41  17 3.41  28 3.53  11 3.58
  56  0.879  0.612  0.125-  94 1.89 106 1.90 131 2.02 155 2.03  76 2.17 127 2.19  11 3.31  28 3.34
                             4 3.37  20 3.39  18 3.41   2 3.41  27 3.54  12 3.58
  57  0.121  0.391  0.626- 102 1.89  83 1.91 132 1.99 148 2.00  69 2.20 112 2.23  14 3.35   5 3.37
                            29 3.39  21 3.39  31 3.40   7 3.40  22 3.56  13 3.60
  58  0.120  0.889  0.624-  84 1.88 101 1.95 133 1.97 149 2.00  70 2.12 113 2.23  22 3.39  13 3.41
                             6 3.44  32 3.45   8 3.46  30 3.47  21 3.60  14 3.66
  59  0.604  0.355  0.619-  71 1.85  81 1.89 134 1.97 150 1.97 114 2.14  23 3.26   5 3.29  29 3.39
                            15 3.42   7 3.55  16 3.64  31 3.73
  60  0.621  0.889  0.626-  82 1.89 103 1.91 151 1.99 135 2.02  72 2.18 115 2.24  15 3.21  24 3.36
                            32 3.37  30 3.40   8 3.42   6 3.43  23 3.52  16 3.62
  61  0.121  0.363  0.374-  87 1.90  97 1.90 144 1.99 132 2.03  66 2.17 116 2.19  13 3.23   5 3.33
                            18 3.34   7 3.37  25 3.39  27 3.42  14 3.50  17 3.57
  62  0.119  0.862  0.375-  88 1.90  98 1.90 145 1.98 133 2.04  65 2.16 117 2.21  14 3.29  17 3.35
                             8 3.39   6 3.41  26 3.41  28 3.42  18 3.55  13 3.58
  63  0.621  0.362  0.376-  85 1.89  99 1.90 146 1.99 134 2.07  68 2.15 118 2.21  20 3.34   7 3.41
                            27 3.41  25 3.43   5 3.44  15 3.45  16 3.53  19 3.57
  64  0.622  0.861  0.375-  86 1.90 100 1.91 147 2.00 135 2.01  67 2.17 119 2.19  16 3.26   8 3.34
                            19 3.35  15 3.37   6 3.38  28 3.39  26 3.43  20 3.56
  65  0.018  0.022  0.393-  43 1.91  62 2.16  13 2.33  17 2.72   8 2.75
  66  0.020  0.523  0.394-  44 1.90  61 2.17  14 2.32  18 2.72   7 2.82
  67  0.517  0.021  0.392-  41 1.90  64 2.17  15 2.28  19 2.70   6 2.85
  68  0.521  0.522  0.391-  42 1.90  63 2.15  16 2.32  20 2.67   5 2.89
  69  0.022  0.226  0.608-  47 1.89  57 2.20  13 2.37  21 2.69   7 2.95
  70  0.033  0.727  0.602-  48 1.85  58 2.12  14 2.37  22 2.77
  71  0.523  0.215  0.600-  59 1.85  45 2.10  15 2.36  23 2.85   5 3.05
  72  0.527  0.723  0.608-  46 1.90  60 2.18  16 2.35  24 2.70   6 2.99
  73  0.479  0.274  0.107-  35 1.90  53 2.18   9 2.36  25 2.69   3 2.88
  74  0.479  0.773  0.106-  36 1.90  54 2.18  10 2.36  26 2.69   4 2.89
  75  0.979  0.274  0.107-  33 1.89  55 2.19  11 2.36  27 2.68   1 2.89
  76  0.978  0.774  0.108-  34 1.90  56 2.17  12 2.36  28 2.67   2 2.90
  77  0.477  0.474  0.890-  39 1.90  50 2.18   9 2.37  29 2.60   4 2.99
  78  0.479  0.976  0.893-  40 1.90  49 2.19  10 2.37  30 2.63   3 2.92
  79  0.978  0.476  0.890-  37 1.90  52 2.18  11 2.38  31 2.58   2 2.94
  80  0.979  0.976  0.891-  38 1.90  51 2.18  12 2.37  32 2.64   1 2.95
  81  0.485  0.472  0.608-  59 1.89  46 2.25   5 2.43  29 2.71  16 2.94
  82  0.476  0.973  0.609-  60 1.89  45 2.20   6 2.36  30 2.67  15 2.90
  83  0.975  0.476  0.610-  57 1.91  48 2.15   7 2.36  31 2.68  14 3.06
  84  0.979  0.977  0.608-  58 1.88  47 2.21   8 2.36  32 2.69  13 2.97
  85  0.481  0.273  0.398-  63 1.89  41 2.21   5 2.37  25 2.78  15 2.93
  86  0.481  0.771  0.394-  64 1.90  42 2.16   6 2.33  26 2.73  16 2.79
  87  0.980  0.272  0.394-  61 1.90  43 2.16   7 2.35  27 2.74  13 2.76
  88  0.980  0.772  0.400-  62 1.90  44 2.19   8 2.38  28 2.80  14 2.84
  89  0.022  0.226  0.893-  51 1.90  37 2.19   1 2.36  21 2.58  11 2.93
  90  0.022  0.723  0.886-  52 1.90  38 2.20   2 2.39  22 2.57  12 3.00
  91  0.523  0.227  0.889-  49 1.91  39 2.16   3 2.39  23 2.56   9 2.96
  92  0.522  0.725  0.893-  50 1.90  40 2.19   4 2.37  24 2.52  10 2.94
  93  0.022  0.023  0.108-  55 1.90  34 2.17   1 2.36  17 2.66  12 2.90
  94  0.021  0.524  0.107-  56 1.89  33 2.18   2 2.37  18 2.68  11 2.90
  95  0.521  0.023  0.107-  53 1.90  36 2.18   3 2.37  19 2.67  10 2.91
  96  0.521  0.523  0.108-  54 1.90  35 2.17   4 2.37  20 2.66   9 2.91
  97  0.229  0.235  0.358-  61 1.90  41 2.18  17 2.54  25 2.65  13 2.71
  98  0.228  0.734  0.360-  62 1.90  42 2.19  18 2.54  14 2.64  26 2.69
  99  0.729  0.235  0.360-  63 1.90  43 2.17  19 2.55  27 2.69  15 2.79
 100  0.730  0.733  0.360-  64 1.91  44 2.16  20 2.55  28 2.68  16 2.70
 101  0.225  0.023  0.649-  58 1.95  45 1.97  21 2.47  30 2.72  13 2.93
 102  0.228  0.519  0.644-  57 1.89  46 2.22  22 2.49  29 2.66  14 2.81
 103  0.727  0.019  0.644-  60 1.91  47 2.21  23 2.49  32 2.64  15 2.74
 104  0.272  0.484  0.145-  54 1.89  33 2.20  25 2.47  18 2.64   9 2.79
 105  0.271  0.984  0.143-  53 1.90  34 2.19  26 2.49  17 2.63  10 2.77
 106  0.772  0.484  0.143-  56 1.90  35 2.20  27 2.48  20 2.64  11 2.77
 107  0.772  0.983  0.145-  55 1.89  36 2.20  28 2.46  19 2.64  12 2.80
 108  0.272  0.267  0.856-  49 1.89  37 2.20  29 2.48  21 2.64   9 2.80
 109  0.273  0.766  0.856-  50 1.90  38 2.20  30 2.46  22 2.57  10 2.79
 110  0.773  0.268  0.858-  51 1.90  39 2.18  31 2.43  23 2.66  11 2.77
 111  0.773  0.767  0.856-  52 1.89  40 2.20  32 2.48  24 2.57  12 2.79
 112  0.276  0.269  0.643-  45 1.88  57 2.23  29 2.50   5 2.79  21 2.79
 113  0.278  0.771  0.643-  46 1.89  58 2.23  30 2.49  22 2.71   6 2.76
 114  0.776  0.278  0.640-  47 1.93  59 2.14  31 2.47   7 2.72  23 2.90
 115  0.776  0.765  0.640-  48 1.89  60 2.24  32 2.55  24 2.78   8 2.87
 116  0.271  0.484  0.357-  42 1.90  61 2.19  25 2.52  18 2.66   5 2.68  14 3.03
 117  0.269  0.986  0.355-  41 1.89  62 2.21  26 2.50  17 2.61   6 2.81
 118  0.772  0.484  0.355-  44 1.89  63 2.21  27 2.49  20 2.62   7 2.78
 119  0.770  0.985  0.356-  43 1.91  64 2.19  28 2.52  19 2.63   8 2.65  15 3.00
 120  0.229  0.016  0.855-  38 1.90  49 2.19  21 2.49  30 2.63   1 2.84
 121  0.228  0.517  0.856-  37 1.89  50 2.20  22 2.42  29 2.61   2 2.78
 122  0.728  0.017  0.858-  40 1.90  51 2.19  23 2.39  32 2.61   3 2.79
 123  0.725  0.519  0.859-  39 1.89  52 2.17  24 2.47   4 2.74  31 2.75
 124  0.228  0.234  0.144-  33 1.90  53 2.20  17 2.49  25 2.64   1 2.76
 125  0.228  0.734  0.144-  34 1.90  54 2.20  18 2.49  26 2.64   2 2.79
 126  0.729  0.234  0.144-  35 1.90  55 2.20  19 2.50  27 2.63   3 2.78
 127  0.728  0.733  0.145-  36 1.90  56 2.19  20 2.49  28 2.63   4 2.76
 128  0.341  0.126  0.999-  49 2.00  53 2.01   1 2.35   9 2.86  10 2.86
 129  0.339  0.623  0.000-  50 2.00  54 2.01   2 2.35   9 2.83  10 2.89
 130  0.839  0.124  0.000-  55 1.99  51 2.01   3 2.35  12 2.84  11 2.89
 131  0.842  0.627  0.999-  52 2.00  56 2.02   4 2.35  12 2.85  11 2.87
 132  0.157  0.377  0.501-  57 1.99  61 2.03   5 2.30  14 2.81  13 2.82
 133  0.164  0.884  0.501-  58 1.97  62 2.04   6 2.33  13 2.84  14 2.99
 134  0.667  0.388  0.503-  59 1.97  63 2.07   7 2.31  16 2.75
 135  0.659  0.880  0.500-  64 2.01  60 2.02   8 2.33  15 2.60  16 2.91
 136  0.161  0.376  0.000-  37 2.00  33 2.01   9 2.34   1 2.85   2 2.88
 137  0.158  0.872  0.999-  38 2.00  34 2.01  10 2.36   2 2.81   1 2.90
 138  0.659  0.375  1.000-  39 1.99  35 2.02  11 2.35   3 2.84   4 2.87
 139  0.662  0.874  0.001-  40 1.99  36 2.01  12 2.33   4 2.84   3 2.90
 140  0.336  0.121  0.501-  45 1.97  41 2.05  13 2.37   6 2.83   5 2.98
 141  0.344  0.621  0.501-  46 2.00  42 2.03  14 2.31   5 2.74   6 2.90
 142  0.840  0.123  0.501-  47 1.98  43 2.04  15 2.34   8 2.65   7 2.93
 143  0.833  0.611  0.506-  48 1.96  44 2.11  16 2.33   7 2.67
 144  0.088  0.390  0.250-  61 1.99  33 2.02  18 2.45  27 2.47
 145  0.088  0.886  0.251-  62 1.98  34 2.02  28 2.47  17 2.48
 146  0.589  0.386  0.252-  63 1.99  35 2.02  20 2.47  25 2.48
 147  0.589  0.888  0.250-  64 2.00  36 2.00  19 2.46  26 2.48
 148  0.092  0.359  0.750-  57 2.00  37 2.01  21 2.39  31 2.44
 149  0.090  0.859  0.748-  58 2.00  38 2.02  22 2.43  32 2.53
 150  0.603  0.367  0.745-  59 1.97  39 2.06  23 2.59  29 2.64  31 3.06
 151  0.592  0.861  0.751-  60 1.99  40 2.02  24 2.37  30 2.47
 152  0.411  0.141  0.250-  41 1.99  53 2.02  25 2.43  19 2.48
 153  0.410  0.641  0.250-  42 1.99  54 2.01  26 2.43  20 2.50
 154  0.911  0.141  0.250-  43 1.98  55 2.02  27 2.44  17 2.48
 155  0.911  0.640  0.252-  44 1.98  56 2.03  28 2.45  18 2.48
 156  0.414  0.112  0.748-  45 2.00  49 2.02  23 2.43  30 2.49
 157  0.411  0.610  0.750-  46 2.00  50 2.01  29 2.41  24 2.46  22 3.08
 158  0.907  0.114  0.750-  47 2.01  51 2.01  32 2.43  21 2.45
 159  0.892  0.602  0.744-  48 1.98  52 2.07  31 2.40  22 2.79  24 3.04
 
  LATTYP: Found a simple orthorhombic cell.
 ALAT       =    11.1480910000
 B/A-ratio  =     1.0195506118
 C/A-ratio  =     1.3988882940
  
  Lattice vectors:
  
 A1 = (  11.1480910000,   0.0000000000,   0.0000000000)
 A2 = (   0.0000000000,  11.3660430000,   0.0000000000)
 A3 = (   0.0000000000,   0.0000000000,  15.5949340000)


Analysis of symmetry for initial positions (statically):
=====================================================================
 Subroutine PRICEL returns:
 Original cell was already a primitive cell.
 

 Routine SETGRP: Setting up the symmetry group for a 
 simple orthorhombic supercell.


 Subroutine GETGRP returns: Found  1 space group operations
 (whereof  1 operations were pure point group operations)
 out of a pool of  8 trial point group operations.


The static configuration has the point symmetry C_1 .


Analysis of symmetry for dynamics (positions and initial velocities):
=====================================================================
 Subroutine PRICEL returns:
 Original cell was already a primitive cell.
 

 Routine SETGRP: Setting up the symmetry group for a 
 simple orthorhombic supercell.


 Subroutine GETGRP returns: Found  1 space group operations
 (whereof  1 operations were pure point group operations)
 out of a pool of  8 trial point group operations.


The dynamic configuration has the point symmetry C_1 .


 Subroutine INISYM returns: Found  1 space group operations
 (whereof  1 operations are pure point group operations),
 and found     1 'primitive' translations

 
 
 KPOINTS: pymatgen with grid density = 1000 / numb

Automatic generation of k-mesh.
Space group operators:
 irot       det(A)        alpha          n_x          n_y          n_z        tau_x        tau_y        tau_z
    1     1.000000     0.000001     1.000000     0.000000     0.000000     0.000000     0.000000     0.000000
 
 Subroutine IBZKPT returns following result:
 ===========================================
 
 Found      8 irreducible k-points:
 
 Following reciprocal coordinates:
            Coordinates               Weight
  0.000000  0.000000  0.000000      1.000000
  0.500000  0.000000  0.000000      1.000000
  0.000000  0.500000  0.000000      1.000000
  0.500000  0.500000  0.000000      1.000000
  0.000000  0.000000  0.500000      1.000000
  0.500000  0.000000  0.500000      1.000000
  0.000000  0.500000  0.500000      1.000000
  0.500000  0.500000  0.500000      1.000000
 
 Following cartesian coordinates:
            Coordinates               Weight
  0.000000  0.000000  0.000000      1.000000
  0.044851  0.000000  0.000000      1.000000
  0.000000  0.043991  0.000000      1.000000
  0.044851  0.043991  0.000000      1.000000
  0.000000  0.000000  0.032062      1.000000
  0.044851  0.000000  0.032062      1.000000
  0.000000  0.043991  0.032062      1.000000
  0.044851  0.043991  0.032062      1.000000
 


--------------------------------------------------------------------------------------------------------




 Dimension of arrays:
   k-points           NKPTS =      8   k-points in BZ     NKDIM =      8   number of bands    NBANDS=    768
   number of dos      NEDOS =    301   number of ions     NIONS =    159
   non local maximal  LDIM  =      6   non local SUM 2l+1 LMDIM =     18
   total plane-waves  NPLWV = 403200
   max r-space proj   IRMAX =      1   max aug-charges    IRDMAX=  12761
   dimension x,y,z NGX =    64 NGY =   70 NGZ =   90
   dimension x,y,z NGXF=   128 NGYF=  140 NGZF=  180
   support grid    NGXF=   128 NGYF=  140 NGZF=  180
   ions per type =              32  32  95
   NGX,Y,Z   is equivalent  to a cutoff of   9.54, 10.24,  9.59 a.u.
   NGXF,Y,Z  is equivalent  to a cutoff of  19.09, 20.48, 19.19 a.u.

 SYSTEM =  Na32nb32o95                             
 POSCAR =  Na32 Nb32 O95                           

 Startparameter for this run:
   NWRITE =      2    write-flag & timer
   PREC   = normal    normal or accurate (medium, high low for compatibility)
   ISTART =      0    job   : 0-new  1-cont  2-samecut
   ICHARG =      2    charge: 1-file 2-atom 10-const
   ISPIN  =      1    spin polarized calculation?
   LNONCOLLINEAR =      F non collinear calculations
   LSORBIT =      F    spin-orbit coupling
   INIWAV =      1    electr: 0-lowe 1-rand  2-diag
   LASPH  =      F    aspherical Exc in radial PAW
   METAGGA=      F    non-selfconsistent MetaGGA calc.

 Electronic Relaxation 1
   ENCUT  =  550.0 eV  40.42 Ry    6.36 a.u.  21.32 21.73 29.82*2*pi/ulx,y,z
   ENINI  =  550.0     initial cutoff
   ENAUG  =  605.4 eV  augmentation charge cutoff
   NELM   =    200;   NELMIN=  2; NELMDL= -5     # of ELM steps 
   EDIFF  = 0.1E-03   stopping-criterion for ELM
   LREAL  =      F    real-space projection
   NLSPLINE    = F    spline interpolate recip. space projectors
   LCOMPAT=      F    compatible to vasp.4.4
   GGA_COMPAT  = T    GGA compatible to vasp.4.4-vasp.4.6
   LMAXPAW     = -100 max onsite density
   LMAXMIX     =    2 max onsite mixed and CHGCAR
   VOSKOWN=      0    Vosko Wilk Nusair interpolation
   ROPT   =    0.00000   0.00000   0.00000
 Ionic relaxation
   EDIFFG = -.5E-01   stopping-criterion for IOM
   NSW    =      0    number of steps for IOM
   NBLOCK =      1;   KBLOCK =      1    inner block; outer block 
   IBRION =     -1    ionic relax: 0-MD 1-quasi-New 2-CG
   NFREE  =      1    steps in history (QN), initial steepest desc. (CG)
   ISIF   =      2    stress and relaxation
   IWAVPR =     10    prediction:  0-non 1-charg 2-wave 3-comb
   ISYM   =      2    0-nonsym 1-usesym 2-fastsym
   LCORR  =      T    Harris-Foulkes like correction to forces

   POTIM  = 0.5000    time-step for ionic-motion
   TEIN   =    0.0    initial temperature
   TEBEG  =    0.0;   TEEND  =   0.0 temperature during run
   SMASS  =  -3.00    Nose mass-parameter (am)
   estimated Nose-frequenzy (Omega)   =  0.10E-29 period in steps =****** mass=  -0.284E-26a.u.
   SCALEE = 1.0000    scale energy and forces
   NPACO  =    256;   APACO  = 16.0  distance and # of slots for P.C.
   PSTRESS=    0.0 pullay stress

  Mass of Ions in am
   POMASS =  22.99 92.00 16.00
  Ionic Valenz
   ZVAL   =   1.00 11.00  6.00
  Atomic Wigner-Seitz radii
   RWIGS  =  -1.00 -1.00 -1.00
  virtual crystal weights 
   VCA    =   1.00  1.00  1.00
   NELECT =     952.0000    total number of electrons
   NUPDOWN=      -1.0000    fix difference up-down

 DOS related values:
   EMIN   =  10.00;   EMAX   =-10.00  energy-range for DOS
   EFERMI =   0.00
   ISMEAR =     0;   SIGMA  =   0.05  broadening in eV -4-tet -1-fermi 0-gaus

 Electronic relaxation 2 (details)
   IALGO  =     38    algorithm
   LDIAG  =      T    sub-space diagonalisation (order eigenvalues)
   LSUBROT=      F    optimize rotation matrix (better conditioning)
   TURBO    =      0    0=normal 1=particle mesh
   IRESTART =      0    0=no restart 2=restart with 2 vectors
   NREBOOT  =      0    no. of reboots
   NMIN     =      0    reboot dimension
   EREF     =   0.00    reference energy to select bands
   IMIX   =      4    mixing-type and parameters
     AMIX     =   0.20;   BMIX     =  1.00
     AMIX_MAG =   0.80;   BMIX_MAG =  1.00
     AMIN     =   0.10
     WC   =   100.;   INIMIX=   1;  MIXPRE=   1;  MAXMIX= -45

 Intra band minimization:
   WEIMIN = 0.0000     energy-eigenvalue tresh-hold
   EBREAK =  0.33E-07  absolut break condition
   DEPER  =   0.30     relativ break condition  

   TIME   =   0.40     timestep for ELM

  volume/ion in A,a.u.               =      12.43        83.87
  Fermi-wavevector in a.u.,A,eV,Ry     =   1.283382  2.425241 22.409748  1.647070
  Thomas-Fermi vector in A             =   2.415638
 
 Write flags
   LWAVE        =      T    write WAVECAR
   LDOWNSAMPLE  =      F    k-point downsampling of WAVECAR
   LCHARG       =      T    write CHGCAR
   LVTOT        =      F    write LOCPOT, total local potential
   LVHAR        =      F    write LOCPOT, Hartree potential only
   LELF         =      F    write electronic localiz. function (ELF)
   LORBIT       =     10    0 simple, 1 ext, 2 COOP (PROOUT), +10 PAW based schemes


 Dipole corrections
   LMONO  =      F    monopole corrections only (constant potential shift)
   LDIPOL =      F    correct potential (dipole corrections)
   IDIPOL =      0    1-x, 2-y, 3-z, 4-all directions 
   EPSILON=  1.0000000 bulk dielectric constant

 Exchange correlation treatment:
   GGA     =    --    GGA type
   LEXCH   =     8    internal setting for exchange type
   VOSKOWN=      0    Vosko Wilk Nusair interpolation
   LHFCALC =     F    Hartree Fock is set to
   LHFONE  =     F    Hartree Fock one center treatment
   AEXX    =    0.0000 exact exchange contribution

 Linear response parameters
   LEPSILON=     F    determine dielectric tensor
   LRPA    =     F    only Hartree local field effects (RPA)
   LNABLA  =     F    use nabla operator in PAW spheres
   LVEL    =     F    velocity operator in full k-point grid
   LINTERFAST=   F  fast interpolation
   KINTER  =     0    interpolate to denser k-point grid
   CSHIFT  =0.1000    complex shift for real part using Kramers Kronig
   OMEGAMAX=  -1.0    maximum frequency
   DEG_THRESHOLD= 0.2000000E-02 threshold for treating states as degnerate
   RTIME   =   -0.100 relaxation time in fs
  (WPLASMAI=    0.000 imaginary part of plasma frequency in eV, 0.658/RTIME)
   DFIELD  = 0.0000000 0.0000000 0.0000000 field for delta impulse in time
 
 Orbital magnetization related:
   ORBITALMAG=     F  switch on orbital magnetization
   LCHIMAG   =     F  perturbation theory with respect to B field
   DQ        =  0.001000  dq finite difference perturbation B field
   LLRAUG    =     F  two centre corrections for induced B field



--------------------------------------------------------------------------------------------------------


 Static calculation
 charge density and potential will be updated during run
 non-spin polarized calculation
 Variant of blocked Davidson
 Davidson routine will perform the subspace rotation
 perform sub-space diagonalisation
    after iterative eigenvector-optimisation
 modified Broyden-mixing scheme, WC =      100.0
 initial mixing is a Kerker type mixing with AMIX =  0.2000 and BMIX =      1.0000
 Hartree-type preconditioning will be used
 using additional bands          292
 reciprocal scheme for non local part
 use partial core corrections
 calculate Harris-corrections to forces 
   (improved forces if not selfconsistent)
 use gradient corrections 
 use of overlap-Matrix (Vanderbilt PP)
 Gauss-broadening in eV      SIGMA  =   0.05


--------------------------------------------------------------------------------------------------------


  energy-cutoff  :      550.00
  volume of cell :     1976.03
      direct lattice vectors                 reciprocal lattice vectors
    11.148091000  0.000000000  0.000000000     0.089701457  0.000000000  0.000000000
     0.000000000 11.366043000  0.000000000     0.000000000  0.087981367  0.000000000
     0.000000000  0.000000000 15.594934000     0.000000000  0.000000000  0.064123388

  length of vectors
    11.148091000 11.366043000 15.594934000     0.089701457  0.087981367  0.064123388


 
 k-points in units of 2pi/SCALE and weight: pymatgen with grid density = 1000 / numb
   0.00000000  0.00000000  0.00000000       0.125
   0.04485073  0.00000000  0.00000000       0.125
   0.00000000  0.04399068  0.00000000       0.125
   0.04485073  0.04399068  0.00000000       0.125
   0.00000000  0.00000000  0.03206169       0.125
   0.04485073  0.00000000  0.03206169       0.125
   0.00000000  0.04399068  0.03206169       0.125
   0.04485073  0.04399068  0.03206169       0.125
 
 k-points in reciprocal lattice and weights: pymatgen with grid density = 1000 / numb
   0.00000000  0.00000000  0.00000000       0.125
   0.50000000  0.00000000  0.00000000       0.125
   0.00000000  0.50000000  0.00000000       0.125
   0.50000000  0.50000000  0.00000000       0.125
   0.00000000  0.00000000  0.50000000       0.125
   0.50000000  0.00000000  0.50000000       0.125
   0.00000000  0.50000000  0.50000000       0.125
   0.50000000  0.50000000  0.50000000       0.125
 
 position of ions in fractional coordinates (direct lattice) 
   0.13014900  0.12639000  0.00133000
   0.12840800  0.62698200  0.99913600
   0.62817800  0.12741800  0.00019500
   0.63086400  0.62586800  0.00178900
   0.36395800  0.38162400  0.49680100
   0.37244600  0.87465100  0.49762300
   0.87365400  0.37886200  0.49835600
   0.86766400  0.89156000  0.49551100
   0.37087700  0.37600400  0.00040800
   0.36974300  0.87573900  0.00053000
   0.87031000  0.37594300  0.00057100
   0.87164100  0.87597100  0.00002200
   0.12426100  0.13070200  0.49424500
   0.13700900  0.62259100  0.49353400
   0.63078800  0.10718600  0.49538800
   0.62531800  0.62641200  0.49492000
   0.12983200  0.09975100  0.24910700
   0.13021000  0.60149100  0.24945000
   0.62916200  0.10056100  0.24957000
   0.62998300  0.59938600  0.24971000
   0.12291800  0.15075700  0.75478300
   0.13710300  0.65010400  0.75350100
   0.62912200  0.14148400  0.75700400
   0.62578400  0.65582100  0.75859400
   0.36932900  0.35130200  0.24931500
   0.36950500  0.85129400  0.24952000
   0.86962100  0.35128900  0.24864600
   0.86900300  0.85107400  0.24908000
   0.36863500  0.40207400  0.75236100
   0.37365000  0.89745200  0.75321000
   0.87584600  0.39177300  0.75474500
   0.86760000  0.90348900  0.75130800
   0.12147100  0.36123900  0.12512600
   0.12142900  0.86111100  0.12499700
   0.62142100  0.36124800  0.12577200
   0.62147100  0.86060400  0.12579500
   0.12206800  0.38908900  0.87526000
   0.12234900  0.88845800  0.87363300
   0.62252300  0.38887900  0.87529500
   0.62233500  0.88913000  0.87673600
   0.37657800  0.11136700  0.37348400
   0.37899600  0.61192100  0.37391700
   0.87766100  0.11317300  0.37303200
   0.87730800  0.61103300  0.37442200
   0.36126700  0.12864100  0.62621900
   0.38100000  0.64069100  0.62565500
   0.87750900  0.14269500  0.62437600
   0.89151100  0.64557900  0.62126500
   0.37828000  0.13916700  0.87385300
   0.37882900  0.63837900  0.87544900
   0.87830500  0.13890400  0.87550300
   0.87669300  0.63784000  0.87370300
   0.37871700  0.11149500  0.12490000
   0.37819100  0.61099900  0.12521900
   0.87805000  0.11073100  0.12476200
   0.87860800  0.61199800  0.12511700
   0.12136600  0.39118700  0.62576700
   0.12042700  0.88936400  0.62401600
   0.60391100  0.35507500  0.61852400
   0.62107900  0.88944800  0.62620200
   0.12054900  0.36253100  0.37400300
   0.11943300  0.86153900  0.37529400
   0.62093500  0.36215600  0.37591600
   0.62155400  0.86131900  0.37495600
   0.01812800  0.02160000  0.39301200
   0.01962800  0.52291200  0.39423000
   0.51734700  0.02091000  0.39169600
   0.52115300  0.52237600  0.39123700
   0.02243900  0.22594400  0.60796900
   0.03294000  0.72683900  0.60232700
   0.52325700  0.21499700  0.59985600
   0.52712700  0.72328500  0.60843200
   0.47918600  0.27362700  0.10669100
   0.47917100  0.77337500  0.10638000
   0.97912400  0.27371400  0.10665600
   0.97840800  0.77383400  0.10750200
   0.47734500  0.47358100  0.89016700
   0.47912400  0.97637000  0.89293900
   0.97757600  0.47551500  0.89042500
   0.97944800  0.97586800  0.89111500
   0.48466800  0.47220400  0.60832100
   0.47618900  0.97297400  0.60851900
   0.97501800  0.47604100  0.61042000
   0.97925800  0.97683600  0.60834600
   0.48120800  0.27261400  0.39825300
   0.48051300  0.77137500  0.39425500
   0.98006100  0.27183000  0.39415300
   0.97962900  0.77169400  0.39974100
   0.02184400  0.22557700  0.89312100
   0.02195100  0.72293700  0.88580000
   0.52264600  0.22673400  0.88857200
   0.52239400  0.72522500  0.89315000
   0.02164400  0.02338100  0.10773000
   0.02102200  0.52442500  0.10723300
   0.52121200  0.02347500  0.10747400
   0.52144300  0.52340800  0.10847100
   0.22935600  0.23546200  0.35756900
   0.22822100  0.73403500  0.36019500
   0.72899200  0.23464500  0.35980100
   0.73029600  0.73335900  0.35981500
   0.22468600  0.02283100  0.64936800
   0.22753900  0.51871800  0.64374600
   0.72667300  0.01910400  0.64407300
   0.27187000  0.48369800  0.14472400
   0.27117100  0.98396100  0.14325100
   0.77176900  0.48441400  0.14349400
   0.77212300  0.98341800  0.14483200
   0.27205600  0.26659400  0.85592200
   0.27322000  0.76643700  0.85602900
   0.77255000  0.26765100  0.85801200
   0.77300200  0.76741700  0.85568700
   0.27612200  0.26948500  0.64270700
   0.27785300  0.77085400  0.64257200
   0.77624400  0.27809700  0.64047100
   0.77622200  0.76516400  0.64042200
   0.27080600  0.48447700  0.35722500
   0.26905700  0.98554000  0.35452900
   0.77187500  0.48414600  0.35453100
   0.76961200  0.98535300  0.35625800
   0.22934700  0.01584000  0.85458600
   0.22760600  0.51716100  0.85634700
   0.72843500  0.01700600  0.85764300
   0.72542400  0.51925300  0.85927600
   0.22801500  0.23372200  0.14381900
   0.22849400  0.73408800  0.14356600
   0.72860500  0.23401200  0.14375200
   0.72838000  0.73293600  0.14451000
   0.34120400  0.12607300  0.99926800
   0.33942800  0.62349400  0.00000000
   0.83900800  0.12367600  0.00048700
   0.84183500  0.62657300  0.99894800
   0.15739700  0.37680900  0.50093900
   0.16415200  0.88389400  0.50135600
   0.66710300  0.38776900  0.50287300
   0.65921000  0.87998400  0.50003200
   0.16082000  0.37569800  0.00004000
   0.15838300  0.87234000  0.99882500
   0.65919600  0.37503400  0.99976100
   0.66232100  0.87404100  0.00062600
   0.33594300  0.12066300  0.50118800
   0.34416100  0.62149600  0.50118200
   0.83984900  0.12280400  0.50114700
   0.83304500  0.61053100  0.50571500
   0.08787100  0.39002300  0.25038200
   0.08783400  0.88578900  0.25132700
   0.58909900  0.38588400  0.25170300
   0.58909700  0.88785800  0.25047600
   0.09166800  0.35906000  0.74998800
   0.09018300  0.85884400  0.74813000
   0.60262300  0.36717000  0.74471200
   0.59198600  0.86117200  0.75067700
   0.41108700  0.14142900  0.25020400
   0.41011400  0.64107600  0.25029600
   0.91112600  0.14089800  0.25020800
   0.91141700  0.63957500  0.25156800
   0.41381800  0.11240400  0.74828900
   0.41073700  0.61014800  0.75006000
   0.90693600  0.11394900  0.74967000
   0.89198200  0.60185400  0.74409700
 
 position of ions in cartesian coordinates  (Angst):
   1.45091290  1.43655417  0.02074126
   1.43150407  7.12630437 15.58145998
   7.00298551  1.44823847  0.00304101
   7.03292928  7.11364260  0.02789934
   4.05743690  4.33755479  7.74757881
   4.15206190  9.94132088  7.76039784
   9.73957429  4.30616178  7.77182893
   9.67279723 10.13350930  7.72746134
   4.13457055  4.27367763  0.00636273
   4.12192861  9.95368713  0.00826532
   9.70229508  4.27298430  0.00890471
   9.71713319  9.95632405  0.00034309
   1.38527294  1.48556455  7.70771815
   1.52738880  7.07639608  7.69663016
   7.03208203  1.21828068  7.72554316
   6.97110197  7.11982573  7.71824474
   1.44737895  1.13377416  3.88480722
   1.45159293  6.83657257  3.89015629
   7.01395523  1.14298065  3.89202768
   7.02310781  6.81264705  3.89421097
   1.37030105  1.71351054 11.77079107
   1.52843672  7.38911002 11.75079836
   7.01350931  1.60811323 11.80542742
   6.97629698  7.45408969 11.83022336
   4.11731330  3.99291364  3.88805097
   4.11927536  9.67584421  3.89124793
   9.69461404  3.99276588  3.87761796
   9.68772452  9.67334368  3.88438616
   4.10957653  4.56999037 11.73302014
   4.16548420 10.20047802 11.74626024
   9.76401091  4.45290876 11.77019846
   9.67208375 10.26909482 11.71659867
   1.35416976  4.10585801  1.95133171
   1.35370154  9.78742465  1.94931997
   6.92765786  4.10596030  1.96140604
   6.92821526  9.78166207  1.96176472
   1.36082517  4.42240230 13.64962193
   1.36395779 10.09825183 13.62424898
   6.93994305  4.42001544 13.65016776
   6.93784721 10.10588981 13.67264006
   4.19812581  1.26580211  5.82445833
   4.22508190  6.95512040  5.83121094
   9.78424470  1.28632918  5.81740942
   9.78030942  6.94502735  5.83908638
   4.02743739  1.46213914  9.76584397
   4.24742267  7.28212146  9.75704843
   9.78255019  1.62187751  9.73710251
   9.93864576  7.33767867  9.68858667
   4.21709986  1.58177811 13.62767986
   4.22322017  7.25584316 13.65256938
   9.79142407  1.57878884 13.65341150
   9.77345334  7.24971687 13.62534062
   4.22197158  1.26725696  1.94780726
   4.21610768  6.94464091  1.95278204
   9.78858130  1.25857331  1.94565516
   9.79480194  6.95599558  1.95119136
   1.35299921  4.44624826  9.75879506
   1.34253115 10.10854947  9.73148833
   6.73245478  4.03579772  9.64584096
   6.92384521 10.10950421  9.76557886
   1.34389122  4.12054293  5.83255210
   1.33144995  9.79228932  5.85268516
   6.92223989  4.11628067  5.86238521
   6.92914055  9.78978879  5.84741407
   0.20209259  0.24550653  6.12899620
   0.21881473  5.94344028  6.14799083
   5.76743143  0.23766396  6.10847327
   5.80986107  5.93734808  6.10131519
   0.25015201  2.56808922  9.48123643
   0.36721812  8.26128333  9.39324981
   5.83331665  2.44366515  9.35471473
   5.87645976  8.22088841  9.48845688
   5.34200913  3.11005625  1.66383910
   5.34184191  8.79021351  1.65898908
  10.91536345  3.11104509  1.66329328
  10.90738142  8.79543052  1.67648659
   5.32148550  5.38274201 13.88209561
   5.34131795 11.09746340 13.92532477
  10.89810621  5.40472394 13.88611911
  10.91897543 11.09175765 13.89687961
   5.40312297  5.36709097  9.48672585
   5.30859831 11.05886432  9.48981364
  10.86958939  5.41070248  9.51945961
  10.91685730 11.10275998  9.48711572
   5.36455057  3.09854245  6.21072925
   5.35680265  8.76748142  6.14838070
  10.92580921  3.08963147  6.14679002
  10.92099324  8.77110719  6.23393451
   0.24351890  2.56391788 13.92816305
   0.24471175  8.21693303 13.81399254
   5.82650517  2.57706839 13.85722169
   5.82369585  8.24293853 13.92861530
   0.24128928  0.26574945  1.68004224
   0.23435517  5.96063710  1.67229156
   5.81051881  0.26681786  1.67604994
   5.81309402  5.94907783  1.69159809
   2.55688156  2.67627122  5.57626496
   2.54422848  8.34307337  5.61721725
   8.12686915  2.66698516  5.61107285
   8.14140626  8.33538993  5.61129118
   2.50481997  0.25949813 10.12685110
   2.53662548  5.89577109 10.03917638
   8.10101673  0.21713689 10.04427593
   3.03083150  5.49773227  2.25696123
   3.02303898 11.18374304  2.23398989
   8.60375104  5.50587035  2.23777946
   8.60769747 11.17757127  2.25864548
   3.03290505  3.03011887 13.34804710
   3.04588142  8.71135590 13.34971576
   8.61245770  3.04213277 13.38064051
   8.61749664  8.72249462 13.34438229
   3.07823318  3.06297810 10.02297325
   3.09753053  8.76155971 10.02086793
   8.65363875  3.16086246  9.98810297
   8.65339349  8.69688693  9.98733882
   3.01896993  5.50658641  5.57090030
   2.99947192 11.20169002  5.52885636
   8.60493274  5.50282425  5.52888755
   8.57970461 11.19956457  5.55582000
   2.55678123  0.18003812 13.32721227
   2.53737240  5.87807416 13.35467495
   8.12065967  0.19329093 13.37488598
   8.08709277  5.90185193 13.40035251
   2.54193197  2.65649430  2.24284781
   2.54727190  8.34367577  2.23890229
   8.12255484  2.65979045  2.24180295
   8.12004652  8.33058209  2.25362391
   3.80377324  1.43295114 15.58351851
   3.78397423  7.08665961  0.00000000
   9.35333753  1.40570673  0.00759473
   9.38485319  7.12165566 15.57852813
   1.75467608  4.28282730  7.81211064
   1.82998143 10.04637721  7.81861373
   7.43692495  4.40739913  7.84227125
   7.34893307 10.00193598  7.79796604
   1.79283599  4.27019962  0.00062380
   1.76566810  9.91505395 15.57660995
   7.34877699  4.26265257 15.59120681
   7.38361478  9.93438759  0.00976243
   3.74512313  1.37146085  7.81599378
   3.83673815  7.06395026  7.81590021
   9.36271308  1.39579554  7.81535439
   9.28686147  6.93932160  7.88659205
   0.97959390  4.43301819  3.90469076
   0.97918142 10.06791586  3.91942798
   6.56732926  4.38597414  3.92529167
   6.56730696 10.09143221  3.90615669
   1.02192321  4.08109140 11.69601336
   1.00536829  9.76165783 11.66703797
   6.71809604  4.17327001 11.61373449
   6.59951380  9.78811798 11.70675827
   4.58283528  1.60748810  3.90191487
   4.57198819  7.28649738  3.90334960
  10.15731556  1.60145273  3.90197725
  10.16055965  7.26943695  3.92318636
   4.61328072  1.27758870 11.66951757
   4.57893345  6.93496840 11.69713620
  10.11060506  1.29514923 11.69105417
   9.94389651  6.84069844 11.60414360
 


--------------------------------------------------------------------------------------------------------


 k-point  1 :   0.0000 0.0000 0.0000  plane waves:   57915
 k-point  2 :   0.5000 0.0000 0.0000  plane waves:   57894
 k-point  3 :   0.0000 0.5000 0.0000  plane waves:   57824
 k-point  4 :   0.5000 0.5000 0.0000  plane waves:   57888
 k-point  5 :   0.0000 0.0000 0.5000  plane waves:   57896
 k-point  6 :   0.5000 0.0000 0.5000  plane waves:   57840
 k-point  7 :   0.0000 0.5000 0.5000  plane waves:   57928
 k-point  8 :   0.5000 0.5000 0.5000  plane waves:   57880

 maximum and minimum number of plane-waves per node :     57928    57824

 maximum number of plane-waves:     57928
 maximum index in each direction: 
   IXMAX=   21   IYMAX=   21   IZMAX=   29
   IXMIN=  -21   IYMIN=  -22   IZMIN=  -30


 serial   3D FFT for wavefunctions
 parallel 3D FFT for charge:
    minimum data exchange during FFTs selected (reduces bandwidth)


 total amount of memory used by VASP MPI-rank0   415932. kBytes
=======================================================================

   base      :      30000. kBytes
   nonl-proj :     347904. kBytes
   fftplans  :       2494. kBytes
   grid      :      17825. kBytes
   one-center:       2472. kBytes
   wavefun   :      15237. kBytes
 
     INWAV:  cpu time    0.0000: real time    0.0000
 Broyden mixing: mesh for mixing (old mesh)
   NGX = 43   NGY = 43   NGZ = 59
  (NGX  =128   NGY  =140   NGZ  =180)
  gives a total of 109091 points

 initial charge density was supplied:
 charge density of overlapping atoms calculated
 number of electron     954.0000000 magnetization 
 keeping initial charge density in first step


--------------------------------------------------------------------------------------------------------


 Maximum index for augmentation-charges          215 (set IRDMAX)


--------------------------------------------------------------------------------------------------------


 First call to EWALD:  gamma=   0.141
 Maximum number of real-space cells 3x 3x 2
 Maximum number of reciprocal cells 2x 3x 3

    FEWALD:  cpu time    0.0080: real time    0.0084


--------------------------------------- Iteration      1(   1)  ---------------------------------------


    POTLOK:  cpu time    0.2835: real time    0.2959
    SETDIJ:  cpu time    0.1415: real time    0.1427
     EDDAV:  cpu time   79.5359: real time   80.0111
       DOS:  cpu time    0.0027: real time    0.0036
    --------------------------------------------
      LOOP:  cpu time   79.9636: real time   80.4533

 eigenvalue-minimisations  : 12288
 total energy-change (2. order) : 0.8610198E+04  (-0.5025221E+05)
 number of electron     954.0000000 magnetization 
 augmentation part      954.0000000 magnetization 

 Free energy of the ion-electron system (eV)
  ---------------------------------------------------
  alpha Z        PSCENC =      3958.29392442
  Ewald energy   TEWEN  =    -50835.63757346
  -Hartree energ DENC   =    -23018.32649719
  -exchange      EXHF   =         0.00000000
  -V(xc)+E(xc)   XCENC  =      2292.10747215
  PAW double counting   =     60940.24928286   -59400.30481408
  entropy T*S    EENTRO =        -0.02680982
  eigenvalues    EBANDS =        46.13274636
  atomic energy  EATOM  =     74627.71039806
  Solvation  Ediel_sol  =         0.00000000
  ---------------------------------------------------
  free energy    TOTEN  =      8610.19812929 eV

  energy without entropy =     8610.22493911  energy(sigma->0) =     8610.21153420


--------------------------------------------------------------------------------------------------------




--------------------------------------- Iteration      1(   2)  ---------------------------------------


     EDDAV:  cpu time  114.1972: real time  114.8527
       DOS:  cpu time    0.0021: real time    0.0021
    --------------------------------------------
      LOOP:  cpu time  114.1994: real time  114.8548

 eigenvalue-minimisations  : 15360
 total energy-change (2. order) :-0.9480465E+04  (-0.9166010E+04)
 number of electron     954.0000000 magnetization 
 augmentation part      954.0000000 magnetization 

 Free energy of the ion-electron system (eV)
  ---------------------------------------------------
  alpha Z        PSCENC =      3958.29392442
  Ewald energy   TEWEN  =    -50835.63757346
  -Hartree energ DENC   =    -23018.32649719
  -exchange      EXHF   =         0.00000000
  -V(xc)+E(xc)   XCENC  =      2292.10747215
  PAW double counting   =     60940.24928286   -59400.30481408
  entropy T*S    EENTRO =        -0.00000000
  eigenvalues    EBANDS =     -9434.35929812
  atomic energy  EATOM  =     74627.71039806
  Solvation  Ediel_sol  =         0.00000000
  ---------------------------------------------------
  free energy    TOTEN  =      -870.26710537 eV

  energy without entropy =     -870.26710537  energy(sigma->0) =     -870.26710537


--------------------------------------------------------------------------------------------------------




--------------------------------------- Iteration      1(   3)  ---------------------------------------


     EDDAV:  cpu time  125.2719: real time  126.0496
       DOS:  cpu time    0.0013: real time    0.0013
    --------------------------------------------
      LOOP:  cpu time  125.2732: real time  126.0509

 eigenvalue-minimisations  : 16128
 total energy-change (2. order) :-0.6369218E+03  (-0.6327317E+03)
 number of electron     954.0000000 magnetization 
 augmentation part      954.0000000 magnetization 

 Free energy of the ion-electron system (eV)
  ---------------------------------------------------
  alpha Z        PSCENC =      3958.29392442
  Ewald energy   TEWEN  =    -50835.63757346
  -Hartree energ DENC   =    -23018.32649719
  -exchange      EXHF   =         0.00000000
  -V(xc)+E(xc)   XCENC  =      2292.10747215
  PAW double counting   =     60940.24928286   -59400.30481408
  entropy T*S    EENTRO =        -0.00000000
  eigenvalues    EBANDS =    -10071.28111782
  atomic energy  EATOM  =     74627.71039806
  Solvation  Ediel_sol  =         0.00000000
  ---------------------------------------------------
  free energy    TOTEN  =     -1507.18892507 eV

  energy without entropy =    -1507.18892507  energy(sigma->0) =    -1507.18892507


--------------------------------------------------------------------------------------------------------




--------------------------------------- Iteration      1(   4)  ---------------------------------------


     EDDAV:  cpu time  112.4172: real time  113.0814
       DOS:  cpu time    0.0013: real time    0.0013
    --------------------------------------------
      LOOP:  cpu time  112.4185: real time  113.0827

 eigenvalue-minimisations  : 14592
 total energy-change (2. order) :-0.1447803E+02  (-0.1447508E+02)
 number of electron     954.0000000 magnetization 
 augmentation part      954.0000000 magnetization 

 Free energy of the ion-electron system (eV)
  ---------------------------------------------------
  alpha Z        PSCENC =      3958.29392442
  Ewald energy   TEWEN  =    -50835.63757346
  -Hartree energ DENC   =    -23018.32649719
  -exchange      EXHF   =         0.00000000
  -V(xc)+E(xc)   XCENC  =      2292.10747215
  PAW double counting   =     60940.24928286   -59400.30481408
  entropy T*S    EENTRO =        -0.00000000
  eigenvalues    EBANDS =    -10085.75915276
  atomic energy  EATOM  =     74627.71039806
  Solvation  Ediel_sol  =         0.00000000
  ---------------------------------------------------
  free energy    TOTEN  =     -1521.66696001 eV

  energy without entropy =    -1521.66696001  energy(sigma->0) =    -1521.66696001


--------------------------------------------------------------------------------------------------------




--------------------------------------- Iteration      1(   5)  ---------------------------------------


     EDDAV:  cpu time  138.2570: real time  139.0357
       DOS:  cpu time    0.0012: real time    0.0012
    CHARGE:  cpu time    0.5546: real time    0.5716
    MIXING:  cpu time    0.1941: real time    0.1970
    --------------------------------------------
      LOOP:  cpu time  139.0069: real time  139.8055

 eigenvalue-minimisations  : 16512
 total energy-change (2. order) :-0.5582891E+00  (-0.5581497E+00)
 number of electron     952.0000254 magnetization 
 augmentation part      191.1327010 magnetization 

 Broyden mixing:
  rms(total) = 0.22985E+02    rms(broyden)= 0.22984E+02
  rms(prec ) = 0.23774E+02
  weight for this iteration     100.00

 Free energy of the ion-electron system (eV)
  ---------------------------------------------------
  alpha Z        PSCENC =      3958.29392442
  Ewald energy   TEWEN  =    -50835.63757346
  -Hartree energ DENC   =    -23018.32649719
  -exchange      EXHF   =         0.00000000
  -V(xc)+E(xc)   XCENC  =      2292.10747215
  PAW double counting   =     60940.24928286   -59400.30481408
  entropy T*S    EENTRO =        -0.00000000
  eigenvalues    EBANDS =    -10086.31744183
  atomic energy  EATOM  =     74627.71039806
  Solvation  Ediel_sol  =         0.00000000
  ---------------------------------------------------
  free energy    TOTEN  =     -1522.22524907 eV

  energy without entropy =    -1522.22524907  energy(sigma->0) =    -1522.22524907


--------------------------------------------------------------------------------------------------------




--------------------------------------- Iteration      1(   6)  ---------------------------------------


    POTLOK:  cpu time    0.4266: real time    0.4284
    SETDIJ:  cpu time    0.1391: real time    0.1396
     EDDAV:  cpu time  182.6446: real time  183.6111
       DOS:  cpu time    0.0009: real time    0.0009
    CHARGE:  cpu time    0.3857: real time    0.3878
    MIXING:  cpu time    0.0025: real time    0.0026
    --------------------------------------------
      LOOP:  cpu time  183.5993: real time  184.5704

 eigenvalue-minimisations  : 20352
 total energy-change (2. order) : 0.2369457E+03  (-0.2449192E+02)
 number of electron     952.0000232 magnetization 
 augmentation part      187.0896030 magnetization 

 Broyden mixing:
  rms(total) = 0.15098E+02    rms(broyden)= 0.15098E+02
  rms(prec ) = 0.15378E+02
  weight for this iteration     100.00

 eigenvalues of (default mixing * dielectric matrix)
  average eigenvalue GAMMA=   2.5364
  2.5364

 Free energy of the ion-electron system (eV)
  ---------------------------------------------------
  alpha Z        PSCENC =      3958.29392442
  Ewald energy   TEWEN  =    -50835.63757346
  -Hartree energ DENC   =    -23522.29438074
  -exchange      EXHF   =         0.00000000
  -V(xc)+E(xc)   XCENC  =      2337.31584497
  PAW double counting   =     70505.14218502   -69030.75263664
  entropy T*S    EENTRO =        -0.00000000
  eigenvalues    EBANDS =     -9325.05733856
  atomic energy  EATOM  =     74627.71039806
  Solvation  Ediel_sol  =         0.00000000
  ---------------------------------------------------
  free energy    TOTEN  =     -1285.27957693 eV

  energy without entropy =    -1285.27957693  energy(sigma->0) =    -1285.27957693


--------------------------------------------------------------------------------------------------------




--------------------------------------- Iteration      1(   7)  ---------------------------------------


    POTLOK:  cpu time    0.0530: real time    0.0537
    SETDIJ:  cpu time    0.0084: real time    0.0084
     EDDAV:  cpu time  191.0165: real time  191.9911
       DOS:  cpu time    0.0008: real time    0.0034
    CHARGE:  cpu time    0.2133: real time    0.2149
    MIXING:  cpu time    0.0010: real time    0.0010
    --------------------------------------------
      LOOP:  cpu time  191.2931: real time  192.2726

 eigenvalue-minimisations  : 20736
 total energy-change (2. order) : 0.3308142E+02  (-0.3584499E+02)
 number of electron     952.0000205 magnetization 
 augmentation part      186.4187863 magnetization 

 Broyden mixing:
  rms(total) = 0.48398E+01    rms(broyden)= 0.48381E+01
  rms(prec ) = 0.52428E+01
  weight for this iteration     100.00

 eigenvalues of (default mixing * dielectric matrix)
  average eigenvalue GAMMA=   2.4267
  2.4267  2.4267

 Free energy of the ion-electron system (eV)
  ---------------------------------------------------
  alpha Z        PSCENC =      3958.29392442
  Ewald energy   TEWEN  =    -50835.63757346
  -Hartree energ DENC   =    -23973.98807612
  -exchange      EXHF   =         0.00000000
  -V(xc)+E(xc)   XCENC  =      2387.67755018
  PAW double counting   =     91427.41605915   -90048.67711486
  entropy T*S    EENTRO =        -0.00000000
  eigenvalues    EBANDS =     -8794.99332783
  atomic energy  EATOM  =     74627.71039806
  Solvation  Ediel_sol  =         0.00000000
  ---------------------------------------------------
  free energy    TOTEN  =     -1252.19816047 eV

  energy without entropy =    -1252.19816047  energy(sigma->0) =    -1252.19816047


--------------------------------------------------------------------------------------------------------




--------------------------------------- Iteration      1(   8)  ---------------------------------------


    POTLOK:  cpu time    0.0466: real time    0.0484
    SETDIJ:  cpu time    0.0078: real time    0.0079
     EDDAV:  cpu time  140.2279: real time  140.9805
       DOS:  cpu time    0.0011: real time    0.0011
    CHARGE:  cpu time    0.2101: real time    0.2116
    MIXING:  cpu time    0.0010: real time    0.0010
    --------------------------------------------
      LOOP:  cpu time  140.4946: real time  141.2504

 eigenvalue-minimisations  : 18048
 total energy-change (2. order) :-0.7657774E+01  (-0.2872030E+02)
 number of electron     952.0000228 magnetization 
 augmentation part      187.4660422 magnetization 

 Broyden mixing:
  rms(total) = 0.74056E+01    rms(broyden)= 0.74051E+01
  rms(prec ) = 0.77240E+01
  weight for this iteration     100.00

 eigenvalues of (default mixing * dielectric matrix)
  average eigenvalue GAMMA=   2.4083
  4.8529  0.9255  1.4466

 Free energy of the ion-electron system (eV)
  ---------------------------------------------------
  alpha Z        PSCENC =      3958.29392442
  Ewald energy   TEWEN  =    -50835.63757346
  -Hartree energ DENC   =    -23499.77694299
  -exchange      EXHF   =         0.00000000
  -V(xc)+E(xc)   XCENC  =      2339.34871112
  PAW double counting   =     96425.13438518   -95032.20846545
  entropy T*S    EENTRO =        -0.00000000
  eigenvalues    EBANDS =     -9242.72037139
  atomic energy  EATOM  =     74627.71039806
  Solvation  Ediel_sol  =         0.00000000
  ---------------------------------------------------
  free energy    TOTEN  =     -1259.85593450 eV

  energy without entropy =    -1259.85593450  energy(sigma->0) =    -1259.85593450


--------------------------------------------------------------------------------------------------------




--------------------------------------- Iteration      1(   9)  ---------------------------------------


    POTLOK:  cpu time    0.0492: real time    0.0498
    SETDIJ:  cpu time    0.0079: real time    0.0080
     EDDAV:  cpu time  160.5841: real time  161.4717
       DOS:  cpu time    0.0014: real time    0.0014
    CHARGE:  cpu time    0.2103: real time    0.2118
    MIXING:  cpu time    0.0010: real time    0.0010
    --------------------------------------------
      LOOP:  cpu time  160.8539: real time  161.7436

 eigenvalue-minimisations  : 19200
 total energy-change (2. order) : 0.3133201E+02  (-0.5665294E+01)
 number of electron     952.0000217 magnetization 
 augmentation part      187.3379417 magnetization 

 Broyden mixing:
  rms(total) = 0.62764E+00    rms(broyden)= 0.62701E+00
  rms(prec ) = 0.69835E+00
  weight for this iteration     100.00

 eigenvalues of (default mixing * dielectric matrix)
  average eigenvalue GAMMA=   2.1196
  4.7534  1.3082  1.3082  1.1085

 Free energy of the ion-electron system (eV)
  ---------------------------------------------------
  alpha Z        PSCENC =      3958.29392442
  Ewald energy   TEWEN  =    -50835.63757346
  -Hartree energ DENC   =    -23688.34970941
  -exchange      EXHF   =         0.00000000
  -V(xc)+E(xc)   XCENC  =      2361.91021690
  PAW double counting   =    113292.04485197  -111953.07582540
  entropy T*S    EENTRO =        -0.00000000
  eigenvalues    EBANDS =     -8991.42021101
  atomic energy  EATOM  =     74627.71039806
  Solvation  Ediel_sol  =         0.00000000
  ---------------------------------------------------
  free energy    TOTEN  =     -1228.52392793 eV

  energy without entropy =    -1228.52392793  energy(sigma->0) =    -1228.52392793


--------------------------------------------------------------------------------------------------------




--------------------------------------- Iteration      1(  10)  ---------------------------------------


    POTLOK:  cpu time    0.0462: real time    0.0468
    SETDIJ:  cpu time    0.0082: real time    0.0083
     EDDAV:  cpu time  194.2199: real time  195.2779
       DOS:  cpu time    0.0010: real time    0.0010
    CHARGE:  cpu time    0.2098: real time    0.2112
    MIXING:  cpu time    0.0008: real time    0.0008
    --------------------------------------------
      LOOP:  cpu time  194.4860: real time  195.5460

 eigenvalue-minimisations  : 20736
 total energy-change (2. order) : 0.3143752E+00  (-0.3779712E+00)
 number of electron     952.0000216 magnetization 
 augmentation part      187.1232899 magnetization 

 Broyden mixing:
  rms(total) = 0.21878E+00    rms(broyden)= 0.21818E+00
  rms(prec ) = 0.23271E+00
  weight for this iteration     100.00

 eigenvalues of (default mixing * dielectric matrix)
  average eigenvalue GAMMA=   2.0246
  4.9880  1.8150  1.2030  1.2030  0.9143

 Free energy of the ion-electron system (eV)
  ---------------------------------------------------
  alpha Z        PSCENC =      3958.29392442
  Ewald energy   TEWEN  =    -50835.63757346
  -Hartree energ DENC   =    -23732.32656677
  -exchange      EXHF   =         0.00000000
  -V(xc)+E(xc)   XCENC  =      2366.02877532
  PAW double counting   =    113200.82798132  -111863.64112339
  entropy T*S    EENTRO =        -0.00000000
  eigenvalues    EBANDS =     -8949.46536819
  atomic energy  EATOM  =     74627.71039806
  Solvation  Ediel_sol  =         0.00000000
  ---------------------------------------------------
  free energy    TOTEN  =     -1228.20955270 eV

  energy without entropy =    -1228.20955270  energy(sigma->0) =    -1228.20955270


--------------------------------------------------------------------------------------------------------




--------------------------------------- Iteration      1(  11)  ---------------------------------------


    POTLOK:  cpu time    0.0458: real time    0.0464
    SETDIJ:  cpu time    0.0079: real time    0.0080
     EDDAV:  cpu time  128.7822: real time  129.5526
       DOS:  cpu time    0.0008: real time    0.0008
    CHARGE:  cpu time    0.2106: real time    0.2121
    MIXING:  cpu time    0.0009: real time    0.0009
    --------------------------------------------
      LOOP:  cpu time  129.0481: real time  129.8207

 eigenvalue-minimisations  : 16512
 total energy-change (2. order) :-0.1513520E-01  (-0.3013224E-01)
 number of electron     952.0000216 magnetization 
 augmentation part      187.1723111 magnetization 

 Broyden mixing:
  rms(total) = 0.12404E+00    rms(broyden)= 0.12404E+00
  rms(prec ) = 0.13827E+00
  weight for this iteration     100.00

 eigenvalues of (default mixing * dielectric matrix)
  average eigenvalue GAMMA=   2.2085
  4.8569  3.5930  1.5276  1.1342  1.1342  1.0049

 Free energy of the ion-electron system (eV)
  ---------------------------------------------------
  alpha Z        PSCENC =      3958.29392442
  Ewald energy   TEWEN  =    -50835.63757346
  -Hartree energ DENC   =    -23721.46892860
  -exchange      EXHF   =         0.00000000
  -V(xc)+E(xc)   XCENC  =      2365.01056282
  PAW double counting   =    114017.08864489  -112680.91548583
  entropy T*S    EENTRO =        -0.00000000
  eigenvalues    EBANDS =     -8958.30623019
  atomic energy  EATOM  =     74627.71039806
  Solvation  Ediel_sol  =         0.00000000
  ---------------------------------------------------
  free energy    TOTEN  =     -1228.22468790 eV

  energy without entropy =    -1228.22468790  energy(sigma->0) =    -1228.22468790


--------------------------------------------------------------------------------------------------------




--------------------------------------- Iteration      1(  12)  ---------------------------------------


    POTLOK:  cpu time    0.0462: real time    0.0469
    SETDIJ:  cpu time    0.0078: real time    0.0079
     EDDAV:  cpu time  191.9223: real time  193.0092
[...]
      1.35370      9.78742      1.94932        -0.001343      0.012831      0.005385
      6.92766      4.10596      1.96141         0.003254     -0.015740     -0.003313
      6.92822      9.78166      1.96176         0.001981     -0.011286     -0.001454
      1.36083      4.42240     13.64962        -0.004579      0.000424     -0.002069
      1.36396     10.09825     13.62425        -0.001826     -0.008773      0.001433
      6.93994      4.42002     13.65017        -0.012819      0.005425      0.001249
      6.93785     10.10589     13.67264        -0.007643     -0.015424      0.011829
      4.19813      1.26580      5.82446        -0.005974      0.019302     -0.007768
      4.22508      6.95512      5.83121        -0.011861     -0.011329     -0.000970
      9.78424      1.28633      5.81741         0.000448      0.006917     -0.008672
      9.78031      6.94503      5.83909        -0.000680     -0.009446     -0.001770
      4.02744      1.46214      9.76584        -0.008903     -0.007051     -0.000261
      4.24742      7.28212      9.75705        -0.004242     -0.004073     -0.000675
      9.78255      1.62188      9.73710         0.009247      0.010957      0.002102
      9.93865      7.33768      9.68859        -0.025931      0.005325     -0.000033
      4.21710      1.58178     13.62768        -0.000665      0.010592      0.007120
      4.22322      7.25584     13.65257         0.016964     -0.019832      0.004271
      9.79142      1.57879     13.65341         0.016913      0.010946     -0.012942
      9.77345      7.24972     13.62534        -0.008094     -0.012762     -0.001062
      4.22197      1.26726      1.94781        -0.025000     -0.000714     -0.009065
      4.21611      6.94464      1.95278        -0.013565      0.010282      0.001195
      9.78858      1.25857      1.94566         0.017462      0.000902      0.006132
      9.79480      6.95600      1.95119         0.006914     -0.001199     -0.008121
      1.35300      4.44625      9.75880        -0.015099     -0.023496     -0.010115
      1.34253     10.10855      9.73149        -0.005455      0.007647      0.003859
      6.73245      4.03580      9.64584         0.023363      0.013895      0.002880
      6.92385     10.10950      9.76558         0.005448     -0.002219     -0.004501
      1.34389      4.12054      5.83255         0.005798      0.013448      0.000541
      1.33145      9.79229      5.85269        -0.000682     -0.005799     -0.017418
      6.92224      4.11628      5.86239        -0.005442      0.005325      0.006787
      6.92914      9.78979      5.84741        -0.003220     -0.007697     -0.007517
      0.20209      0.24551      6.12900         0.004297      0.002491      0.002227
      0.21881      5.94344      6.14799        -0.004580      0.009898      0.010305
      5.76743      0.23766      6.10847        -0.000471     -0.002236     -0.005702
      5.80986      5.93735      6.10132        -0.004421      0.006725     -0.002165
      0.25015      2.56809      9.48124        -0.002839     -0.020803     -0.020247
      0.36722      8.26128      9.39325         0.030255      0.002395      0.003799
      5.83332      2.44367      9.35471        -0.005537     -0.007198      0.005630
      5.87646      8.22089      9.48846         0.016881     -0.012863     -0.008282
      5.34201      3.11006      1.66384         0.001962     -0.000914      0.009631
      5.34184      8.79021      1.65899        -0.003045     -0.004597      0.001401
     10.91536      3.11105      1.66329        -0.006406     -0.004317      0.002419
     10.90738      8.79543      1.67649        -0.001615      0.007690      0.000864
      5.32149      5.38274     13.88210         0.003924     -0.010657      0.001135
      5.34132     11.09746     13.92532        -0.003506      0.002255     -0.006219
     10.89811      5.40472     13.88612        -0.005568     -0.002293     -0.010216
     10.91898     11.09176     13.89688         0.000112      0.000189     -0.006009
      5.40312      5.36709      9.48673        -0.006155      0.008320      0.001702
      5.30860     11.05886      9.48981         0.012719     -0.000102     -0.001875
     10.86959      5.41070      9.51946         0.004761      0.014881     -0.001911
     10.91686     11.10276      9.48712         0.006827     -0.008390      0.000198
      5.36455      3.09854      6.21073        -0.009389     -0.002850     -0.003620
      5.35680      8.76748      6.14838        -0.000239      0.002120     -0.000557
     10.92581      3.08963      6.14679        -0.016930     -0.005868      0.007728
     10.92099      8.77111      6.23393         0.000837      0.011696      0.000261
      0.24352      2.56392     13.92816        -0.016219     -0.007856     -0.000742
      0.24471      8.21693     13.81399         0.011079     -0.003430      0.006155
      5.82651      2.57707     13.85722        -0.005627     -0.011144      0.009067
      5.82370      8.24294     13.92862         0.007578      0.010948     -0.004781
      0.24129      0.26575      1.68004        -0.017504      0.005383      0.004999
      0.23436      5.96064      1.67229         0.006290     -0.003645      0.004563
      5.81052      0.26682      1.67605        -0.008044      0.003018      0.007743
      5.81309      5.94908      1.69160         0.010972     -0.007033      0.004000
      2.55688      2.67627      5.57626         0.005060     -0.011447      0.002600
      2.54423      8.34307      5.61722        -0.008094      0.009507      0.006283
      8.12687      2.66699      5.61107         0.010995     -0.010735     -0.001245
      8.14141      8.33539      5.61129        -0.014113      0.011198     -0.000808
      2.50482      0.25950     10.12685         0.007687     -0.001264      0.003788
      2.53663      5.89577     10.03918         0.014010      0.009415      0.004374
      8.10102      0.21714     10.04428        -0.001499      0.012145      0.001937
      3.03083      5.49773      2.25696         0.001607      0.001867     -0.001440
      3.02304     11.18374      2.23399         0.017877      0.013105      0.001768
      8.60375      5.50587      2.23778        -0.014685     -0.016101      0.004310
      8.60770     11.17757      2.25865        -0.004885      0.004217      0.004612
      3.03291      3.03012     13.34805         0.013066     -0.005673      0.011469
      3.04588      8.71136     13.34972        -0.016625      0.019115      0.002243
      8.61246      3.04213     13.38064         0.009771     -0.005450      0.011005
      8.61750      8.72249     13.34438        -0.005613      0.010923      0.004604
      3.07823      3.06298     10.02297        -0.001166     -0.003891      0.006135
      3.09753      8.76156     10.02087         0.012132     -0.007990     -0.007939
      8.65364      3.16086      9.98810        -0.006171      0.004456     -0.001783
      8.65339      8.69689      9.98734         0.005544      0.016685      0.004507
      3.01897      5.50659      5.57090        -0.003084      0.014900     -0.000619
      2.99947     11.20169      5.52886         0.012062     -0.010639      0.005193
      8.60493      5.50282      5.52889        -0.005037      0.004780      0.012622
      8.57970     11.19956      5.55582        -0.001279      0.001096     -0.000096
      2.55678      0.18004     13.32721        -0.007480      0.005671     -0.002815
      2.53737      5.87807     13.35467         0.007746      0.004550     -0.001976
      8.12066      0.19329     13.37489         0.011441      0.007099      0.003715
      8.08709      5.90185     13.40035         0.002245      0.006016     -0.003264
      2.54193      2.65649      2.24285         0.005387     -0.001946     -0.004658
      2.54727      8.34368      2.23890        -0.005959     -0.006855      0.002415
      8.12255      2.65979      2.24180        -0.006141     -0.000767      0.000345
      8.12005      8.33058      2.25362         0.002264      0.002919     -0.005180
      3.80377      1.43295     15.58352         0.003857     -0.004738      0.007437
      3.78397      7.08666      0.00000         0.008215     -0.010444      0.012733
      9.35334      1.40571      0.00759         0.001329      0.000133     -0.008174
      9.38485      7.12166     15.57853         0.002631     -0.005290     -0.011125
      1.75468      4.28283      7.81211         0.006458      0.009161     -0.003554
      1.82998     10.04638      7.81861        -0.008089     -0.007075      0.016427
      7.43692      4.40740      7.84227        -0.001987     -0.000803      0.011939
      7.34893     10.00194      7.79797        -0.006039      0.012222     -0.004019
      1.79284      4.27020      0.00062        -0.010491      0.008302     -0.005250
      1.76567      9.91505     15.57661        -0.007647     -0.002752      0.000186
      7.34878      4.26265     15.59121         0.004521     -0.004633      0.005038
      7.38361      9.93439      0.00976        -0.004921      0.008707     -0.012083
      3.74512      1.37146      7.81599         0.017311      0.006597      0.013375
      3.83674      7.06395      7.81590        -0.001527      0.000115      0.004687
      9.36271      1.39580      7.81535        -0.011098     -0.007878     -0.004685
      9.28686      6.93932      7.88659         0.007446      0.000694      0.001465
      0.97959      4.43302      3.90469        -0.001470     -0.005010      0.001703
      0.97918     10.06792      3.91943         0.004157      0.008223      0.003995
      6.56733      4.38597      3.92529         0.006027      0.005525     -0.008890
      6.56731     10.09143      3.90616         0.000796     -0.002234      0.011607
      1.02192      4.08109     11.69601         0.005128      0.001862      0.000295
      1.00537      9.76166     11.66704         0.012325      0.002454     -0.017755
      6.71810      4.17327     11.61373        -0.001250     -0.002613     -0.012765
      6.59951      9.78812     11.70676         0.000255     -0.008907      0.002504
      4.58284      1.60749      3.90191        -0.002052     -0.000720     -0.003000
      4.57199      7.28650      3.90335        -0.003572      0.002306     -0.010238
     10.15732      1.60145      3.90198        -0.013857      0.002939      0.007784
     10.16056      7.26944      3.92319         0.003673      0.004762      0.009829
      4.61328      1.27759     11.66952        -0.000895     -0.005667     -0.005473
      4.57893      6.93497     11.69714         0.008778      0.011548     -0.005127
     10.11061      1.29515     11.69105         0.006136     -0.000761      0.005370
      9.94390      6.84070     11.60414        -0.017306     -0.010158      0.013800
 -----------------------------------------------------------------------------------
    total drift:                               -0.010980      0.006572     -0.004892


--------------------------------------------------------------------------------------------------------



  FREE ENERGIE OF THE ION-ELECTRON SYSTEM (eV)
  ---------------------------------------------------
  free  energy   TOTEN  =     -1228.22426719 eV

  energy  without entropy=    -1228.22426719  energy(sigma->0) =    -1228.22426719
 


--------------------------------------------------------------------------------------------------------


    POTLOK:  cpu time    0.0575: real time    0.0578


--------------------------------------------------------------------------------------------------------


 stress matrix after NEB project (eV)
    -10.25632      3.78268      1.25076
      3.78268    -14.16894      0.05929
      1.25076      0.05929    -11.81088
  FORCES: max atom, RMS     0.030586    0.013798
  FORCE total and by dimension    0.173990    0.030255
  Stress total and by dimension   21.844929   14.168940
 writing wavefunctions
     LOOP+:  cpu time 2370.1869: real time 2385.0783
    4ORBIT:  cpu time    0.0000: real time    0.0000
 


 total charge     
 
# of ion       s       p       d       tot
------------------------------------------
    1        0.043   0.038   0.000   0.080
    2        0.042   0.037   0.000   0.079
    3        0.042   0.037   0.000   0.079
    4        0.043   0.038   0.000   0.081
    5        0.044   0.039   0.000   0.083
    6        0.045   0.039   0.000   0.084
    7        0.045   0.040   0.000   0.085
    8        0.045   0.040   0.000   0.085
    9        0.043   0.038   0.000   0.081
   10        0.043   0.037   0.000   0.080
   11        0.043   0.037   0.000   0.080
   12        0.043   0.038   0.000   0.081
   13        0.044   0.039   0.000   0.083
   14        0.045   0.040   0.000   0.085
   15        0.046   0.042   0.000   0.088
   16        0.045   0.040   0.000   0.085
   17        0.039   0.035   0.000   0.075
   18        0.039   0.035   0.000   0.075
   19        0.039   0.035   0.000   0.074
   20        0.039   0.035   0.000   0.075
   21        0.042   0.038   0.000   0.080
   22        0.041   0.036   0.000   0.077
   23        0.042   0.037   0.000   0.079
   24        0.041   0.037   0.000   0.077
   25        0.040   0.036   0.000   0.076
   26        0.040   0.035   0.000   0.075
   27        0.040   0.036   0.000   0.076
   28        0.040   0.036   0.000   0.076
   29        0.040   0.036   0.000   0.076
   30        0.041   0.037   0.000   0.077
   31        0.043   0.038   0.000   0.081
   32        0.040   0.036   0.000   0.076
   33        0.427   6.596   2.780   9.804
   34        0.425   6.596   2.769   9.790
   35        0.426   6.596   2.774   9.796
   36        0.428   6.598   2.780   9.805
   37        0.428   6.599   2.784   9.811
   38        0.426   6.593   2.776   9.795
   39        0.426   6.597   2.774   9.797
   40        0.429   6.601   2.789   9.818
   41        0.426   6.595   2.778   9.800
   42        0.428   6.604   2.778   9.810
   43        0.428   6.605   2.774   9.806
   44        0.423   6.587   2.768   9.778
   45        0.427   6.610   2.769   9.805
   46        0.426   6.587   2.790   9.804
   47        0.424   6.589   2.775   9.787
   48        0.445   6.584   2.955   9.984
   49        0.426   6.595   2.771   9.792
   50        0.428   6.600   2.784   9.811
   51        0.428   6.601   2.782   9.811
   52        0.424   6.592   2.772   9.788
   53        0.425   6.594   2.771   9.790
   54        0.427   6.598   2.778   9.804
   55        0.428   6.598   2.780   9.806
   56        0.425   6.595   2.770   9.789
   57        0.425   6.592   2.785   9.802
   58        0.429   6.607   2.777   9.812
   59        0.445   6.587   2.957   9.989
   60        0.425   6.590   2.778   9.794
   61        0.428   6.602   2.777   9.806
   62        0.425   6.593   2.769   9.788
   63        0.424   6.591   2.772   9.787
   64        0.428   6.603   2.778   9.810
   65        1.566   3.476   0.000   5.042
   66        1.567   3.475   0.000   5.041
   67        1.567   3.478   0.000   5.045
   68        1.566   3.479   0.000   5.045
   69        1.568   3.466   0.000   5.034
   70        1.570   3.486   0.000   5.056
   71        1.570   3.488   0.000   5.059
   72        1.566   3.470   0.000   5.036
   73        1.567   3.471   0.000   5.038
   74        1.567   3.470   0.000   5.037
   75        1.567   3.470   0.000   5.037
   76        1.567   3.473   0.000   5.040
   77        1.567   3.470   0.000   5.037
   78        1.567   3.470   0.000   5.037
   79        1.566   3.471   0.000   5.037
   80        1.566   3.469   0.000   5.036
   81        1.567   3.453   0.000   5.020
   82        1.567   3.467   0.000   5.034
   83        1.566   3.470   0.000   5.036
   84        1.568   3.465   0.000   5.033
   85        1.567   3.463   0.000   5.030
   86        1.567   3.476   0.000   5.043
   87        1.566   3.475   0.000   5.042
   88        1.566   3.464   0.000   5.031
   89        1.566   3.471   0.000   5.037
   90        1.567   3.467   0.000   5.034
   91        1.566   3.473   0.000   5.039
   92        1.566   3.472   0.000   5.038
   93        1.566   3.471   0.000   5.037
   94        1.567   3.469   0.000   5.036
   95        1.567   3.469   0.000   5.036
   96        1.566   3.472   0.000   5.038
   97        1.566   3.465   0.000   5.031
   98        1.566   3.463   0.000   5.028
   99        1.567   3.465   0.000   5.031
  100        1.566   3.466   0.000   5.031
  101        1.567   3.494   0.000   5.061
  102        1.567   3.459   0.000   5.025
  103        1.566   3.458   0.000   5.023
  104        1.567   3.463   0.000   5.030
  105        1.566   3.462   0.000   5.028
  106        1.566   3.462   0.000   5.028
  107        1.567   3.463   0.000   5.030
  108        1.567   3.464   0.000   5.031
  109        1.566   3.467   0.000   5.033
  110        1.566   3.468   0.000   5.034
  111        1.567   3.465   0.000   5.032
  112        1.568   3.456   0.000   5.025
  113        1.567   3.456   0.000   5.023
  114        1.565   3.463   0.000   5.027
  115        1.567   3.448   0.000   5.015
  116        1.566   3.465   0.000   5.031
  117        1.567   3.462   0.000   5.029
  118        1.568   3.463   0.000   5.031
  119        1.566   3.465   0.000   5.031
  120        1.566   3.462   0.000   5.028
  121        1.566   3.467   0.000   5.034
  122        1.566   3.470   0.000   5.037
  123        1.568   3.470   0.000   5.038
  124        1.566   3.463   0.000   5.029
  125        1.567   3.463   0.000   5.030
  126        1.567   3.462   0.000   5.029
  127        1.566   3.465   0.000   5.031
  128        1.563   3.480   0.000   5.043
  129        1.564   3.483   0.000   5.047
  130        1.564   3.485   0.000   5.049
  131        1.563   3.480   0.000   5.042
  132        1.563   3.484   0.000   5.047
  133        1.565   3.478   0.000   5.043
  134        1.564   3.474   0.000   5.038
  135        1.563   3.485   0.000   5.048
  136        1.564   3.483   0.000   5.047
  137        1.563   3.480   0.000   5.043
  138        1.563   3.483   0.000   5.046
  139        1.564   3.485   0.000   5.049
  140        1.565   3.476   0.000   5.041
  141        1.563   3.484   0.000   5.047
  142        1.563   3.483   0.000   5.046
  143        1.563   3.470   0.000   5.033
  144        1.564   3.485   0.000   5.049
  145        1.564   3.481   0.000   5.045
  146        1.564   3.482   0.000   5.046
  147        1.564   3.485   0.000   5.050
  148        1.564   3.488   0.000   5.052
  149        1.564   3.482   0.000   5.046
  150        1.563   3.467   0.000   5.030
  151        1.564   3.488   0.000   5.051
  152        1.564   3.484   0.000   5.048
  153        1.564   3.486   0.000   5.050
  154        1.565   3.487   0.000   5.051
  155        1.563   3.481   0.000   5.045
  156        1.564   3.482   0.000   5.046
  157        1.564   3.486   0.000   5.050
  158        1.564   3.485   0.000   5.048
  159        1.562   3.468   0.000   5.031
--------------------------------------------------
tot        163.764 542.144  89.212 795.120
 

 total amount of memory used by VASP MPI-rank0   415932. kBytes
=======================================================================

   base      :      30000. kBytes
   nonl-proj :     347904. kBytes
   fftplans  :       2494. kBytes
   grid      :      17825. kBytes
   one-center:       2472. kBytes
   wavefun   :      15237. kBytes
 
  
  
 General timing and accounting informations for this job:
 ========================================================
  
                  Total CPU time used (sec):     2416.200
                            User time (sec):     2404.748
                          System time (sec):       11.452
                         Elapsed time (sec):     2436.101
  
                   Maximum memory used (kb):     1268524.
                   Average memory used (kb):           0.
  
                          Minor page faults:       736720
                          Major page faults:            0
                 Voluntary context switches:         9978
