 vasp.5.4.4.18Apr17-6-g9f103f2a35 (build Jun 19 2019 10:34:07) complex          
  
 executed on               LB-5.4 date 2023.05.15  18:43:50
 running on   96 total cores
 distrk:  each k-point on   24 cores,    4 groups
 distr:  one band on NCORES_PER_BAND=   1 cores,   24 groups


--------------------------------------------------------------------------------------------------------


 INCAR:
 POTCAR:    PAW_PBE P 06Sep2000                   
 POTCAR:    PAW_PBE Si 05Jan2001                  

 ----------------------------------------------------------------------------- 
|                                                                             |
|           W    W    AA    RRRRR   N    N  II  N    N   GGGG   !!!           |
|           W    W   A  A   R    R  NN   N  II  NN   N  G    G  !!!           |
|           W    W  A    A  R    R  N N  N  II  N N  N  G       !!!           |
|           W WW W  AAAAAA  RRRRR   N  N N  II  N  N N  G  GGG   !            |
|           WW  WW  A    A  R   R   N   NN  II  N   NN  G    G                |
|           W    W  A    A  R    R  N    N  II  N    N   GGGG   !!!           |
|                                                                             |
|      For optimal performance we recommend to set                            |
|        NCORE= 4 - approx SQRT( number of cores)                             |
|      NCORE specifies how many cores store one orbital (NPAR=cpu/NCORE).     |
|      This setting can  greatly improve the performance of VASP for DFT.     |
|      The default,   NCORE=1            might be grossly inefficient         |
|      on modern multi-core architectures or massively parallel machines.     |
|      Do your own testing !!!!                                               |
|      Unfortunately you need to use the default for GW and RPA calculations. |
|      (for HF NCORE is supported but not extensively tested yet)             |
|                                                                             |
 ----------------------------------------------------------------------------- 


 ----------------------------------------------------------------------------- 
|                                                                             |
|           W    W    AA    RRRRR   N    N  II  N    N   GGGG   !!!           |
|           W    W   A  A   R    R  NN   N  II  NN   N  G    G  !!!           |
|           W    W  A    A  R    R  N N  N  II  N N  N  G       !!!           |
|           W WW W  AAAAAA  RRRRR   N  N N  II  N  N N  G  GGG   !            |
|           WW  WW  A    A  R   R   N   NN  II  N   NN  G    G                |
|           W    W  A    A  R    R  N    N  II  N    N   GGGG   !!!           |
|                                                                             |
|      You have enabled k-point parallelism (KPAR>1).                         |
|      This developmental code was originally  written by Paul Kent at ORNL,  |
|      and carefully double checked in Vienna.                                |
|      GW as well as linear response parallelism added by Martijn Marsman     |
|      and Georg Kresse.                                                      |
|      Carefully verify results versus KPAR=1.                                |
|      Report problems to Paul Kent and Vienna.                               |
|                                                                             |
 ----------------------------------------------------------------------------- 

 POTCAR:    PAW_PBE P 06Sep2000                   
   VRHFIN =P : s2p3                                                             
   LEXCH  = PE                                                                  
   EATOM  =   176.0430 eV,   12.9388 Ry                                         
                                                                                
   TITEL  = PAW_PBE P 06Sep2000                                                 
   LULTRA =        F    use ultrasoft PP ?                                      
   IUNSCR =        1    unscreen: 0-lin 1-nonlin 2-no                           
   RPACOR =    1.500    partial core radius                                     
   POMASS =   30.974; ZVAL   =    5.000    mass and valenz                      
   RCORE  =    1.900    outmost cutoff radius                                   
   RWIGS  =    2.330; RWIGS  =    1.233    wigner-seitz radius (au A)           
   ENMAX  =  255.040; ENMIN  =  191.280 eV                                      
   ICORE  =        2    local potential                                         
   LCOR   =        T    correct aug charges                                     
   LPAW   =        T    paw PP                                                  
   EAUG   =  342.924                                                            
   DEXC   =    0.000                                                            
   RMAX   =    1.935    core radius for proj-oper                               
   RAUG   =    1.300    factor for augmentation sphere                          
   RDEP   =    1.931    radius for radial grids                                 
   RDEPT  =    1.794    core radius for aug-charge                              
                                                                                
   Atomic configuration                                                         
    6 entries                                                                   
     n  l   j            E        occ.                                          
     1  0  0.50     -2084.0982   2.0000                                         
     2  0  0.50      -173.9859   2.0000                                         
     2  1  1.50      -124.4865   6.0000                                         
     3  0  0.50       -13.9692   2.0000                                         
     3  1  0.50        -5.5067   3.0000                                         
     3  2  1.50        -5.4423   0.0000                                         
   Description                                                                  
     l       E           TYP  RCUT    TYP  RCUT                                 
     0    -13.9691527     23  1.900                                             
     0    -11.7794650     23  1.900                                             
     1     -5.5066937     23  1.900                                             
     1     -0.2556953     23  1.900                                             
     2     -5.4423304     23  1.900                                             
  local pseudopotential read in
  partial core-charges read in
  partial kinetic energy density read in
  atomic valenz-charges read in
  non local Contribution for L=           0  read in
    real space projection operators read in
  non local Contribution for L=           0  read in
    real space projection operators read in
  non local Contribution for L=           1  read in
    real space projection operators read in
  non local Contribution for L=           1  read in
    real space projection operators read in
    PAW grid and wavefunctions read in
 
   number of l-projection  operators is LMAX  =           4
   number of lm-projection operators is LMMAX =           8
 
 POTCAR:    PAW_PBE Si 05Jan2001                  
   VRHFIN =Si: s2p2                                                             
   LEXCH  = PE                                                                  
   EATOM  =   103.0669 eV,    7.5752 Ry                                         
                                                                                
   TITEL  = PAW_PBE Si 05Jan2001                                                
   LULTRA =        F    use ultrasoft PP ?                                      
   IUNSCR =        1    unscreen: 0-lin 1-nonlin 2-no                           
   RPACOR =    1.500    partial core radius                                     
   POMASS =   28.085; ZVAL   =    4.000    mass and valenz                      
   RCORE  =    1.900    outmost cutoff radius                                   
   RWIGS  =    2.480; RWIGS  =    1.312    wigner-seitz radius (au A)           
   ENMAX  =  245.345; ENMIN  =  184.009 eV                                      
   ICORE  =        2    local potential                                         
   LCOR   =        T    correct aug charges                                     
   LPAW   =        T    paw PP                                                  
   EAUG   =  322.069                                                            
   DEXC   =    0.000                                                            
   RMAX   =    1.950    core radius for proj-oper                               
   RAUG   =    1.300    factor for augmentation sphere                          
   RDEP   =    1.993    radius for radial grids                                 
   RDEPT  =    1.837    core radius for aug-charge                              
                                                                                
   Atomic configuration                                                         
    6 entries                                                                   
     n  l   j            E        occ.                                          
     1  0  0.50     -1785.8828   2.0000                                         
     2  0  0.50      -139.4969   2.0000                                         
     2  1  1.50       -95.5546   6.0000                                         
     3  0  0.50       -10.8127   2.0000                                         
     3  1  0.50        -4.0811   2.0000                                         
     3  2  1.50        -4.0817   0.0000                                         
   Description                                                                  
     l       E           TYP  RCUT    TYP  RCUT                                 
     0    -10.8127223     23  1.900                                             
     0     -7.6451159     23  1.900                                             
     1     -4.0811372     23  1.900                                             
     1      2.4879257     23  1.900                                             
     2     -4.0817478      7  1.900                                             
  local pseudopotential read in
  partial core-charges read in
  partial kinetic energy density read in
  atomic valenz-charges read in
  non local Contribution for L=           0  read in
    real space projection operators read in
  non local Contribution for L=           0  read in
    real space projection operators read in
  non local Contribution for L=           1  read in
    real space projection operators read in
  non local Contribution for L=           1  read in
    real space projection operators read in
    PAW grid and wavefunctions read in
 
   number of l-projection  operators is LMAX  =           4
   number of lm-projection operators is LMMAX =           8
 

 ----------------------------------------------------------------------------- 
|                                                                             |
|  ADVICE TO THIS USER RUNNING 'VASP/VAMP'   (HEAR YOUR MASTER'S VOICE ...):  |
|                                                                             |
|      You have a (more or less) 'large supercell' and for larger cells       |
|      it might be more efficient to use real space projection opertators     |
|      So try LREAL= Auto  in the INCAR   file.                               |
|      Mind:          For very  accurate calculation you might also keep the  |
|      reciprocal projection scheme          (i.e. LREAL=.FALSE.)             |
|                                                                             |
 ----------------------------------------------------------------------------- 

  PAW_PBE P 06Sep2000                   :
 energy of atom  1       EATOM= -176.0430
 kinetic energy error for atom=    0.0008 (will be added to EATOM!!)
  PAW_PBE Si 05Jan2001                  :
 energy of atom  2       EATOM= -103.0669
 kinetic energy error for atom=    0.0004 (will be added to EATOM!!)
 
 
 POSCAR: Si53 P1                                 
  positions in direct lattice
  velocities in cartesian coordinates
 exchange correlation table for  LEXCH =        8
   RHO(1)=    0.500       N(1)  =     2000
   RHO(2)=  100.500       N(2)  =     4000
 


--------------------------------------------------------------------------------------------------------


 ion  position               nearest neighbor table
   1  0.292  0.292  0.292-  32 2.35  40 2.35  41 2.35  38 2.35
   2  0.292  0.292  0.625-  33 2.35  41 2.35  42 2.35  39 2.35
   3  0.292  0.292  0.958-  31 2.35  40 2.35  42 2.35  37 2.35
   4  0.292  0.625  0.292-  35 2.35  43 2.35  44 2.35  41 2.35
   5  0.292  0.625  0.625-  36 2.35  44 2.35  45 2.35  42 2.35
   6  0.292  0.625  0.958-  34 2.35  43 2.35  45 2.35  40 2.35
   7  0.292  0.958  0.292-  29 2.35  37 2.35  38 2.35  44 2.35
   8  0.292  0.958  0.625-  30 2.35  38 2.35  39 2.35  45 2.35
   9  0.292  0.958  0.958-  28 2.35  37 2.35  39 2.35  43 2.35
  10  0.625  0.292  0.292-  41 2.35  49 2.35  50 2.35  47 2.35
  11  0.625  0.292  0.625-  42 2.35  50 2.35  51 2.35  48 2.35
  12  0.625  0.292  0.958-  40 2.35  49 2.35  51 2.35  46 2.35
  13  0.625  0.625  0.292-  44 2.35  52 2.35  53 2.35  50 2.35
  14  0.625  0.625  0.625-  45 2.35  53 2.35  54 2.35  51 2.35
  15  0.625  0.625  0.958-  43 2.35  52 2.35  54 2.35  49 2.35
  16  0.625  0.958  0.292-  38 2.35  46 2.35  47 2.35  53 2.35
  17  0.625  0.958  0.625-  39 2.35  47 2.35  48 2.35  54 2.35
  18  0.625  0.958  0.958-  37 2.35  46 2.35  48 2.35  52 2.35
  19  0.958  0.292  0.292-  50 2.35  32 2.35  31 2.35  29 2.35
  20  0.958  0.292  0.625-  51 2.35  33 2.35  32 2.35  30 2.35
  21  0.958  0.292  0.958-  49 2.35  31 2.35  33 2.35  28 2.35
  22  0.958  0.625  0.292-  53 2.35  35 2.35  34 2.35  32 2.35
  23  0.958  0.625  0.625-  54 2.35  36 2.35  35 2.35  33 2.35
  24  0.958  0.625  0.958-  52 2.35  34 2.35  36 2.35  31 2.35
  25  0.958  0.958  0.292-  47 2.35  29 2.35  28 2.35  35 2.35
  26  0.958  0.958  0.625-  48 2.35  30 2.35  29 2.35  36 2.35
  27  0.958  0.958  0.958-  46 2.35  28 2.35  30 2.35  34 2.35
  28  0.042  0.042  0.042-   9 2.35  27 2.35  25 2.35  21 2.35
  29  0.042  0.042  0.375-   7 2.35  25 2.35  26 2.35  19 2.35
  30  0.042  0.042  0.708-   8 2.35  26 2.35  27 2.35  20 2.35
  31  0.042  0.375  0.042-   3 2.35  21 2.35  19 2.35  24 2.35
  32  0.042  0.375  0.375-   1 2.35  19 2.35  20 2.35  22 2.35
  33  0.042  0.375  0.708-   2 2.35  20 2.35  21 2.35  23 2.35
  34  0.042  0.708  0.042-   6 2.35  24 2.35  22 2.35  27 2.35
  35  0.042  0.708  0.375-   4 2.35  22 2.35  23 2.35  25 2.35
  36  0.042  0.708  0.708-   5 2.35  23 2.35  24 2.35  26 2.35
  37  0.375  0.042  0.042-  18 2.35   9 2.35   7 2.35   3 2.35
  38  0.375  0.042  0.375-  16 2.35   8 2.35   7 2.35   1 2.35
  39  0.375  0.042  0.708-  17 2.35   9 2.35   8 2.35   2 2.35
  40  0.375  0.375  0.042-  12 2.35   3 2.35   1 2.35   6 2.35
  41  0.375  0.375  0.375-  10 2.35   2 2.35   1 2.35   4 2.35
  42  0.375  0.375  0.708-  11 2.35   3 2.35   2 2.35   5 2.35
  43  0.375  0.708  0.042-  15 2.35   6 2.35   4 2.35   9 2.35
  44  0.375  0.708  0.375-  13 2.35   5 2.35   4 2.35   7 2.35
  45  0.375  0.708  0.708-  14 2.35   6 2.35   5 2.35   8 2.35
  46  0.708  0.042  0.042-  27 2.35  18 2.35  16 2.35  12 2.35
  47  0.708  0.042  0.375-  25 2.35  17 2.35  16 2.35  10 2.35
  48  0.708  0.042  0.708-  26 2.35  18 2.35  17 2.35  11 2.35
  49  0.708  0.375  0.042-  21 2.35  12 2.35  10 2.35  15 2.35
  50  0.708  0.375  0.375-  19 2.35  11 2.35  10 2.35  13 2.35
  51  0.708  0.375  0.708-  20 2.35  12 2.35  11 2.35  14 2.35
  52  0.708  0.708  0.042-  24 2.35  15 2.35  13 2.35  18 2.35
  53  0.708  0.708  0.375-  22 2.35  14 2.35  13 2.35  16 2.35
  54  0.708  0.708  0.708-  23 2.35  15 2.35  14 2.35  17 2.35
 
  LATTYP: Found a face centered cubic cell.
 ALAT       =    16.2915000202
  
  Lattice vectors:
  
 A1 = (   9.9764655300,   0.0000000000,   5.7599150700)
 A2 = (   3.3254885100,   9.4059019200,   5.7599150700)
 A3 = (   0.0000000000,   0.0000000000,  11.5198301400)


Analysis of symmetry for initial positions (statically):
=====================================================================
 Subroutine PRICEL returns:
 Original cell was already a primitive cell.
 

 Routine SETGRP: Setting up the symmetry group for a 
 face centered cubic supercell.


 Subroutine GETGRP returns: Found 24 space group operations
 (whereof  6 operations were pure point group operations)
 out of a pool of 48 trial point group operations.


The static configuration has the point symmetry C_3v.
 The point group associated with its full space group is T_d .


Analysis of symmetry for dynamics (positions and initial velocities):
=====================================================================
 Subroutine PRICEL returns:
 Original cell was already a primitive cell.
 

 Routine SETGRP: Setting up the symmetry group for a 
 face centered cubic supercell.


 Subroutine GETGRP returns: Found 24 space group operations
 (whereof  6 operations were pure point group operations)
 out of a pool of 48 trial point group operations.


The dynamic configuration has the point symmetry C_3v.
 The point group associated with its full space group is T_d .


 Subroutine INISYM returns: Found 24 space group operations
 (whereof  6 operations are pure point group operations),
 and found     1 'primitive' translations

 
 
 KPOINTS: Automatic kpoint scheme                 

Automatic generation of k-mesh.
Space group operators:
 irot       det(A)        alpha          n_x          n_y          n_z        tau_x        tau_y        tau_z
    1     1.000000     0.000000     1.000000     0.000000     0.000000     0.000000     0.000000     0.000000
    2     1.000000   120.000000    -0.471405    -0.333333    -0.816497     0.000000     0.000000     0.000000
    3     1.000000   120.000000     0.471405     0.333333     0.816497     0.000000     0.000000     0.000000
    4    -1.000000   180.000000     0.288675     0.816497    -0.500000     0.000000     0.000000     0.000000
    5    -1.000000   180.000000     0.577350    -0.816497     0.000000     0.000000     0.000000     0.000000
    6    -1.000000   180.000000     0.866025     0.000000    -0.500000     0.000000     0.000000     0.000000
    7    -1.000000    90.000000    -0.816497    -0.577350    -0.000000     0.166667     0.000000     0.000000
    8    -1.000000   180.000000     0.866025     0.000000     0.500000     0.166667     0.000000     0.000000
    9    -1.000000    90.000000     0.408248    -0.577350     0.707107     0.166667     0.000000     0.000000
   10     1.000000   180.000000     0.816497     0.577350     0.000000     0.000000     0.000000     0.166667
   11     1.000000   120.000000     0.942809    -0.333333     0.000000     0.000000     0.000000     0.166667
   12     1.000000   120.000000    -0.000000    -1.000000    -0.000000     0.000000     0.000000     0.166667
   13    -1.000000    90.000000     0.816497     0.577350    -0.000000     0.000000     0.166667    -0.000000
   14    -1.000000    90.000000     0.408248    -0.577350    -0.707107     0.000000     0.166667    -0.000000
   15    -1.000000   180.000000     0.288675     0.816497     0.500000     0.000000     0.166667    -0.000000
   16     1.000000   120.000000    -0.000000     1.000000    -0.000000     0.166667     0.000000     0.000000
   17     1.000000   120.000000     0.471405     0.333333    -0.816497     0.166667     0.000000     0.000000
   18     1.000000   180.000000    -0.408248     0.577350     0.707107     0.166667     0.000000     0.000000
   19    -1.000000    90.000000    -0.408248     0.577350    -0.707107     0.000000     0.000000     0.166667
   20    -1.000000   180.000000     0.000000    -0.000000     1.000000     0.000000     0.000000     0.166667
   21    -1.000000    90.000000    -0.408248     0.577350     0.707107     0.000000     0.000000     0.166667
   22     1.000000   120.000000    -0.942809     0.333333     0.000000     0.000000     0.166667    -0.000000
   23     1.000000   180.000000    -0.408248     0.577350    -0.707107     0.000000     0.166667    -0.000000
   24     1.000000   120.000000    -0.471405    -0.333333     0.816497     0.000000     0.166667    -0.000000
 
 Subroutine IBZKPT returns following result:
 ===========================================
 
 Found      8 irreducible k-points:
 
 Following reciprocal coordinates:
            Coordinates               Weight
  0.000000  0.000000  0.000000      1.000000
  0.250000  0.000000  0.000000      8.000000
  0.500000  0.000000  0.000000      4.000000
  0.250000  0.250000  0.000000      6.000000
  0.500000  0.250000  0.000000     24.000000
 -0.250000  0.250000  0.000000     12.000000
  0.500000  0.500000  0.000000      3.000000
 -0.250000  0.500000  0.250000      6.000000
 
 Following cartesian coordinates:
            Coordinates               Weight
  0.000000  0.000000  0.000000      1.000000
  0.025059 -0.008860  0.000000      8.000000
  0.050118 -0.017719  0.000000      4.000000
  0.025059  0.017719  0.000000      6.000000
  0.050118  0.008860  0.000000     24.000000
 -0.025059  0.035439  0.000000     12.000000
  0.050118  0.035439  0.000000      3.000000
 -0.037588  0.053158  0.021702      6.000000
 


--------------------------------------------------------------------------------------------------------




 Dimension of arrays:
   k-points           NKPTS =      8   k-points in BZ     NKDIM =      8   number of bands    NBANDS=    144
   number of dos      NEDOS =    301   number of ions     NIONS =     54
   non local maximal  LDIM  =      4   non local SUM 2l+1 LMDIM =      8
   total plane-waves  NPLWV = 343000
   max r-space proj   IRMAX =      1   max aug-charges    IRDMAX=  10807
   dimension x,y,z NGX =    70 NGY =   70 NGZ =   70
   dimension x,y,z NGXF=   140 NGYF=  140 NGZF=  140
   support grid    NGXF=   140 NGYF=  140 NGZF=  140
   ions per type =               1  53
   NGX,Y,Z   is equivalent  to a cutoff of  10.10, 10.10, 10.10 a.u.
   NGXF,Y,Z  is equivalent  to a cutoff of  20.20, 20.20, 20.20 a.u.

 SYSTEM =  Si                                      
 POSCAR =  Si53 P1                                 

 Startparameter for this run:
   NWRITE =      2    write-flag & timer
   PREC   = normal    normal or accurate (medium, high low for compatibility)
   ISTART =      1    job   : 0-new  1-cont  2-samecut
   ICHARG =      0    charge: 1-file 2-atom 10-const
   ISPIN  =      1    spin polarized calculation?
   LNONCOLLINEAR =      F non collinear calculations
   LSORBIT =      F    spin-orbit coupling
   INIWAV =      1    electr: 0-lowe 1-rand  2-diag
   LASPH  =      F    aspherical Exc in radial PAW
   METAGGA=      F    non-selfconsistent MetaGGA calc.

 Electronic Relaxation 1
   ENCUT  =  550.0 eV  40.42 Ry    6.36 a.u.  22.03 22.03 22.03*2*pi/ulx,y,z
   ENINI  =  550.0     initial cutoff
   ENAUG  =  342.9 eV  augmentation charge cutoff
   NELM   =    200;   NELMIN=  2; NELMDL=  0     # of ELM steps 
   EDIFF  = 0.1E-04   stopping-criterion for ELM
   LREAL  =      F    real-space projection
   NLSPLINE    = F    spline interpolate recip. space projectors
   LCOMPAT=      F    compatible to vasp.4.4
   GGA_COMPAT  = T    GGA compatible to vasp.4.4-vasp.4.6
   LMAXPAW     = -100 max onsite density
   LMAXMIX     =    2 max onsite mixed and CHGCAR
   VOSKOWN=      0    Vosko Wilk Nusair interpolation
   ROPT   =    0.00000   0.00000
 Ionic relaxation
   EDIFFG = -.5E-01   stopping-criterion for IOM
   NSW    =    100    number of steps for IOM
   NBLOCK =      1;   KBLOCK =    100    inner block; outer block 
   IBRION =      2    ionic relax: 0-MD 1-quasi-New 2-CG
   NFREE  =      1    steps in history (QN), initial steepest desc. (CG)
   ISIF   =      2    stress and relaxation
   IWAVPR =     11    prediction:  0-non 1-charg 2-wave 3-comb
   ISYM   =      2    0-nonsym 1-usesym 2-fastsym
   LCORR  =      T    Harris-Foulkes like correction to forces

   POTIM  = 0.5000    time-step for ionic-motion
   TEIN   =    0.0    initial temperature
   TEBEG  =    0.0;   TEEND  =   0.0 temperature during run
   SMASS  =  -3.00    Nose mass-parameter (am)
   estimated Nose-frequenzy (Omega)   =  0.10E-29 period in steps =****** mass=  -0.303E-26a.u.
   SCALEE = 1.0000    scale energy and forces
   NPACO  =    256;   APACO  = 16.0  distance and # of slots for P.C.
   PSTRESS=    0.0 pullay stress

  Mass of Ions in am
   POMASS =  30.97 28.09
  Ionic Valenz
   ZVAL   =   5.00  4.00
  Atomic Wigner-Seitz radii
   RWIGS  =  -1.00 -1.00
  virtual crystal weights 
   VCA    =   1.00  1.00
   NELECT =     217.0000    total number of electrons
   NUPDOWN=      -1.0000    fix difference up-down

 DOS related values:
   EMIN   =  10.00;   EMAX   =-10.00  energy-range for DOS
   EFERMI =   0.00
   ISMEAR =     0;   SIGMA  =   0.05  broadening in eV -4-tet -1-fermi 0-gaus

 Electronic relaxation 2 (details)
   IALGO  =     38    algorithm
   LDIAG  =      T    sub-space diagonalisation (order eigenvalues)
   LSUBROT=      F    optimize rotation matrix (better conditioning)
   TURBO    =      0    0=normal 1=particle mesh
   IRESTART =      0    0=no restart 2=restart with 2 vectors
   NREBOOT  =      0    no. of reboots
   NMIN     =      0    reboot dimension
   EREF     =   0.00    reference energy to select bands
   IMIX   =      4    mixing-type and parameters
     AMIX     =   0.20;   BMIX     =  1.00
     AMIX_MAG =   0.80;   BMIX_MAG =  1.00
     AMIN     =   0.10
     WC   =   100.;   INIMIX=   1;  MIXPRE=   1;  MAXMIX= -45

 Intra band minimization:
   WEIMIN = 0.0010     energy-eigenvalue tresh-hold
   EBREAK =  0.17E-07  absolut break condition
   DEPER  =   0.30     relativ break condition  

   TIME   =   0.40     timestep for ELM

  volume/ion in A,a.u.               =      20.02       135.09
  Fermi-wavevector in a.u.,A,eV,Ry     =   0.958562  1.811420 12.501599  0.918842
  Thomas-Fermi vector in A             =   2.087681
 
 Write flags
   LWAVE        =      T    write WAVECAR
   LDOWNSAMPLE  =      F    k-point downsampling of WAVECAR
   LCHARG       =      T    write CHGCAR
   LVTOT        =      F    write LOCPOT, total local potential
   LVHAR        =      F    write LOCPOT, Hartree potential only
   LELF         =      F    write electronic localiz. function (ELF)
   LORBIT       =     10    0 simple, 1 ext, 2 COOP (PROOUT), +10 PAW based schemes


 Dipole corrections
   LMONO  =      F    monopole corrections only (constant potential shift)
   LDIPOL =      F    correct potential (dipole corrections)
   IDIPOL =      0    1-x, 2-y, 3-z, 4-all directions 
   EPSILON=  1.0000000 bulk dielectric constant

 Exchange correlation treatment:
   GGA     =    --    GGA type
   LEXCH   =     8    internal setting for exchange type
   VOSKOWN=      0    Vosko Wilk Nusair interpolation
   LHFCALC =     F    Hartree Fock is set to
   LHFONE  =     F    Hartree Fock one center treatment
   AEXX    =    0.0000 exact exchange contribution

 Linear response parameters
   LEPSILON=     F    determine dielectric tensor
   LRPA    =     F    only Hartree local field effects (RPA)
   LNABLA  =     F    use nabla operator in PAW spheres
   LVEL    =     F    velocity operator in full k-point grid
   LINTERFAST=   F  fast interpolation
   KINTER  =     0    interpolate to denser k-point grid
   CSHIFT  =0.1000    complex shift for real part using Kramers Kronig
   OMEGAMAX=  -1.0    maximum frequency
   DEG_THRESHOLD= 0.2000000E-02 threshold for treating states as degnerate
   RTIME   =   -0.100 relaxation time in fs
  (WPLASMAI=    0.000 imaginary part of plasma frequency in eV, 0.658/RTIME)
   DFIELD  = 0.0000000 0.0000000 0.0000000 field for delta impulse in time
 
 Orbital magnetization related:
   ORBITALMAG=     F  switch on orbital magnetization
   LCHIMAG   =     F  perturbation theory with respect to B field
   DQ        =  0.001000  dq finite difference perturbation B field
   LLRAUG    =     F  two centre corrections for induced B field



--------------------------------------------------------------------------------------------------------


 conjugate gradient relaxation of ions
 charge density and potential will be updated during run
 non-spin polarized calculation
 Variant of blocked Davidson
 Davidson routine will perform the subspace rotation
 perform sub-space diagonalisation
    after iterative eigenvector-optimisation
 modified Broyden-mixing scheme, WC =      100.0
 initial mixing is a Kerker type mixing with AMIX =  0.2000 and BMIX =      1.0000
 Hartree-type preconditioning will be used
 using additional bands           35
 reciprocal scheme for non local part
 use partial core corrections
 calculate Harris-corrections to forces 
   (improved forces if not selfconsistent)
 use gradient corrections 
 use of overlap-Matrix (Vanderbilt PP)
 Gauss-broadening in eV      SIGMA  =   0.05


--------------------------------------------------------------------------------------------------------


  energy-cutoff  :      550.00
  volume of cell :     1080.99
      direct lattice vectors                 reciprocal lattice vectors
     9.976465530  0.000000000  5.759915070     0.100235900 -0.035438742  0.000000000
     3.325488510  9.405901920  5.759915070     0.000000000  0.106316227  0.000000000
     0.000000000  0.000000000 11.519830140    -0.050117950 -0.035438742  0.086806836

  length of vectors
    11.519830124 11.519830136 11.519830140     0.106316227  0.106316227  0.106316227


 
 old parameters found on file WAVECAR:
  energy-cutoff  :      550.00
  volume of cell :     1080.99
      direct lattice vectors                 reciprocal lattice vectors
     9.976465530  0.000000000  5.759915070     0.100235900 -0.035438742  0.000000000
     3.325488510  9.405901920  5.759915070     0.000000000  0.106316227  0.000000000
     0.000000000  0.000000000 11.519830140    -0.050117950 -0.035438742  0.086806836

  length of vectors

 
 k-points in units of 2pi/SCALE and weight: Automatic kpoint scheme                 
   0.00000000  0.00000000  0.00000000       0.016
   0.02505897 -0.00885969  0.00000000       0.125
   0.05011795 -0.01771937  0.00000000       0.062
   0.02505897  0.01771937  0.00000000       0.094
   0.05011795  0.00885969  0.00000000       0.375
  -0.02505897  0.03543874  0.00000000       0.188
   0.05011795  0.03543874  0.00000000       0.047
  -0.03758846  0.05315811  0.02170171       0.094
 
 k-points in reciprocal lattice and weights: Automatic kpoint scheme                 
   0.00000000  0.00000000  0.00000000       0.016
   0.25000000  0.00000000  0.00000000       0.125
   0.50000000  0.00000000  0.00000000       0.062
   0.25000000  0.25000000  0.00000000       0.094
   0.50000000  0.25000000  0.00000000       0.375
  -0.25000000  0.25000000  0.00000000       0.188
   0.50000000  0.50000000  0.00000000       0.047
  -0.25000000  0.50000000  0.25000000       0.094
 
 position of ions in fractional coordinates (direct lattice) 
   0.29166667  0.29166667  0.29166667
   0.29166667  0.29166667  0.62500000
   0.29166667  0.29166667  0.95833333
   0.29166667  0.62500000  0.29166667
   0.29166667  0.62500000  0.62500000
   0.29166667  0.62500000  0.95833333
   0.29166667  0.95833333  0.29166667
   0.29166667  0.95833333  0.62500000
   0.29166667  0.95833333  0.95833333
   0.62500000  0.29166667  0.29166667
   0.62500000  0.29166667  0.62500000
   0.62500000  0.29166667  0.95833333
   0.62500000  0.62500000  0.29166667
   0.62500000  0.62500000  0.62500000
   0.62500000  0.62500000  0.95833333
   0.62500000  0.95833333  0.29166667
   0.62500000  0.95833333  0.62500000
   0.62500000  0.95833333  0.95833333
   0.95833333  0.29166667  0.29166667
   0.95833333  0.29166667  0.62500000
   0.95833333  0.29166667  0.95833333
   0.95833333  0.62500000  0.29166667
   0.95833333  0.62500000  0.62500000
   0.95833333  0.62500000  0.95833333
   0.95833333  0.95833333  0.29166667
   0.95833333  0.95833333  0.62500000
   0.95833333  0.95833333  0.95833333
   0.04166667  0.04166667  0.04166667
   0.04166667  0.04166667  0.37500000
   0.04166667  0.04166667  0.70833333
   0.04166667  0.37500000  0.04166667
   0.04166667  0.37500000  0.37500000
   0.04166667  0.37500000  0.70833333
   0.04166667  0.70833333  0.04166667
   0.04166667  0.70833333  0.37500000
   0.04166667  0.70833333  0.70833333
   0.37500000  0.04166667  0.04166667
   0.37500000  0.04166667  0.37500000
   0.37500000  0.04166667  0.70833333
   0.37500000  0.37500000  0.04166667
   0.37500000  0.37500000  0.37500000
   0.37500000  0.37500000  0.70833333
   0.37500000  0.70833333  0.04166667
   0.37500000  0.70833333  0.37500000
   0.37500000  0.70833333  0.70833333
   0.70833333  0.04166667  0.04166667
   0.70833333  0.04166667  0.37500000
   0.70833333  0.04166667  0.70833333
   0.70833333  0.37500000  0.04166667
   0.70833333  0.37500000  0.37500000
   0.70833333  0.37500000  0.70833333
   0.70833333  0.70833333  0.04166667
   0.70833333  0.70833333  0.37500000
   0.70833333  0.70833333  0.70833333
 
 position of ions in cartesian coordinates  (Angst):
   3.87973659  2.74338806  6.71990091
   3.87973659  2.74338806 10.55984429
   3.87973659  2.74338806 14.39978767
   4.98823276  5.87868870  8.63987260
   4.98823276  5.87868870 12.47981598
   4.98823276  5.87868870 16.31975937
   6.09672893  9.01398934 10.55984429
   6.09672893  9.01398934 14.39978767
   6.09672893  9.01398934 18.23973106
   7.20522510  2.74338806  8.63987260
   7.20522510  2.74338806 12.47981598
   7.20522510  2.74338806 16.31975937
   8.31372128  5.87868870 10.55984429
   8.31372128  5.87868870 14.39978767
   8.31372128  5.87868870 18.23973106
   9.42221745  9.01398934 12.47981598
   9.42221745  9.01398934 16.31975937
   9.42221745  9.01398934 20.15970275
  10.53071362  2.74338806 10.55984429
  10.53071362  2.74338806 14.39978767
  10.53071362  2.74338806 18.23973106
  11.63920979  5.87868870 12.47981598
  11.63920979  5.87868870 16.31975937
  11.63920979  5.87868870 20.15970275
  12.74770596  9.01398934 14.39978767
  12.74770596  9.01398934 18.23973106
  12.74770596  9.01398934 22.07967444
   0.55424808  0.39191258  0.95998584
   0.55424808  0.39191258  4.79992922
   0.55424808  0.39191258  8.63987260
   1.66274425  3.52721322  2.87995753
   1.66274425  3.52721322  6.71990091
   1.66274425  3.52721322 10.55984430
   2.77124042  6.66251386  4.79992922
   2.77124042  6.66251386  8.63987261
   2.77124042  6.66251386 12.47981599
   3.87973659  0.39191258  2.87995753
   3.87973659  0.39191258  6.71990091
   3.87973659  0.39191258 10.55984430
   4.98823277  3.52721322  4.79992922
   4.98823277  3.52721322  8.63987261
   4.98823277  3.52721322 12.47981599
   6.09672894  6.66251386  6.71990091
   6.09672894  6.66251386 10.55984430
   6.09672894  6.66251386 14.39978768
   7.20522511  0.39191258  4.79992922
   7.20522511  0.39191258  8.63987261
   7.20522511  0.39191258 12.47981599
   8.31372128  3.52721322  6.71990091
   8.31372128  3.52721322 10.55984430
   8.31372128  3.52721322 14.39978768
   9.42221745  6.66251386  8.63987260
   9.42221745  6.66251386 12.47981599
   9.42221745  6.66251386 16.31975937
 


--------------------------------------------------------------------------------------------------------


 k-point  1 :   0.0000 0.0000 0.0000  plane waves:   31415
 k-point  2 :   0.2500 0.0000 0.0000  plane waves:   31608
 k-point  3 :   0.5000 0.0000 0.0000  plane waves:   31638
 k-point  4 :   0.2500 0.2500 0.0000  plane waves:   31695
 k-point  5 :   0.5000 0.2500 0.0000  plane waves:   31649
 k-point  6 :  -0.2500 0.2500 0.0000  plane waves:   31674
 k-point  7 :   0.5000 0.5000 0.0000  plane waves:   31716
 k-point  8 :  -0.2500 0.5000 0.2500  plane waves:   31684

 maximum and minimum number of plane-waves per node :     31716    31415

 maximum number of plane-waves:     31716
 maximum index in each direction: 
   IXMAX=   22   IYMAX=   22   IZMAX=   22
   IXMIN=  -22   IYMIN=  -22   IZMIN=  -22


 serial   3D FFT for wavefunctions
 parallel 3D FFT for charge:
    minimum data exchange during FFTs selected (reduces bandwidth)


 total amount of memory used by VASP MPI-rank0   140598. kBytes
=======================================================================

   base      :      30000. kBytes
   nonl-proj :      59902. kBytes
   fftplans  :       5382. kBytes
   grid      :      20451. kBytes
   one-center:        165. kBytes
   wavefun   :      24698. kBytes
 
     INWAV:  cpu time    7.4203: real time    7.9279
 Broyden mixing: mesh for mixing (old mesh)
   NGX = 45   NGY = 45   NGZ = 45
  (NGX  =140   NGY  =140   NGZ  =140)
  gives a total of  91125 points

 charge density for first step will be calculated from the start-wavefunctions


--------------------------------------------------------------------------------------------------------


 Maximum index for augmentation-charges          503 (set IRDMAX)


--------------------------------------------------------------------------------------------------------


 initial charge from wavefunction
 First call to EWALD:  gamma=   0.173
 Maximum number of real-space cells 3x 3x 3
 Maximum number of reciprocal cells 3x 3x 3

    FEWALD:  cpu time    0.0801: real time    0.0808


--------------------------------------- Iteration      1(   1)  ---------------------------------------


    POTLOK:  cpu time    0.0889: real time    0.0984
    SETDIJ:  cpu time    0.0187: real time    0.0189
     EDDAV:  cpu time    3.2917: real time    3.3268
       DOS:  cpu time    0.0167: real time    0.0179
    CHARGE:  cpu time    0.1657: real time    0.1668
    MIXING:  cpu time    0.0068: real time    0.0074
    --------------------------------------------
      LOOP:  cpu time    3.5885: real time    3.6362

 eigenvalue-minimisations  :  1752
 total energy-change (2. order) :-0.2925198E+03  (-0.2206715E-06)
 number of electron     216.9999999 magnetization 
 augmentation part      -12.6824331 magnetization 

 Broyden mixing:
  rms(total) = 0.16342E-03    rms(broyden)= 0.16342E-03
  rms(prec ) = 0.44267E-03
  weight for this iteration     100.00

 Free energy of the ion-electron system (eV)
  ---------------------------------------------------
  alpha Z        PSCENC =        93.56316191
  Ewald energy   TEWEN  =     -6229.80980546
  -Hartree energ DENC   =      -414.70860909
  -exchange      EXHF   =         0.00000000
  -V(xc)+E(xc)   XCENC  =      -472.68932589
  PAW double counting   =     23370.47003202   -22435.75202357
  entropy T*S    EENTRO =        -0.01632989
  eigenvalues    EBANDS =       157.85799128
  atomic energy  EATOM  =      5638.56506835
  Solvation  Ediel_sol  =         0.00000000
  ---------------------------------------------------
  free energy    TOTEN  =      -292.51984034 eV

  energy without entropy =     -292.50351045  energy(sigma->0) =     -292.51167540


--------------------------------------------------------------------------------------------------------




--------------------------------------- Iteration      1(   2)  ---------------------------------------


    POTLOK:  cpu time    0.1321: real time    0.1334
    SETDIJ:  cpu time    0.0033: real time    0.0034
     EDDAV:  cpu time    3.6181: real time    3.6548
       DOS:  cpu time    0.5128: real time    0.5209
    --------------------------------------------
      LOOP:  cpu time    4.2663: real time    4.3124

 eigenvalue-minimisations  :  1704
 total energy-change (2. order) : 0.2178022E-06  (-0.9169983E-07)
 number of electron     216.9999999 magnetization 
 augmentation part      -12.6824331 magnetization 

 Free energy of the ion-electron system (eV)
  ---------------------------------------------------
  alpha Z        PSCENC =        93.56316191
  Ewald energy   TEWEN  =     -6229.80980546
  -Hartree energ DENC   =      -414.70804592
  -exchange      EXHF   =         0.00000000
  -V(xc)+E(xc)   XCENC  =      -472.68933209
  PAW double counting   =     23370.48914121   -22435.77113083
  entropy T*S    EENTRO =        -0.01632857
  eigenvalues    EBANDS =       157.85743127
  atomic energy  EATOM  =      5638.56506835
  Solvation  Ediel_sol  =         0.00000000
  ---------------------------------------------------
  free energy    TOTEN  =      -292.51984012 eV

  energy without entropy =     -292.50351155  energy(sigma->0) =     -292.51167584


--------------------------------------------------------------------------------------------------------




 average (electrostatic) potential at core
  the test charge radii are     0.9587  0.9892
  (the norm of the test charge is              1.0000)
       1 -83.6162       2 -83.2991       3 -83.2991       4 -83.2991       5 -83.2052
       6 -83.2991       7 -83.2991       8 -83.2991       9 -83.1982      10 -83.2991
      11 -83.2052      12 -83.2991      13 -83.2052      14 -83.2052      15 -83.1739
      16 -83.2991      17 -83.1739      18 -83.1739      19 -83.2991      20 -83.2991
      21 -83.1982      22 -83.2991      23 -83.1739      24 -83.1739      25 -83.1982
      26 -83.1739      27 -83.1982      28 -83.1632      29 -83.2108      30 -83.2108
      31 -83.2108      32 -83.7252      33 -83.2108      34 -83.2108      35 -83.2108
      36 -83.1741      37 -83.2108      38 -83.7252      39 -83.2108      40 -83.7252
      41 -83.7252      42 -83.2909      43 -83.2108      44 -83.2909      45 -83.2909
      46 -83.2108      47 -83.2108      48 -83.1741      49 -83.2108      50 -83.2909
      51 -83.2909      52 -83.1741      53 -83.2909      54 -83.1741
 
 
 
 E-fermi :   6.5341     XC(G=0):  -9.4198     alpha+bet :-11.9636


 k-point     1 :       0.0000    0.0000    0.0000
  band No.  band energies     occupation 
      1      -6.6955      2.00000
      2      -5.8287      2.00000
      3      -4.7911      2.00000
      4      -4.7911      2.00000
      5      -4.7911      2.00000
      6      -4.7419      2.00000
      7      -4.7419      2.00000
      8      -4.7419      2.00000
      9      -4.7148      2.00000
     10      -4.3839      2.00000
     11      -4.2395      2.00000
     12      -4.2395      2.00000
     13      -4.2395      2.00000
     14      -4.2211      2.00000
     15      -4.2211      2.00000
     16      -3.4235      2.00000
     17      -2.9576      2.00000
     18      -2.9576      2.00000
     19      -2.9576      2.00000
     20      -2.8687      2.00000
     21      -2.8687      2.00000
     22      -2.8687      2.00000
     23      -2.8499      2.00000
     24      -2.8499      2.00000
     25      -2.8255      2.00000
     26      -2.8255      2.00000
     27      -2.8255      2.00000
     28      -1.4383      2.00000
     29      -1.0832      2.00000
     30      -1.0832      2.00000
     31      -1.0832      2.00000
     32      -0.9483      2.00000
     33      -0.9483      2.00000
     34      -0.9483      2.00000
     35      -0.9216      2.00000
     36      -0.9216      2.00000
     37      -0.8997      2.00000
     38      -0.8997      2.00000
     39      -0.8997      2.00000
     40       0.2381      2.00000
     41       0.3284      2.00000
     42       0.3284      2.00000
     43       0.3284      2.00000
     44       0.4924      2.00000
     45       0.4924      2.00000
     46       0.4924      2.00000
     47       0.5074      2.00000
     48       0.7535      2.00000
     49       0.7781      2.00000
     50       0.7781      2.00000
     51       0.7781      2.00000
     52       0.8221      2.00000
     53       0.8221      2.00000
     54       1.1887      2.00000
     55       1.1887      2.00000
     56       1.1887      2.00000
     57       1.3891      2.00000
     58       1.3891      2.00000
     59       1.4446      2.00000
     60       1.4446      2.00000
     61       1.4446      2.00000
     62       1.4588      2.00000
     63       1.4605      2.00000
     64       1.4605      2.00000
     65       1.4605      2.00000
     66       2.9707      2.00000
     67       2.9707      2.00000
     68       2.9707      2.00000
     69       3.3842      2.00000
     70       3.3842      2.00000
     71       3.3842      2.00000
     72       3.4087      2.00000
     73       3.4087      2.00000
     74       3.4087      2.00000
     75       3.4298      2.00000
     76       3.4298      2.00000
     77       3.4298      2.00000
     78       3.6437      2.00000
     79       3.6437      2.00000
     80       3.6437      2.00000
     81       3.7078      2.00000
     82       3.7078      2.00000
     83       3.7078      2.00000
     84       3.7138      2.00000
     85       3.7138      2.00000
     86       3.7275      2.00000
     87       3.7397      2.00000
     88       3.7397      2.00000
     89       3.7397      2.00000
     90       4.5750      2.00000
     91       4.5750      2.00000
     92       4.5750      2.00000
     93       4.8056      2.00000
     94       4.8056      2.00000
     95       4.8059      2.00000
     96       4.8059      2.00000
     97       4.8059      2.00000
     98       4.8540      2.00000
     99       4.8540      2.00000
    100       4.8540      2.00000
    101       4.8570      2.00000
    102       4.8570      2.00000
    103       4.8575      2.00000
    104       4.8575      2.00000
    105       4.8575      2.00000
    106       5.7955      2.00000
    107       5.7955      2.00000
    108       5.7955      2.00000
    109       6.2688      2.00000
    110       6.4942      1.74127
    111       6.4942      1.74127
    112       6.4942      1.74127
    113       6.5471      0.71400
    114       6.5471      0.71400
    115       6.9002      0.00000
    116       7.2921      0.00000
    117       7.2921      0.00000
    118       7.2921      0.00000
    119       7.3569      0.00000
    120       7.3569      0.00000
    121       7.3915      0.00000
    122       7.3915      0.00000
    123       7.3915      0.00000
    124       7.4042      0.00000
    125       7.4042      0.00000
    126       7.4042      0.00000
    127       7.5084      0.00000
    128       7.5522      0.00000
    129       7.5522      0.00000
    130       7.5522      0.00000
    131       7.6157      0.00000
    132       7.6213      0.00000
    133       7.6213      0.00000
    134       7.6213      0.00000
    135       7.8077      0.00000
    136       7.8077      0.00000
    137       7.8077      0.00000
    138       7.8148      0.00000
    139       7.8148      0.00000
    140       7.8198      0.00000
    141       8.3343      0.00000
    142       8.3343      0.00000
    143       8.3343      0.00000
    144       9.1199      0.00000

 k-point     2 :       0.2500    0.0000    0.0000
  band No.  band energies     occupation 
      1      -6.6747      2.00000
      2      -5.8043      2.00000
      3      -5.2439      2.00000
      4      -4.8942      2.00000
      5      -4.8942      2.00000
      6      -4.7231      2.00000
      7      -4.6238      2.00000
      8      -4.6238      2.00000
      9      -4.5353      2.00000
     10      -4.4635      2.00000
     11      -4.4635      2.00000
     12      -4.2057      2.00000
     13      -3.8867      2.00000
     14      -3.7034      2.00000
     15      -3.7034      2.00000
     16      -3.5999      2.00000
     17      -3.4687      2.00000
     18      -3.4687      2.00000
     19      -3.1172      2.00000
     20      -2.9131      2.00000
     21      -2.9131      2.00000
     22      -2.8638      2.00000
     23      -2.8313      2.00000
     24      -2.8313      2.00000
     25      -2.6852      2.00000
     26      -2.6000      2.00000
     27      -2.6000      2.00000
     28      -1.5218      2.00000
     29      -1.2472      2.00000
     30      -1.2472      2.00000
     31      -1.2041      2.00000
     32      -1.0593      2.00000
     33      -1.0593      2.00000
     34      -0.9847      2.00000
     35      -0.9523      2.00000
     36      -0.9523      2.00000
     37      -0.6918      2.00000
     38      -0.5415      2.00000
     39      -0.5057      2.00000
     40      -0.5057      2.00000
     41      -0.1279      2.00000
     42      -0.0171      2.00000
     43      -0.0171      2.00000
     44       0.0937      2.00000
     45       0.0937      2.00000
     46       0.1194      2.00000
     47       0.8341      2.00000
     48       0.8699      2.00000
     49       0.8699      2.00000
     50       1.2509      2.00000
     51       1.2765      2.00000
     52       1.2765      2.00000
     53       1.4125      2.00000
     54       1.4598      2.00000
     55       1.4598      2.00000
     56       1.5910      2.00000
     57       1.5910      2.00000
     58       1.6204      2.00000
     59       1.6414      2.00000
     60       1.6432      2.00000
     61       1.6432      2.00000
     62       1.7482      2.00000
     63       1.8116      2.00000
     64       1.8116      2.00000
     65       1.9129      2.00000
     66       2.6818      2.00000
     67       2.8078      2.00000
     68       2.8078      2.00000
     69       3.0570      2.00000
     70       3.0570      2.00000
     71       3.1406      2.00000
     72       3.2623      2.00000
     73       3.3407      2.00000
     74       3.3407      2.00000
     75       3.4011      2.00000
     76       3.4011      2.00000
     77       3.4073      2.00000
     78       3.4232      2.00000
     79       3.4232      2.00000
     80       3.4374      2.00000
     81       3.4804      2.00000
     82       3.4937      2.00000
     83       3.4937      2.00000
     84       3.6382      2.00000
     85       3.6382      2.00000
     86       3.6980      2.00000
     87       3.8726      2.00000
     88       3.9723      2.00000
     89       3.9723      2.00000
     90       4.0433      2.00000
     91       4.0433      2.00000
     92       4.1120      2.00000
     93       4.4198      2.00000
     94       4.4198      2.00000
     95       4.4556      2.00000
     96       4.5155      2.00000
     97       4.5494      2.00000
     98       4.5494      2.00000
     99       4.6414      2.00000
    100       4.6414      2.00000
    101       4.8019      2.00000
    102       4.8019      2.00000
    103       4.8412      2.00000
    104       4.9500      2.00000
    105       5.0457      2.00000
    106       5.0457      2.00000
    107       5.6551      2.00000
    108       5.6551      2.00000
    109       6.5206      1.29839
    110       6.6702      0.00012
    111       6.6702      0.00012
    112       6.7974      0.00000
    113       6.9871      0.00000
    114       6.9871      0.00000
    115       7.0517      0.00000
    116       7.0799      0.00000
    117       7.0799      0.00000
    118       7.3042      0.00000
    119       7.4940      0.00000
    120       7.6524      0.00000
    121       7.6524      0.00000
    122       7.7340      0.00000
    123       7.8056      0.00000
    124       7.8056      0.00000
    125       7.8352      0.00000
    126       7.8839      0.00000
    127       7.9063      0.00000
    128       7.9063      0.00000
    129       7.9627      0.00000
    130       7.9627      0.00000
    131       7.9744      0.00000
    132       8.0133      0.00000
    133       8.0203      0.00000
    134       8.0203      0.00000
    135       8.1110      0.00000
    136       8.1287      0.00000
    137       8.1287      0.00000
    138       8.3770      0.00000
    139       8.5342      0.00000
    140       8.5342      0.00000
    141       8.5722      0.00000
    142       8.6006      0.00000
    143       8.6006      0.00000
    144       8.9681      0.00000

 k-point     3 :       0.5000    0.0000    0.0000
  band No.  band energies     occupation 
      1      -6.6525      2.00000
      2      -5.7498      2.00000
      3      -5.4804      2.00000
      4      -4.8810      2.00000
      5      -4.8810      2.00000
      6      -4.8016      2.00000
      7      -4.8016      2.00000
      8      -4.7873      2.00000
      9      -4.4025      2.00000
     10      -4.0594      2.00000
     11      -4.0507      2.00000
     12      -4.0507      2.00000
     13      -4.0131      2.00000
     14      -4.0131      2.00000
     15      -3.8320      2.00000
     16      -3.4079      2.00000
     17      -3.1052      2.00000
     18      -3.0923      2.00000
     19      -3.0923      2.00000
     20      -3.0595      2.00000
     21      -3.0595      2.00000
     22      -2.9462      2.00000
     23      -2.8949      2.00000
     24      -2.8949      2.00000
     25      -2.8588      2.00000
     26      -2.8253      2.00000
     27      -2.8253      2.00000
     28      -1.4667      2.00000
     29      -1.2144      2.00000
     30      -1.1153      2.00000
     31      -1.1153      2.00000
     32      -1.0195      2.00000
     33      -0.9910      2.00000
     34      -0.9910      2.00000
     35      -0.8928      2.00000
     36      -0.7653      2.00000
     37      -0.7653      2.00000
     38      -0.7460      2.00000
     39      -0.7279      2.00000
     40      -0.7279      2.00000
     41      -0.2568      2.00000
     42      -0.2556      2.00000
     43      -0.2556      2.00000
     44      -0.1819      2.00000
     45      -0.1704      2.00000
     46      -0.1704      2.00000
     47       1.1581      2.00000
     48       1.1867      2.00000
     49       1.1867      2.00000
     50       1.3989      2.00000
     51       1.3989      2.00000
     52       1.4254      2.00000
     53       1.6459      2.00000
     54       1.6459      2.00000
     55       1.7767      2.00000
     56       1.8338      2.00000
     57       1.8420      2.00000
     58       1.8420      2.00000
     59       1.8510      2.00000
     60       2.1328      2.00000
     61       2.1328      2.00000
     62       2.1990      2.00000
     63       2.1990      2.00000
     64       2.2145      2.00000
     65       2.4907      2.00000
     66       2.7185      2.00000
     67       2.7325      2.00000
     68       2.7325      2.00000
     69       2.7845      2.00000
     70       2.7845      2.00000
     71       2.9688      2.00000
     72       2.9688      2.00000
     73       2.9861      2.00000
     74       3.0674      2.00000
     75       3.0878      2.00000
     76       3.0878      2.00000
     77       3.1098      2.00000
     78       3.1098      2.00000
     79       3.2482      2.00000
     80       3.3043      2.00000
     81       3.3043      2.00000
     82       3.3046      2.00000
     83       3.3877      2.00000
     84       3.4139      2.00000
     85       3.7092      2.00000
     86       3.7768      2.00000
     87       3.7768      2.00000
     88       3.8545      2.00000
     89       3.8636      2.00000
     90       3.8636      2.00000
     91       3.9144      2.00000
     92       3.9144      2.00000
     93       4.0711      2.00000
     94       4.0785      2.00000
     95       4.0785      2.00000
     96       4.0953      2.00000
     97       4.4269      2.00000
     98       4.4269      2.00000
     99       4.5278      2.00000
    100       4.5297      2.00000
    101       4.5297      2.00000
    102       4.5492      2.00000
    103       4.6190      2.00000
    104       4.6190      2.00000
    105       5.2950      2.00000
    106       5.2950      2.00000
    107       5.4008      2.00000
    108       5.4008      2.00000
    109       6.6164      0.01997
    110       6.7984      0.00000
    111       6.7984      0.00000
    112       6.9132      0.00000
    113       6.9209      0.00000
    114       6.9209      0.00000
    115       7.2590      0.00000
    116       7.5429      0.00000
    117       7.7315      0.00000
    118       7.7315      0.00000
    119       7.7682      0.00000
    120       7.7982      0.00000
    121       7.7982      0.00000
    122       8.0238      0.00000
    123       8.1653      0.00000
    124       8.2233      0.00000
    125       8.2236      0.00000
    126       8.2236      0.00000
    127       8.2812      0.00000
    128       8.2812      0.00000
    129       8.2845      0.00000
    130       8.3584      0.00000
    131       8.4768      0.00000
    132       8.4768      0.00000
    133       8.5162      0.00000
    134       8.5336      0.00000
    135       8.5336      0.00000
    136       8.8651      0.00000
    137       8.8651      0.00000
    138       8.9875      0.00000
    139       9.0546      0.00000
    140       9.0546      0.00000
    141       9.1231      0.00000
    142       9.1236      0.00000
    143       9.1272      0.00000
    144       9.1700      0.00000

 k-point     4 :       0.2500    0.2500    0.0000
  band No.  band energies     occupation 
      1      -6.6684      2.00000
      2      -5.7882      2.00000
      3      -5.0839      2.00000
      4      -5.0839      2.00000
      5      -5.0653      2.00000
      6      -5.0150      2.00000
      7      -4.7112      2.00000
      8      -4.2809      2.00000
      9      -4.2809      2.00000
     10      -4.2407      2.00000
     11      -4.1550      2.00000
     12      -4.1283      2.00000
     13      -4.1283      2.00000
     14      -4.1227      2.00000
     15      -3.6760      2.00000
     16      -3.4232      2.00000
     17      -3.4232      2.00000
     18      -3.3919      2.00000
     19      -3.2724      2.00000
     20      -3.1612      2.00000
     21      -3.0907      2.00000
     22      -3.0907      2.00000
     23      -3.0805      2.00000
     24      -2.5226      2.00000
     25      -2.3606      2.00000
     26      -2.3606      2.00000
     27      -2.3287      2.00000
     28      -1.6599      2.00000
     29      -1.4694      2.00000
     30      -1.4694      2.00000
     31      -1.4190      2.00000
     32      -1.1176      2.00000
     33      -1.0257      2.00000
     34      -1.0052      2.00000
     35      -1.0052      2.00000
     36      -0.6955      2.00000
     37      -0.5139      2.00000
     38      -0.4480      2.00000
     39      -0.4480      2.00000
     40      -0.3823      2.00000
     41      -0.3259      2.00000
     42      -0.2972      2.00000
     43      -0.2972      2.00000
     44      -0.2686      2.00000
     45       0.5262      2.00000
     46       0.5747      2.00000
     47       0.5747      2.00000
     48       0.6482      2.00000
     49       1.1443      2.00000
     50       1.2597      2.00000
     51       1.2597      2.00000
     52       1.3980      2.00000
     53       1.5020      2.00000
     54       1.5033      2.00000
     55       1.5033      2.00000
     56       1.5719      2.00000
     57       1.6616      2.00000
     58       1.6801      2.00000
     59       1.6801      2.00000
     60       1.6854      2.00000
     61       1.8710      2.00000
     62       1.9145      2.00000
     63       1.9145      2.00000
     64       1.9383      2.00000
     65       2.2810      2.00000
     66       2.7049      2.00000
     67       2.7323      2.00000
     68       2.7323      2.00000
     69       2.9791      2.00000
     70       3.0319      2.00000
     71       3.0419      2.00000
     72       3.0419      2.00000
     73       3.0639      2.00000
     74       3.0798      2.00000
     75       3.0798      2.00000
     76       3.3096      2.00000
     77       3.3655      2.00000
     78       3.3655      2.00000
     79       3.4181      2.00000
     80       3.6139      2.00000
     81       3.6139      2.00000
     82       3.6647      2.00000
     83       3.7551      2.00000
     84       3.7597      2.00000
     85       3.7597      2.00000
     86       3.8060      2.00000
     87       3.8085      2.00000
     88       3.9412      2.00000
     89       3.9412      2.00000
     90       3.9968      2.00000
     91       4.0982      2.00000
     92       4.0982      2.00000
     93       4.1375      2.00000
     94       4.2301      2.00000
     95       4.2462      2.00000
     96       4.2462      2.00000
     97       4.2604      2.00000
     98       4.3611      2.00000
     99       4.3611      2.00000
    100       4.4250      2.00000
    101       4.4253      2.00000
    102       5.0552      2.00000
    103       5.0552      2.00000
    104       5.1000      2.00000
    105       5.1476      2.00000
    106       5.1502      2.00000
    107       5.3855      2.00000
    108       5.3855      2.00000
    109       6.3456      2.00000
    110       6.7114      0.00000
    111       6.9860      0.00000
    112       7.0781      0.00000
    113       7.1368      0.00000
    114       7.1368      0.00000
    115       7.2113      0.00000
    116       7.3655      0.00000
    117       7.4399      0.00000
    118       7.5238      0.00000
    119       7.5238      0.00000
    120       7.5372      0.00000
    121       7.5505      0.00000
    122       7.5505      0.00000
    123       7.5673      0.00000
    124       7.7824      0.00000
    125       7.8812      0.00000
    126       7.9419      0.00000
    127       7.9419      0.00000
    128       8.0846      0.00000
    129       8.1277      0.00000
    130       8.2096      0.00000
    131       8.2096      0.00000
    132       8.2560      0.00000
    133       8.2662      0.00000
    134       8.2871      0.00000
    135       8.2871      0.00000
    136       8.3024      0.00000
    137       8.3608      0.00000
    138       8.3608      0.00000
    139       8.3720      0.00000
    140       8.3776      0.00000
    141       8.8456      0.00000
    142       8.8456      0.00000
    143       8.9106      0.00000
    144       9.0470      0.00000

 k-point     5 :       0.5000    0.2500    0.0000
  band No.  band energies     occupation 
      1      -6.6469      2.00000
      2      -5.6964      2.00000
      3      -5.4578      2.00000
      4      -5.2153      2.00000
      5      -5.1047      2.00000
      6      -4.8537      2.00000
      7      -4.5999      2.00000
      8      -4.4158      2.00000
      9      -4.2690      2.00000
     10      -4.1723      2.00000
     11      -4.0213      2.00000
     12      -3.9770      2.00000
     13      -3.9006      2.00000
     14      -3.8073      2.00000
     15      -3.6587      2.00000
     16      -3.5416      2.00000
     17      -3.5269      2.00000
     18      -3.4453      2.00000
     19      -3.3484      2.00000
     20      -3.2977      2.00000
     21      -3.2268      2.00000
     22      -3.2114      2.00000
     23      -2.7179      2.00000
     24      -2.5561      2.00000
     25      -2.5040      2.00000
     26      -2.4277      2.00000
     27      -2.3874      2.00000
     28      -1.6492      2.00000
     29      -1.3844      2.00000
     30      -1.3698      2.00000
     31      -1.3057      2.00000
     32      -1.3041      2.00000
     33      -1.0897      2.00000
     34      -1.0253      2.00000
     35      -0.9540      2.00000
     36      -0.9520      2.00000
     37      -0.6865      2.00000
     38      -0.6031      2.00000
     39      -0.5940      2.00000
     40      -0.5674      2.00000
     41      -0.5558      2.00000
     42      -0.2577      2.00000
     43      -0.2030      2.00000
     44       0.0761      2.00000
     45       0.1230      2.00000
     46       0.1270      2.00000
     47       0.7805      2.00000
     48       0.8052      2.00000
     49       0.9034      2.00000
     50       1.5226      2.00000
     51       1.5466      2.00000
     52       1.6884      2.00000
     53       1.7986      2.00000
     54       1.8318      2.00000
     55       1.9150      2.00000
     56       1.9183      2.00000
     57       2.0516      2.00000
     58       2.0941      2.00000
     59       2.2576      2.00000
     60       2.2657      2.00000
     61       2.3379      2.00000
     62       2.3489      2.00000
     63       2.3498      2.00000
     64       2.3772      2.00000
     65       2.4729      2.00000
     66       2.5239      2.00000
     67       2.5763      2.00000
     68       2.6562      2.00000
     69       2.7186      2.00000
     70       2.7626      2.00000
     71       2.7831      2.00000
     72       2.8763      2.00000
     73       2.8832      2.00000
     74       2.9498      2.00000
     75       2.9610      2.00000
     76       2.9972      2.00000
     77       3.1051      2.00000
     78       3.1547      2.00000
     79       3.1668      2.00000
     80       3.1999      2.00000
     81       3.2289      2.00000
     82       3.2625      2.00000
     83       3.3812      2.00000
     84       3.5369      2.00000
     85       3.5699      2.00000
     86       3.6234      2.00000
     87       3.6463      2.00000
     88       3.6884      2.00000
     89       3.8376      2.00000
     90       3.8607      2.00000
     91       3.8812      2.00000
     92       3.9495      2.00000
     93       3.9872      2.00000
     94       4.1307      2.00000
     95       4.1360      2.00000
     96       4.1981      2.00000
     97       4.2221      2.00000
     98       4.2723      2.00000
     99       4.2731      2.00000
    100       4.3053      2.00000
    101       4.4262      2.00000
    102       4.4353      2.00000
    103       4.7810      2.00000
    104       4.8465      2.00000
    105       4.8548      2.00000
    106       5.0218      2.00000
    107       5.2002      2.00000
    108       5.4456      2.00000
    109       6.5382      0.90729
    110       7.0234      0.00000
    111       7.1880      0.00000
    112       7.2853      0.00000
    113       7.3024      0.00000
    114       7.4734      0.00000
    115       7.5231      0.00000
    116       7.5348      0.00000
    117       7.7045      0.00000
    118       7.8358      0.00000
    119       7.8701      0.00000
    120       7.9186      0.00000
    121       7.9747      0.00000
    122       8.0243      0.00000
    123       8.1435      0.00000
    124       8.1989      0.00000
    125       8.2703      0.00000
    126       8.3435      0.00000
    127       8.3829      0.00000
    128       8.4200      0.00000
    129       8.4576      0.00000
    130       8.4608      0.00000
    131       8.4999      0.00000
    132       8.5861      0.00000
    133       8.6928      0.00000
    134       8.7092      0.00000
    135       8.7689      0.00000
    136       8.7871      0.00000
    137       8.8671      0.00000
    138       8.8713      0.00000
    139       8.9311      0.00000
    140       8.9312      0.00000
    141       8.9783      0.00000
    142       9.0220      0.00000
    143       9.0363      0.00000
    144       9.0444      0.00000

 k-point     6 :      -0.2500    0.2500    0.0000
  band No.  band energies     occupation 
      1      -6.6536      2.00000
      2      -5.7389      2.00000
      3      -5.4124      2.00000
      4      -5.1966      2.00000
      5      -4.9535      2.00000
      6      -4.7936      2.00000
      7      -4.5429      2.00000
      8      -4.5071      2.00000
      9      -4.5038      2.00000
     10      -4.2824      2.00000
     11      -4.0734      2.00000
     12      -4.0425      2.00000
     13      -3.9408      2.00000
     14      -3.8805      2.00000
     15      -3.6574      2.00000
     16      -3.4609      2.00000
     17      -3.4274      2.00000
     18      -3.3971      2.00000
     19      -3.2067      2.00000
     20      -3.1241      2.00000
     21      -3.0523      2.00000
     22      -2.9547      2.00000
     23      -2.9232      2.00000
     24      -2.9211      2.00000
     25      -2.6890      2.00000
     26      -2.6220      2.00000
     27      -2.1894      2.00000
     28      -1.8086      2.00000
     29      -1.3637      2.00000
     30      -1.1247      2.00000
     31      -1.1162      2.00000
     32      -1.0402      2.00000
     33      -0.9536      2.00000
     34      -0.9019      2.00000
     35      -0.8628      2.00000
     36      -0.8501      2.00000
     37      -0.8070      2.00000
     38      -0.7953      2.00000
     39      -0.7204      2.00000
     40      -0.6913      2.00000
     41      -0.6607      2.00000
     42      -0.6557      2.00000
     43       0.2213      2.00000
     44       0.2653      2.00000
     45       0.3721      2.00000
     46       0.4437      2.00000
     47       0.4906      2.00000
     48       0.5602      2.00000
     49       0.5613      2.00000
     50       1.4494      2.00000
     51       1.4627      2.00000
     52       1.5714      2.00000
     53       1.7535      2.00000
     54       1.7960      2.00000
     55       1.8520      2.00000
     56       1.8928      2.00000
     57       1.9263      2.00000
     58       1.9375      2.00000
     59       2.0322      2.00000
     60       2.1349      2.00000
     61       2.1933      2.00000
     62       2.2034      2.00000
     63       2.2497      2.00000
     64       2.3795      2.00000
     65       2.3850      2.00000
     66       2.5075      2.00000
     67       2.5725      2.00000
     68       2.6847      2.00000
     69       2.7478      2.00000
     70       2.7953      2.00000
     71       2.8290      2.00000
     72       2.8450      2.00000
     73       2.8662      2.00000
     74       3.0681      2.00000
     75       3.0985      2.00000
     76       3.1252      2.00000
     77       3.1891      2.00000
     78       3.2128      2.00000
     79       3.2799      2.00000
     80       3.3672      2.00000
     81       3.3962      2.00000
     82       3.4072      2.00000
     83       3.4588      2.00000
     84       3.4608      2.00000
     85       3.5243      2.00000
     86       3.5938      2.00000
     87       3.7051      2.00000
     88       3.8215      2.00000
     89       3.8358      2.00000
     90       3.8546      2.00000
     91       3.9275      2.00000
     92       3.9352      2.00000
     93       4.1406      2.00000
     94       4.1933      2.00000
     95       4.2139      2.00000
     96       4.3166      2.00000
     97       4.4094      2.00000
     98       4.4911      2.00000
     99       4.5342      2.00000
    100       4.5429      2.00000
    101       4.5593      2.00000
    102       4.5996      2.00000
    103       4.7173      2.00000
    104       4.7264      2.00000
    105       4.8417      2.00000
    106       4.8797      2.00000
    107       4.9752      2.00000
    108       5.6759      2.00000
    109       6.6669      0.00017
    110       6.9565      0.00000
    111       6.9960      0.00000
    112       7.0933      0.00000
    113       7.2399      0.00000
    114       7.3213      0.00000
    115       7.5130      0.00000
    116       7.5785      0.00000
    117       7.5944      0.00000
    118       7.6263      0.00000
    119       7.6857      0.00000
    120       7.7067      0.00000
    121       7.7159      0.00000
    122       7.8086      0.00000
    123       7.8927      0.00000
    124       8.1222      0.00000
    125       8.2222      0.00000
    126       8.2743      0.00000
    127       8.2916      0.00000
    128       8.2948      0.00000
    129       8.3257      0.00000
    130       8.3871      0.00000
    131       8.4186      0.00000
    132       8.4822      0.00000
    133       8.4835      0.00000
    134       8.5050      0.00000
    135       8.5172      0.00000
    136       8.6243      0.00000
    137       8.6957      0.00000
    138       8.7068      0.00000
    139       8.8286      0.00000
    140       8.9735      0.00000
    141       9.0237      0.00000
    142       9.0812      0.00000
    143       9.1328      0.00000
    144       9.1560      0.00000

 k-point     7 :       0.5000    0.5000    0.0000
  band No.  band energies     occupation 
      1      -6.6409      2.00000
      2      -5.6451      2.00000
      3      -5.4410      2.00000
      4      -5.1919      2.00000
      5      -5.1919      2.00000
      6      -5.1658      2.00000
      7      -4.6515      2.00000
      8      -3.9298      2.00000
      9      -3.9298      2.00000
     10      -3.8626      2.00000
     11      -3.8510      2.00000
     12      -3.8175      2.00000
     13      -3.8175      2.00000
     14      -3.8076      2.00000
     15      -3.7232      2.00000
     16      -3.6922      2.00000
     17      -3.6518      2.00000
     18      -3.6518      2.00000
     19      -3.6252      2.00000
     20      -3.6139      2.00000
     21      -3.6139      2.00000
     22      -3.6003      2.00000
     23      -2.3638      2.00000
     24      -2.0491      2.00000
     25      -1.9471      2.00000
     26      -1.9437      2.00000
     27      -1.9437      2.00000
     28      -1.8823      2.00000
     29      -1.8729      2.00000
     30      -1.8574      2.00000
     31      -1.8574      2.00000
     32      -1.8473      2.00000
     33      -0.9808      2.00000
     34      -0.8943      2.00000
     35      -0.8943      2.00000
     36      -0.8829      2.00000
     37      -0.7577      2.00000
     38      -0.7535      2.00000
     39      -0.7479      2.00000
     40      -0.7479      2.00000
     41      -0.0580      2.00000
     42       0.0728      2.00000
     43       0.0728      2.00000
     44       0.1663      2.00000
     45       0.1885      2.00000
     46       0.2005      2.00000
     47       0.2005      2.00000
     48       0.2157      2.00000
     49       1.6088      2.00000
     50       1.7135      2.00000
     51       1.7135      2.00000
     52       1.9778      2.00000
     53       2.1273      2.00000
     54       2.1273      2.00000
     55       2.1360      2.00000
     56       2.1664      2.00000
     57       2.1715      2.00000
     58       2.1844      2.00000
     59       2.1844      2.00000
     60       2.1857      2.00000
     61       2.2454      2.00000
     62       2.2675      2.00000
     63       2.2687      2.00000
     64       2.2687      2.00000
     65       2.2763      2.00000
     66       2.2824      2.00000
     67       2.2824      2.00000
     68       2.2909      2.00000
     69       2.7684      2.00000
     70       2.8524      2.00000
     71       2.8524      2.00000
     72       2.9677      2.00000
     73       3.0220      2.00000
     74       3.0220      2.00000
     75       3.0451      2.00000
     76       3.0560      2.00000
     77       3.0560      2.00000
     78       3.0709      2.00000
     79       3.2824      2.00000
     80       3.3407      2.00000
     81       3.3407      2.00000
     82       3.4163      2.00000
     83       3.4933      2.00000
     84       3.4933      2.00000
     85       3.4947      2.00000
     86       3.5130      2.00000
     87       3.5581      2.00000
     88       3.5581      2.00000
     89       3.5621      2.00000
     90       3.5746      2.00000
     91       3.7554      2.00000
     92       3.7755      2.00000
     93       3.8374      2.00000
     94       3.8374      2.00000
     95       4.0334      2.00000
     96       4.0340      2.00000
     97       4.0773      2.00000
     98       4.0776      2.00000
     99       4.0811      2.00000
    100       4.0811      2.00000
    101       4.5698      2.00000
    102       4.5698      2.00000
    103       4.6356      2.00000
    104       4.6356      2.00000
    105       5.2014      2.00000
    106       5.2014      2.00000
    107       5.2642      2.00000
    108       5.2682      2.00000
    109       6.4695      1.93255
    110       6.4918      1.76823
    111       7.3335      0.00000
    112       7.4298      0.00000
    113       7.6309      0.00000
    114       7.7396      0.00000
    115       7.8469      0.00000
    116       7.8469      0.00000
    117       7.8932      0.00000
    118       7.8932      0.00000
    119       7.8958      0.00000
    120       7.9022      0.00000
    121       8.3185      0.00000
    122       8.3235      0.00000
    123       8.3235      0.00000
    124       8.4507      0.00000
    125       8.5271      0.00000
    126       8.5395      0.00000
    127       8.5395      0.00000
    128       8.5731      0.00000
    129       8.6323      0.00000
    130       8.6647      0.00000
    131       8.6648      0.00000
    132       8.6648      0.00000
    133       8.6842      0.00000
    134       8.6842      0.00000
    135       8.6854      0.00000
    136       8.6873      0.00000
    137       8.7945      0.00000
    138       8.8083      0.00000
    139       8.8762      0.00000
    140       8.8762      0.00000
    141       9.2229      0.00000
    142       9.2229      0.00000
    143       9.3323      0.00000
    144       9.3848      0.00000

 k-point     8 :      -0.2500    0.5000    0.2500
  band No.  band energies     occupation 
      1      -6.6402      2.00000
      2      -5.5439      2.00000
      3      -5.5109      2.00000
      4      -5.4916      2.00000
      5      -5.0825      2.00000
      6      -4.6455      2.00000
      7      -4.6262      2.00000
      8      -4.5964      2.00000
      9      -4.2727      2.00000
     10      -3.8695      2.00000
     11      -3.8413      2.00000
     12      -3.8181      2.00000
     13      -3.7599      2.00000
     14      -3.7599      2.00000
     15      -3.7547      2.00000
     16      -3.7418      2.00000
     17      -3.6093      2.00000
     18      -3.5901      2.00000
     19      -3.5482      2.00000
     20      -3.5481      2.00000
     21      -3.0374      2.00000
     22      -2.9581      2.00000
     23      -2.9129      2.00000
     24      -2.8847      2.00000
     25      -2.2006      2.00000
     26      -2.0179      2.00000
     27      -1.9821      2.00000
     28      -1.9402      2.00000
     29      -1.8483      2.00000
     30      -1.8480      2.00000
     31      -1.2141      2.00000
     32      -1.1132      2.00000
     33      -1.1022      2.00000
     34      -1.0735      2.00000
     35      -0.8936      2.00000
     36      -0.8642      2.00000
     37      -0.8158      2.00000
     38      -0.8051      2.00000
     39      -0.3721      2.00000
     40      -0.3173      2.00000
     41      -0.2827      2.00000
     42      -0.2525      2.00000
     43      -0.1869      2.00000
     44      -0.1813      2.00000
     45      -0.1767      2.00000
     46      -0.1672      2.00000
     47       1.0319      2.00000
     48       1.0352      2.00000
     49       1.0584      2.00000
     50       1.1392      2.00000
     51       1.6694      2.00000
     52       1.7782      2.00000
     53       1.8010      2.00000
     54       2.0248      2.00000
     55       2.0652      2.00000
     56       2.0984      2.00000
     57       2.1329      2.00000
     58       2.2825      2.00000
     59       2.5073      2.00000
     60       2.5141      2.00000
     61       2.5713      2.00000
     62       2.5759      2.00000
     63       2.6097      2.00000
     64       2.6145      2.00000
     65       2.6281      2.00000
     66       2.6455      2.00000
     67       2.6500      2.00000
     68       2.6794      2.00000
     69       2.6838      2.00000
     70       2.6875      2.00000
     71       2.6889      2.00000
     72       2.6983      2.00000
     73       2.7390      2.00000
     74       2.7412      2.00000
     75       2.7486      2.00000
     76       2.7557      2.00000
     77       2.9934      2.00000
     78       3.0518      2.00000
     79       3.0559      2.00000
     80       3.0903      2.00000
     81       3.1474      2.00000
     82       3.2085      2.00000
     83       3.2188      2.00000
     84       3.2299      2.00000
     85       3.5157      2.00000
     86       3.5773      2.00000
[...]
   50        0.751   0.932   0.000   1.683
   51        0.751   0.932   0.000   1.683
   52        0.752   0.941   0.000   1.692
   53        0.752   0.933   0.000   1.685
   54        0.752   0.941   0.000   1.692
--------------------------------------------------
tot         40.877  51.125   0.000  92.003
 
    CHARGE:  cpu time    0.1626: real time    0.1638
    FORLOC:  cpu time    0.0335: real time    0.0336
    FORNL :  cpu time    1.5515: real time    1.5631
    STRESS:  cpu time    5.8476: real time    5.8978
    FORCOR:  cpu time    0.1079: real time    0.1086
    FORHAR:  cpu time    0.0474: real time    0.0477
    MIXING:  cpu time    0.0041: real time    0.0041
    OFIELD:  cpu time    0.0001: real time    0.0001

  FORCE on cell =-STRESS in cart. coord.  units (eV):
  Direction    XX          YY          ZZ          XY          YZ          ZX
  --------------------------------------------------------------------------------------
  Alpha Z    93.56316    93.56316    93.56316
  Ewald   -2076.59214 -2076.59215 -2076.59215    -0.00000    -0.00000    -0.00000
  Hartree   138.26457   138.26457   138.26457    -0.00000     0.00000     0.00000
  E(xc)    -688.56970  -688.56970  -688.56972    -0.00001    -0.00001    -0.00001
  Local    -804.49145  -804.49155  -804.49105     0.00014     0.00025     0.00035
  n-local  2101.89178  2117.37227  2128.56629    -0.58511    -0.97908     0.69234
  augment  -319.34114  -319.34105  -319.34151    -0.00013    -0.00023    -0.00032
  Kinetic  1523.68631  1550.88282  1579.30712    -2.27330    -1.34971     0.95439
  Fock        0.00000     0.00000     0.00000     0.00000     0.00000     0.00000
  -------------------------------------------------------------------------------------
  Total      10.06882    10.06882    10.06882     0.00000     0.00000     0.00000
  in kB      14.92334    14.92334    14.92334     0.00000     0.00000     0.00000
  external pressure =       14.92 kB  Pullay stress =        0.00 kB


 VOLUME and BASIS-vectors are now :
 -----------------------------------------------------------------------------
  energy-cutoff  :      550.00
  volume of cell :     1080.99
      direct lattice vectors                 reciprocal lattice vectors
     9.976465530  0.000000000  5.759915070     0.100235900 -0.035438742  0.000000000
     3.325488510  9.405901920  5.759915070     0.000000000  0.106316227  0.000000000
     0.000000000  0.000000000 11.519830140    -0.050117950 -0.035438742  0.086806836

  length of vectors
    11.519830124 11.519830136 11.519830140     0.106316227  0.106316227  0.106316227


 FORCES acting on ions
    electron-ion (+dipol)            ewald-force                    non-local-force                 convergence-correction
 -----------------------------------------------------------------------------------------------
   -.463E-06 -.229E-06 -.663E-06   0.147E-06 -.781E-07 0.114E-10   -.117E-16 0.694E-17 0.156E-16   -.143E-07 -.102E-07 -.249E-07
   -.112E+01 -.795E+00 -.305E+01   0.708E+00 0.501E+00 0.321E+01   0.408E+00 0.289E+00 -.153E+00   -.830E-03 -.587E-03 0.406E-03
   -.112E+01 -.795E+00 0.305E+01   0.708E+00 0.501E+00 -.321E+01   0.408E+00 0.289E+00 0.153E+00   -.830E-03 -.587E-03 -.406E-03
   -.144E+01 -.170E+01 -.250E+01   0.128E+01 0.212E+01 0.222E+01   0.160E+00 -.414E+00 0.277E+00   -.298E-03 0.918E-03 -.516E-03
   0.209E+00 -.738E-01 0.181E-05   -.235E+00 0.831E-01 -.294E-11   0.196E-01 -.693E-02 -.208E-16   -.107E-02 0.377E-03 -.795E-08
   -.144E+01 -.170E+01 0.250E+01   0.128E+01 0.212E+01 -.222E+01   0.160E+00 -.414E+00 -.277E+00   -.298E-03 0.918E-03 0.516E-03
   0.318E+00 0.329E+01 0.551E+00   -.574E+00 -.313E+01 -.994E+00   0.248E+00 -.164E+00 0.430E+00   -.532E-03 0.256E-03 -.922E-03
   0.318E+00 0.329E+01 -.551E+00   -.574E+00 -.313E+01 0.994E+00   0.248E+00 -.164E+00 -.430E+00   -.532E-03 0.256E-03 0.922E-03
   -.199E+00 0.705E-01 0.538E-06   0.152E+00 -.536E-01 -.187E-13   0.417E-01 -.147E-01 0.520E-16   0.133E-02 -.470E-03 0.851E-08
   -.208E+01 -.795E+00 -.250E+01   0.243E+01 0.501E+00 0.222E+01   -.337E+00 0.289E+00 0.277E+00   0.766E-03 -.587E-03 -.516E-03
   0.977E-06 0.221E+00 0.181E-05   0.115E-06 -.249E+00 -.290E-11   -.121E-16 0.208E-01 0.173E-17   -.462E-08 -.113E-02 -.795E-08
   -.208E+01 -.795E+00 0.250E+01   0.243E+01 0.501E+00 -.222E+01   -.337E+00 0.289E+00 -.277E+00   0.766E-03 -.587E-03 0.516E-03
   -.104E+00 -.738E-01 0.181E+00   0.117E+00 0.831E-01 -.203E+00   -.981E-02 -.693E-02 0.170E-01   0.533E-03 0.377E-03 -.923E-03
   -.104E+00 -.738E-01 -.181E+00   0.117E+00 0.831E-01 0.203E+00   -.981E-02 -.693E-02 -.170E-01   0.533E-03 0.377E-03 0.923E-03
   -.714E+00 -.505E+00 0.183E-06   0.745E+00 0.526E+00 -.668E-12   -.170E-01 -.120E-01 0.347E-17   -.399E-04 -.282E-04 0.175E-07
   -.636E+00 0.329E+01 -.676E-06   0.115E+01 -.313E+01 0.336E-11   -.497E+00 -.164E+00 -.445E-17   0.106E-02 0.256E-03 -.600E-07
   -.357E+00 0.505E+00 -.618E+00   0.372E+00 -.526E+00 0.645E+00   -.850E-02 0.120E-01 -.147E-01   -.200E-04 0.282E-04 -.346E-04
   -.357E+00 0.505E+00 0.618E+00   0.372E+00 -.526E+00 -.645E+00   -.850E-02 0.120E-01 0.147E-01   -.200E-04 0.282E-04 0.346E-04
   0.320E+01 -.795E+00 0.551E+00   -.314E+01 0.501E+00 -.994E+00   -.716E-01 0.289E+00 0.430E+00   0.638E-04 -.587E-03 -.922E-03
   0.320E+01 -.795E+00 -.551E+00   -.314E+01 0.501E+00 0.994E+00   -.716E-01 0.289E+00 -.430E+00   0.638E-04 -.587E-03 0.922E-03
   0.238E-06 -.212E+00 0.538E-06   0.124E-06 0.161E+00 0.244E-13   0.108E-16 0.442E-01 0.382E-16   0.492E-08 0.141E-02 0.851E-08
   0.289E+01 -.170E+01 -.676E-06   -.256E+01 0.212E+01 0.338E-11   -.320E+00 -.414E+00 0.273E-16   0.596E-03 0.918E-03 -.600E-07
   0.357E+00 -.505E+00 -.618E+00   -.372E+00 0.526E+00 0.645E+00   0.850E-02 -.120E-01 -.147E-01   0.200E-04 -.282E-04 -.346E-04
   0.357E+00 -.505E+00 0.618E+00   -.372E+00 0.526E+00 -.645E+00   0.850E-02 -.120E-01 0.147E-01   0.200E-04 -.282E-04 0.346E-04
   0.997E-01 0.705E-01 -.173E+00   -.759E-01 -.536E-01 0.131E+00   -.208E-01 -.147E-01 0.361E-01   -.664E-03 -.470E-03 0.115E-02
   0.714E+00 0.505E+00 0.135E-05   -.745E+00 -.526E+00 0.405E-11   0.170E-01 0.120E-01 -.694E-17   0.399E-04 0.282E-04 0.109E-07
   0.997E-01 0.705E-01 0.173E+00   -.759E-01 -.536E-01 -.131E+00   -.208E-01 -.147E-01 -.361E-01   -.664E-03 -.470E-03 -.115E-02
   0.603E-06 0.345E-06 0.928E-06   -.116E-06 0.616E-07 0.661E-11   -.347E-17 -.694E-17 -.208E-16   -.490E-08 -.349E-08 -.852E-08
   0.155E+01 0.110E+01 0.348E+00   -.160E+01 -.113E+01 -.342E+00   0.323E-01 0.229E-01 -.133E-01   -.106E-02 -.751E-03 -.390E-03
   0.155E+01 0.110E+01 -.348E+00   -.160E+01 -.113E+01 0.342E+00   0.323E-01 0.229E-01 0.133E-01   -.106E-02 -.751E-03 0.390E-03
   0.876E+00 -.813E+00 0.152E+01   -.900E+00 0.854E+00 -.156E+01   0.123E-01 -.337E-01 0.214E-01   -.644E-03 0.432E-03 -.111E-02
   0.688E+01 -.243E+01 -.105E-05   -.101E+02 0.357E+01 0.111E-11   0.321E+01 -.114E+01 -.833E-16   0.163E-02 -.577E-03 -.551E-07
   0.876E+00 -.813E+00 -.152E+01   -.900E+00 0.854E+00 0.156E+01   0.123E-01 -.337E-01 -.214E-01   -.644E-03 0.432E-03 0.111E-02
   0.675E+00 -.138E+01 0.117E+01   -.703E+00 0.141E+01 -.122E+01   0.200E-01 -.120E-01 0.346E-01   -.418E-03 0.107E-02 -.725E-03
   0.675E+00 -.138E+01 -.117E+01   -.703E+00 0.141E+01 0.122E+01   0.200E-01 -.120E-01 -.346E-01   -.418E-03 0.107E-02 0.725E-03
   0.994E-01 -.351E-01 -.123E-06   -.117E+00 0.414E-01 0.282E-12   0.547E-02 -.193E-02 -.520E-17   -.259E-03 0.915E-04 0.271E-08
   -.474E+00 0.110E+01 0.152E+01   0.505E+00 -.113E+01 -.156E+01   -.277E-01 0.229E-01 0.214E-01   0.193E-03 -.751E-03 -.111E-02
   -.523E-06 0.730E+01 -.105E-05   -.120E-06 -.107E+02 0.113E-11   -.902E-16 0.341E+01 -.833E-16   -.318E-07 0.173E-02 -.551E-07
   -.474E+00 0.110E+01 -.152E+01   0.505E+00 -.113E+01 0.156E+01   -.277E-01 0.229E-01 -.214E-01   0.193E-03 -.751E-03 0.111E-02
   -.344E+01 -.243E+01 0.596E+01   0.505E+01 0.357E+01 -.874E+01   -.161E+01 -.114E+01 0.278E+01   -.816E-03 -.577E-03 0.141E-02
   -.344E+01 -.243E+01 -.596E+01   0.505E+01 0.357E+01 0.874E+01   -.161E+01 -.114E+01 -.278E+01   -.816E-03 -.577E-03 -.141E-02
   0.538E+00 0.380E+00 -.289E-06   -.131E+00 -.925E-01 -.112E-11   -.426E+00 -.301E+00 0.278E-16   -.646E-03 -.457E-03 0.200E-07
   -.135E+01 -.138E+01 0.132E-05   0.141E+01 0.141E+01 -.187E-11   -.400E-01 -.120E-01 -.139E-16   0.837E-03 0.107E-02 0.132E-08
   0.269E+00 -.380E+00 0.466E+00   -.654E-01 0.925E-01 -.113E+00   -.213E+00 0.301E+00 -.369E+00   -.323E-03 0.457E-03 -.559E-03
   0.269E+00 -.380E+00 -.466E+00   -.654E-01 0.925E-01 0.113E+00   -.213E+00 0.301E+00 0.369E+00   -.323E-03 0.457E-03 0.559E-03
   -.108E+01 0.110E+01 0.117E+01   0.110E+01 -.113E+01 -.122E+01   -.468E-02 0.229E-01 0.346E-01   0.869E-03 -.751E-03 -.725E-03
   -.108E+01 0.110E+01 -.117E+01   0.110E+01 -.113E+01 0.122E+01   -.468E-02 0.229E-01 -.346E-01   0.869E-03 -.751E-03 0.725E-03
   0.242E-08 0.105E+00 -.123E-06   -.122E-06 -.124E+00 0.263E-12   -.191E-16 0.580E-02 -.382E-16   0.154E-08 -.274E-03 0.271E-08
   -.175E+01 -.813E+00 0.132E-05   0.180E+01 0.854E+00 -.188E-11   -.247E-01 -.337E-01 -.416E-16   0.129E-02 0.432E-03 0.132E-08
   -.269E+00 0.380E+00 0.466E+00   0.654E-01 -.925E-01 -.113E+00   0.213E+00 -.301E+00 -.369E+00   0.323E-03 -.457E-03 -.559E-03
   -.269E+00 0.380E+00 -.466E+00   0.654E-01 -.925E-01 0.113E+00   0.213E+00 -.301E+00 0.369E+00   0.323E-03 -.457E-03 0.559E-03
   -.497E-01 -.351E-01 0.861E-01   0.585E-01 0.414E-01 -.101E+00   -.273E-02 -.193E-02 0.473E-02   0.129E-03 0.915E-04 -.224E-03
   -.538E+00 -.380E+00 -.781E-06   0.131E+00 0.925E-01 0.335E-11   0.426E+00 0.301E+00 0.144E-16   0.646E-03 0.457E-03 -.417E-07
   -.497E-01 -.351E-01 -.861E-01   0.585E-01 0.414E-01 0.101E+00   -.273E-02 -.193E-02 -.473E-02   0.129E-03 0.915E-04 0.224E-03
 -----------------------------------------------------------------------------------------------
   0.721E-05 0.508E-05 0.126E-04   -.142E-12 -.292E-13 -.423E-14   0.193E-14 0.590E-16 -.477E-16   0.101E-08 0.714E-09 0.175E-08
 
 
 POSITION                                       TOTAL-FORCE (eV/Angst)
 -----------------------------------------------------------------------------------
      3.87974      2.74339      6.71990        -0.000000      0.000000     -0.000000
      3.86831      2.73531     10.55775        -0.009379     -0.006632      0.011493
      3.86831      2.73531     14.40188        -0.009379     -0.006632     -0.011493
      4.98191      5.88506      8.62893        -0.001372      0.016016     -0.002376
      4.98487      5.87988     12.47982        -0.007690      0.002719     -0.000000
      4.98191      5.88506     16.33070        -0.001372      0.016016      0.002376
      6.09162      9.02378     10.55099        -0.008007     -0.002752     -0.013869
      6.09162      9.02378     14.40864        -0.008007     -0.002752      0.013869
      6.09457      9.01475     18.23973        -0.004744      0.001677     -0.000000
      7.20913      2.73531      8.62893         0.014643     -0.006632     -0.002376
      7.20523      2.73982     12.47982        -0.000000     -0.008156     -0.000000
      7.20913      2.73531     16.33070         0.014643     -0.006632      0.002376
      8.31540      5.87988     10.55693         0.003845      0.002719     -0.006659
      8.31540      5.87988     14.40270         0.003845      0.002719      0.006659
      8.31437      5.87915     18.23973         0.013964      0.009874      0.000000
      9.43244      9.02378     12.47982         0.016015     -0.002752     -0.000000
      9.42254      9.01353     16.32032         0.006982     -0.009874      0.012093
      9.42254      9.01353     20.15914         0.006982     -0.009874     -0.012093
     10.53824      2.73531     10.55099        -0.005264     -0.006632     -0.013869
     10.53824      2.73531     14.40864        -0.005264     -0.006632      0.013869
     10.53071      2.74110     18.23973        -0.000000     -0.005032     -0.000000
     11.65185      5.88506     12.47982         0.002744      0.016016     -0.000000
     11.63889      5.87915     16.32032        -0.006982      0.009874      0.012093
     11.63889      5.87915     20.15914        -0.006982      0.009874     -0.012093
     12.74879      9.01475     14.39792         0.002372      0.001677     -0.004108
     12.74706      9.01353     18.23973        -0.013964     -0.009874      0.000000
     12.74879      9.01475     22.08154         0.002372      0.001677      0.004108
      0.55425      0.39191      0.95999        -0.000000      0.000000     -0.000000
      0.55051      0.38927      4.80085        -0.020661     -0.014609     -0.008020
      0.55051      0.38927      8.63896        -0.020661     -0.014609      0.008020
      1.66114      3.53061      2.87717        -0.012645      0.008061     -0.021902
      1.66338      3.52699      6.71990         0.003616     -0.001278     -0.000000
      1.66114      3.53061     10.56263        -0.012645      0.008061      0.021902
      2.76910      6.66441      4.79623        -0.008015      0.021157     -0.013883
      2.76910      6.66441      8.64357        -0.008015      0.021157      0.013883
      2.77020      6.66288     12.47982        -0.012435      0.004397      0.000000
      3.88240      0.38927      2.87717         0.003385     -0.014609     -0.021902
      3.87974      0.39259      6.71990        -0.000000      0.003835     -0.000000
      3.88240      0.38927     10.56263         0.003385     -0.014609      0.021902
      4.98791      3.52699      4.80048        -0.001808     -0.001278      0.003131
      4.98791      3.52699      8.63932        -0.001808     -0.001278     -0.003131
      4.99659      3.53312     12.47982        -0.019570     -0.013838     -0.000000
      6.10100      6.66441      6.71990         0.016030      0.021157     -0.000000
      6.10091      6.65661     10.56708        -0.009785      0.013838     -0.016948
      6.10091      6.65661     14.39255        -0.009785      0.013838      0.016948
      7.20630      0.38927      4.79623         0.017276     -0.014609     -0.013883
      7.20630      0.38927      8.64357         0.017276     -0.014609      0.013883
      7.20523      0.39081     12.47982         0.000000     -0.013190      0.000000
      8.31694      3.53061      6.71990         0.025291      0.008061     -0.000000
      8.30954      3.53312     10.56708         0.009785     -0.013838     -0.016948
      8.30954      3.53312     14.39255         0.009785     -0.013838      0.016948
      9.42274      6.66288      8.63897         0.006218      0.004397     -0.010769
      9.41386      6.65661     12.47982         0.019570      0.013838      0.000000
      9.42274      6.66288     16.32066         0.006218      0.004397      0.010769
 -----------------------------------------------------------------------------------
    total drift:                                0.000007      0.000005      0.000013


--------------------------------------------------------------------------------------------------------



  FREE ENERGIE OF THE ION-ELECTRON SYSTEM (eV)
  ---------------------------------------------------
  free  energy   TOTEN  =      -292.54861812 eV

  energy  without entropy=     -292.53222647  energy(sigma->0) =     -292.54042230
 
 d Force = 0.2682295E-02[ 0.171E-02, 0.365E-02]  d Energy = 0.2694387E-02-0.121E-04
 d Force = 0.6213371E-01[ 0.518E-01, 0.725E-01]  d Ewald  = 0.6214445E-01-0.107E-04


--------------------------------------------------------------------------------------------------------


    POTLOK:  cpu time    0.0825: real time    0.0862


--------------------------------------------------------------------------------------------------------


 Conjugate gradient step on ions:
 trial-energy change:   -0.002694  1 .order   -0.002682   -0.003655   -0.001710
  (g-gl).g = 0.340E-02      g.g   = 0.356E-02  gl.gl    = 0.469E-01
 g(Force)  = 0.356E-02   g(Stress)= 0.000E+00 ortho     = 0.167E-03
 gamma     =   0.07241
 trial     =   1.02217
 opt step  =   1.92058  (harmonic =   1.92058) maximal distance =0.00528307
 next E    =  -292.549357   (d E  =  -0.00343)


--------------------------------------------------------------------------------------------------------


  
 reached required accuracy - stopping structural energy minimisation
 writing wavefunctions
     LOOP+:  cpu time   33.5776: real time   34.9442
    4ORBIT:  cpu time    0.0000: real time    0.0000
 


 total charge     
 
# of ion       s       p       d       tot
------------------------------------------
    1        1.026   1.465   0.000   2.492
    2        0.753   0.938   0.000   1.691
    3        0.753   0.938   0.000   1.691
    4        0.751   0.938   0.000   1.689
    5        0.752   0.943   0.000   1.695
    6        0.752   0.938   0.000   1.689
    7        0.752   0.937   0.000   1.689
    8        0.752   0.937   0.000   1.689
    9        0.752   0.941   0.000   1.692
   10        0.751   0.937   0.000   1.689
   11        0.752   0.944   0.000   1.695
   12        0.751   0.937   0.000   1.688
   13        0.751   0.944   0.000   1.695
   14        0.751   0.944   0.000   1.695
   15        0.751   0.942   0.000   1.693
   16        0.751   0.937   0.000   1.689
   17        0.751   0.942   0.000   1.693
   18        0.751   0.942   0.000   1.693
   19        0.752   0.937   0.000   1.688
   20        0.752   0.936   0.000   1.688
   21        0.752   0.941   0.000   1.692
   22        0.752   0.937   0.000   1.689
   23        0.751   0.942   0.000   1.693
   24        0.751   0.942   0.000   1.693
   25        0.751   0.941   0.000   1.692
   26        0.751   0.941   0.000   1.693
   27        0.751   0.941   0.000   1.692
   28        0.752   0.942   0.000   1.694
   29        0.751   0.943   0.000   1.694
   30        0.751   0.943   0.000   1.694
   31        0.751   0.943   0.000   1.695
   32        0.754   0.904   0.000   1.658
   33        0.751   0.943   0.000   1.695
   34        0.751   0.943   0.000   1.694
   35        0.751   0.943   0.000   1.694
   36        0.751   0.941   0.000   1.692
   37        0.752   0.943   0.000   1.695
   38        0.755   0.901   0.000   1.656
   39        0.752   0.943   0.000   1.695
   40        0.757   0.901   0.000   1.657
   41        0.757   0.901   0.000   1.657
   42        0.754   0.935   0.000   1.689
   43        0.752   0.943   0.000   1.694
   44        0.752   0.933   0.000   1.685
   45        0.752   0.933   0.000   1.685
   46        0.751   0.943   0.000   1.694
   47        0.751   0.943   0.000   1.694
   48        0.751   0.941   0.000   1.692
   49        0.751   0.943   0.000   1.694
   50        0.751   0.932   0.000   1.683
   51        0.751   0.932   0.000   1.683
   52        0.752   0.941   0.000   1.692
   53        0.752   0.933   0.000   1.685
   54        0.752   0.941   0.000   1.692
--------------------------------------------------
tot         40.877  51.125   0.000  92.003
 

 total amount of memory used by VASP MPI-rank0   140598. kBytes
=======================================================================

   base      :      30000. kBytes
   nonl-proj :      59902. kBytes
   fftplans  :       5382. kBytes
   grid      :      20451. kBytes
   one-center:        165. kBytes
   wavefun   :      24698. kBytes
 
  
  
 General timing and accounting informations for this job:
 ========================================================
  
                  Total CPU time used (sec):      137.282
                            User time (sec):      130.531
                          System time (sec):        6.751
                         Elapsed time (sec):      145.453
  
                   Maximum memory used (kb):      388244.
                   Average memory used (kb):           0.
  
                          Minor page faults:        38444
                          Major page faults:            0
                 Voluntary context switches:         4216
