 vasp.5.4.4.18Apr17-6-g9f103f2a35 (build Jun 19 2019 10:34:07) complex          
  
 executed on               LB-5.4 date 2023.05.19  11:11:43
 running on   96 total cores
 distrk:  each k-point on   24 cores,    4 groups
 distr:  one band on NCORES_PER_BAND=   1 cores,   24 groups


--------------------------------------------------------------------------------------------------------


 INCAR:
 POTCAR:    PAW_PBE Si 05Jan2001                  
 POTCAR:    PAW_PBE B 06Sep2000                   
 POTCAR:    PAW_PBE P 06Sep2000                   

 ----------------------------------------------------------------------------- 
|                                                                             |
|           W    W    AA    RRRRR   N    N  II  N    N   GGGG   !!!           |
|           W    W   A  A   R    R  NN   N  II  NN   N  G    G  !!!           |
|           W    W  A    A  R    R  N N  N  II  N N  N  G       !!!           |
|           W WW W  AAAAAA  RRRRR   N  N N  II  N  N N  G  GGG   !            |
|           WW  WW  A    A  R   R   N   NN  II  N   NN  G    G                |
|           W    W  A    A  R    R  N    N  II  N    N   GGGG   !!!           |
|                                                                             |
|      For optimal performance we recommend to set                            |
|        NCORE= 4 - approx SQRT( number of cores)                             |
|      NCORE specifies how many cores store one orbital (NPAR=cpu/NCORE).     |
|      This setting can  greatly improve the performance of VASP for DFT.     |
|      The default,   NCORE=1            might be grossly inefficient         |
|      on modern multi-core architectures or massively parallel machines.     |
|      Do your own testing !!!!                                               |
|      Unfortunately you need to use the default for GW and RPA calculations. |
|      (for HF NCORE is supported but not extensively tested yet)             |
|                                                                             |
 ----------------------------------------------------------------------------- 


 ----------------------------------------------------------------------------- 
|                                                                             |
|           W    W    AA    RRRRR   N    N  II  N    N   GGGG   !!!           |
|           W    W   A  A   R    R  NN   N  II  NN   N  G    G  !!!           |
|           W    W  A    A  R    R  N N  N  II  N N  N  G       !!!           |
|           W WW W  AAAAAA  RRRRR   N  N N  II  N  N N  G  GGG   !            |
|           WW  WW  A    A  R   R   N   NN  II  N   NN  G    G                |
|           W    W  A    A  R    R  N    N  II  N    N   GGGG   !!!           |
|                                                                             |
|      You have enabled k-point parallelism (KPAR>1).                         |
|      This developmental code was originally  written by Paul Kent at ORNL,  |
|      and carefully double checked in Vienna.                                |
|      GW as well as linear response parallelism added by Martijn Marsman     |
|      and Georg Kresse.                                                      |
|      Carefully verify results versus KPAR=1.                                |
|      Report problems to Paul Kent and Vienna.                               |
|                                                                             |
 ----------------------------------------------------------------------------- 

 POTCAR:    PAW_PBE Si 05Jan2001                  
   VRHFIN =Si: s2p2                                                             
   LEXCH  = PE                                                                  
   EATOM  =   103.0669 eV,    7.5752 Ry                                         
                                                                                
   TITEL  = PAW_PBE Si 05Jan2001                                                
   LULTRA =        F    use ultrasoft PP ?                                      
   IUNSCR =        1    unscreen: 0-lin 1-nonlin 2-no                           
   RPACOR =    1.500    partial core radius                                     
   POMASS =   28.085; ZVAL   =    4.000    mass and valenz                      
   RCORE  =    1.900    outmost cutoff radius                                   
   RWIGS  =    2.480; RWIGS  =    1.312    wigner-seitz radius (au A)           
   ENMAX  =  245.345; ENMIN  =  184.009 eV                                      
   ICORE  =        2    local potential                                         
   LCOR   =        T    correct aug charges                                     
   LPAW   =        T    paw PP                                                  
   EAUG   =  322.069                                                            
   DEXC   =    0.000                                                            
   RMAX   =    1.950    core radius for proj-oper                               
   RAUG   =    1.300    factor for augmentation sphere                          
   RDEP   =    1.993    radius for radial grids                                 
   RDEPT  =    1.837    core radius for aug-charge                              
                                                                                
   Atomic configuration                                                         
    6 entries                                                                   
     n  l   j            E        occ.                                          
     1  0  0.50     -1785.8828   2.0000                                         
     2  0  0.50      -139.4969   2.0000                                         
     2  1  1.50       -95.5546   6.0000                                         
     3  0  0.50       -10.8127   2.0000                                         
     3  1  0.50        -4.0811   2.0000                                         
     3  2  1.50        -4.0817   0.0000                                         
   Description                                                                  
     l       E           TYP  RCUT    TYP  RCUT                                 
     0    -10.8127223     23  1.900                                             
     0     -7.6451159     23  1.900                                             
     1     -4.0811372     23  1.900                                             
     1      2.4879257     23  1.900                                             
     2     -4.0817478      7  1.900                                             
  local pseudopotential read in
  partial core-charges read in
  partial kinetic energy density read in
  atomic valenz-charges read in
  non local Contribution for L=           0  read in
    real space projection operators read in
  non local Contribution for L=           0  read in
    real space projection operators read in
  non local Contribution for L=           1  read in
    real space projection operators read in
  non local Contribution for L=           1  read in
    real space projection operators read in
    PAW grid and wavefunctions read in
 
   number of l-projection  operators is LMAX  =           4
   number of lm-projection operators is LMMAX =           8
 
 POTCAR:    PAW_PBE B 06Sep2000                   
   VRHFIN =B: s2p1                                                              
   LEXCH  = PE                                                                  
   EATOM  =    71.1703 eV,    5.2309 Ry                                         
                                                                                
   TITEL  = PAW_PBE B 06Sep2000                                                 
   LULTRA =        F    use ultrasoft PP ?                                      
   IUNSCR =        1    unscreen: 0-lin 1-nonlin 2-no                           
   RPACOR =    1.200    partial core radius                                     
   POMASS =   10.811; ZVAL   =    3.000    mass and valenz                      
   RCORE  =    1.700    outmost cutoff radius                                   
   RWIGS  =    1.710; RWIGS  =    0.905    wigner-seitz radius (au A)           
   ENMAX  =  318.614; ENMIN  =  238.960 eV                                      
   ICORE  =        2    local potential                                         
   LCOR   =        T    correct aug charges                                     
   LPAW   =        T    paw PP                                                  
   EAUG   =  535.514                                                            
   DEXC   =    0.000                                                            
   RMAX   =    1.732    core radius for proj-oper                               
   RAUG   =    1.300    factor for augmentation sphere                          
   RDEP   =    1.757    radius for radial grids                                 
   RDEPT  =    1.436    core radius for aug-charge                              
                                                                                
   Atomic configuration                                                         
    4 entries                                                                   
     n  l   j            E        occ.                                          
     1  0  0.50      -180.5896   2.0000                                         
     2  0  0.50        -9.4431   2.0000                                         
     2  1  0.50        -3.6068   1.0000                                         
     3  2  1.50        -4.0817   0.0000                                         
   Description                                                                  
     l       E           TYP  RCUT    TYP  RCUT                                 
     0     -9.4430752     23  1.500                                             
     0      0.8675899     23  1.500                                             
     1     -3.6067955     23  1.700                                             
     1      6.1086146     23  1.700                                             
     2     -4.0817478      7  1.700                                             
  local pseudopotential read in
  partial core-charges read in
  partial kinetic energy density read in
  atomic valenz-charges read in
  non local Contribution for L=           0  read in
    real space projection operators read in
  non local Contribution for L=           0  read in
    real space projection operators read in
  non local Contribution for L=           1  read in
    real space projection operators read in
  non local Contribution for L=           1  read in
    real space projection operators read in
    PAW grid and wavefunctions read in
 
   number of l-projection  operators is LMAX  =           4
   number of lm-projection operators is LMMAX =           8
 
 POTCAR:    PAW_PBE P 06Sep2000                   
   VRHFIN =P : s2p3                                                             
   LEXCH  = PE                                                                  
   EATOM  =   176.0430 eV,   12.9388 Ry                                         
                                                                                
   TITEL  = PAW_PBE P 06Sep2000                                                 
   LULTRA =        F    use ultrasoft PP ?                                      
   IUNSCR =        1    unscreen: 0-lin 1-nonlin 2-no                           
   RPACOR =    1.500    partial core radius                                     
   POMASS =   30.974; ZVAL   =    5.000    mass and valenz                      
   RCORE  =    1.900    outmost cutoff radius                                   
   RWIGS  =    2.330; RWIGS  =    1.233    wigner-seitz radius (au A)           
   ENMAX  =  255.040; ENMIN  =  191.280 eV                                      
   ICORE  =        2    local potential                                         
   LCOR   =        T    correct aug charges                                     
   LPAW   =        T    paw PP                                                  
   EAUG   =  342.924                                                            
   DEXC   =    0.000                                                            
   RMAX   =    1.935    core radius for proj-oper                               
   RAUG   =    1.300    factor for augmentation sphere                          
   RDEP   =    1.931    radius for radial grids                                 
   RDEPT  =    1.794    core radius for aug-charge                              
                                                                                
   Atomic configuration                                                         
    6 entries                                                                   
     n  l   j            E        occ.                                          
     1  0  0.50     -2084.0982   2.0000                                         
     2  0  0.50      -173.9859   2.0000                                         
     2  1  1.50      -124.4865   6.0000                                         
     3  0  0.50       -13.9692   2.0000                                         
     3  1  0.50        -5.5067   3.0000                                         
     3  2  1.50        -5.4423   0.0000                                         
   Description                                                                  
     l       E           TYP  RCUT    TYP  RCUT                                 
     0    -13.9691527     23  1.900                                             
     0    -11.7794650     23  1.900                                             
     1     -5.5066937     23  1.900                                             
     1     -0.2556953     23  1.900                                             
     2     -5.4423304     23  1.900                                             
  local pseudopotential read in
  partial core-charges read in
  partial kinetic energy density read in
  atomic valenz-charges read in
  non local Contribution for L=           0  read in
    real space projection operators read in
  non local Contribution for L=           0  read in
    real space projection operators read in
  non local Contribution for L=           1  read in
    real space projection operators read in
  non local Contribution for L=           1  read in
    real space projection operators read in
    PAW grid and wavefunctions read in
 
   number of l-projection  operators is LMAX  =           4
   number of lm-projection operators is LMMAX =           8
 

 ----------------------------------------------------------------------------- 
|                                                                             |
|  ADVICE TO THIS USER RUNNING 'VASP/VAMP'   (HEAR YOUR MASTER'S VOICE ...):  |
|                                                                             |
|      You have a (more or less) 'large supercell' and for larger cells       |
|      it might be more efficient to use real space projection opertators     |
|      So try LREAL= Auto  in the INCAR   file.                               |
|      Mind:          For very  accurate calculation you might also keep the  |
|      reciprocal projection scheme          (i.e. LREAL=.FALSE.)             |
|                                                                             |
 ----------------------------------------------------------------------------- 

  PAW_PBE Si 05Jan2001                  :
 energy of atom  1       EATOM= -103.0669
 kinetic energy error for atom=    0.0004 (will be added to EATOM!!)
  PAW_PBE B 06Sep2000                   :
 energy of atom  2       EATOM=  -71.1703
 kinetic energy error for atom=    0.0009 (will be added to EATOM!!)
  PAW_PBE P 06Sep2000                   :
 energy of atom  3       EATOM= -176.0430
 kinetic energy error for atom=    0.0008 (will be added to EATOM!!)
 
 
 POSCAR: Si52 B1 P1                              
  positions in direct lattice
  No initial velocities read in
 exchange correlation table for  LEXCH =        8
   RHO(1)=    0.500       N(1)  =     2000
   RHO(2)=  100.500       N(2)  =     4000
 


--------------------------------------------------------------------------------------------------------


 ion  position               nearest neighbor table
   1  0.292  0.292  0.625-  32 2.35  53 2.35  40 2.35  38 2.35
   2  0.292  0.292  0.958-  30 2.35  39 2.35  40 2.35  36 2.35
   3  0.292  0.625  0.292-  34 2.35  41 2.35  42 2.35  53 2.35
   4  0.292  0.625  0.625-  35 2.35  42 2.35  43 2.35  40 2.35
   5  0.292  0.625  0.958-  33 2.35  41 2.35  43 2.35  39 2.35
   6  0.292  0.958  0.292-  28 2.35  36 2.35  37 2.35  42 2.35
   7  0.292  0.958  0.625-  29 2.35  37 2.35  38 2.35  43 2.35
   8  0.292  0.958  0.958-  27 2.35  36 2.35  38 2.35  41 2.35
   9  0.625  0.292  0.292-  53 2.35  47 2.35  48 2.35  45 2.35
  10  0.625  0.292  0.625-  40 2.35  48 2.35  49 2.35  46 2.35
  11  0.625  0.292  0.958-  39 2.35  47 2.35  49 2.35  44 2.35
  12  0.625  0.625  0.292-  42 2.35  50 2.35  51 2.35  48 2.35
  13  0.625  0.625  0.625-  43 2.35  51 2.35  52 2.35  49 2.35
  14  0.625  0.625  0.958-  41 2.35  50 2.35  52 2.35  47 2.35
  15  0.625  0.958  0.292-  37 2.35  44 2.35  45 2.35  51 2.35
  16  0.625  0.958  0.625-  38 2.35  45 2.35  46 2.35  52 2.35
  17  0.625  0.958  0.958-  36 2.35  44 2.35  46 2.35  50 2.35
  18  0.958  0.292  0.292-  48 2.35  31 2.35  30 2.35  28 2.35
  19  0.958  0.292  0.625-  49 2.35  32 2.35  31 2.35  29 2.35
  20  0.958  0.292  0.958-  47 2.35  30 2.35  32 2.35  27 2.35
  21  0.958  0.625  0.292-  51 2.35  34 2.35  33 2.35  31 2.35
  22  0.958  0.625  0.625-  52 2.35  35 2.35  34 2.35  32 2.35
  23  0.958  0.625  0.958-  50 2.35  33 2.35  35 2.35  30 2.35
  24  0.958  0.958  0.292-  45 2.35  28 2.35  27 2.35  34 2.35
  25  0.958  0.958  0.625-  46 2.35  29 2.35  28 2.35  35 2.35
  26  0.958  0.958  0.958-  44 2.35  27 2.35  29 2.35  33 2.35
  27  0.042  0.042  0.042-   8 2.35  26 2.35  24 2.35  20 2.35
  28  0.042  0.042  0.375-   6 2.35  24 2.35  25 2.35  18 2.35
  29  0.042  0.042  0.708-   7 2.35  25 2.35  26 2.35  19 2.35
  30  0.042  0.375  0.042-   2 2.35  20 2.35  18 2.35  23 2.35
  31  0.042  0.375  0.375-  54 2.35  19 2.35  18 2.35  21 2.35
  32  0.042  0.375  0.708-   1 2.35  19 2.35  20 2.35  22 2.35
  33  0.042  0.708  0.042-   5 2.35  23 2.35  21 2.35  26 2.35
  34  0.042  0.708  0.375-   3 2.35  21 2.35  22 2.35  24 2.35
  35  0.042  0.708  0.708-   4 2.35  22 2.35  23 2.35  25 2.35
  36  0.375  0.042  0.042-  17 2.35   8 2.35   6 2.35   2 2.35
  37  0.375  0.042  0.375-  15 2.35   7 2.35   6 2.35  54 2.35
  38  0.375  0.042  0.708-  16 2.35   8 2.35   7 2.35   1 2.35
  39  0.375  0.375  0.042-  11 2.35   2 2.35  54 2.35   5 2.35
  40  0.375  0.375  0.708-  10 2.35   2 2.35   1 2.35   4 2.35
  41  0.375  0.708  0.042-  14 2.35   5 2.35   3 2.35   8 2.35
  42  0.375  0.708  0.375-  12 2.35   4 2.35   3 2.35   6 2.35
  43  0.375  0.708  0.708-  13 2.35   5 2.35   4 2.35   7 2.35
  44  0.708  0.042  0.042-  26 2.35  17 2.35  15 2.35  11 2.35
  45  0.708  0.042  0.375-  24 2.35  16 2.35  15 2.35   9 2.35
  46  0.708  0.042  0.708-  25 2.35  17 2.35  16 2.35  10 2.35
  47  0.708  0.375  0.042-  20 2.35  11 2.35   9 2.35  14 2.35
  48  0.708  0.375  0.375-  18 2.35  10 2.35   9 2.35  12 2.35
  49  0.708  0.375  0.708-  19 2.35  11 2.35  10 2.35  13 2.35
  50  0.708  0.708  0.042-  23 2.35  14 2.35  12 2.35  17 2.35
  51  0.708  0.708  0.375-  21 2.35  13 2.35  12 2.35  15 2.35
  52  0.708  0.708  0.708-  22 2.35  14 2.35  13 2.35  16 2.35
  53  0.375  0.375  0.375-   9 2.35   1 2.35  54 2.35   3 2.35
  54  0.292  0.292  0.292-  31 2.35  39 2.35  53 2.35  37 2.35
 
  LATTYP: Found a face centered cubic cell.
 ALAT       =    16.2915000202
  
  Lattice vectors:
  
 A1 = (   9.9764655300,   0.0000000000,   5.7599150700)
 A2 = (   3.3254885100,   9.4059019200,   5.7599150700)
 A3 = (   0.0000000000,   0.0000000000,  11.5198301400)


Analysis of symmetry for initial positions (statically):
=====================================================================
 Subroutine PRICEL returns:
 Original cell was already a primitive cell.
 

 Routine SETGRP: Setting up the symmetry group for a 
 face centered cubic supercell.


 Subroutine GETGRP returns: Found  6 space group operations
 (whereof  6 operations were pure point group operations)
 out of a pool of 48 trial point group operations.


The static configuration has the point symmetry C_3v.


Analysis of symmetry for dynamics (positions and initial velocities):
=====================================================================
 Subroutine PRICEL returns:
 Original cell was already a primitive cell.
 

 Routine SETGRP: Setting up the symmetry group for a 
 face centered cubic supercell.


 Subroutine GETGRP returns: Found  6 space group operations
 (whereof  6 operations were pure point group operations)
 out of a pool of 48 trial point group operations.


The dynamic configuration has the point symmetry C_3v.


 Subroutine INISYM returns: Found  6 space group operations
 (whereof  6 operations are pure point group operations),
 and found     1 'primitive' translations

 
 
 KPOINTS: pymatgen with grid density = 1000 / numb

Automatic generation of k-mesh.
Space group operators:
 irot       det(A)        alpha          n_x          n_y          n_z        tau_x        tau_y        tau_z
    1     1.000000     0.000000     1.000000     0.000000     0.000000     0.000000     0.000000     0.000000
    2     1.000000   120.000000    -0.471405    -0.333333    -0.816497     0.000000     0.000000     0.000000
    3     1.000000   120.000000     0.471405     0.333333     0.816497     0.000000     0.000000     0.000000
    4    -1.000000   180.000000     0.288675     0.816497    -0.500000     0.000000     0.000000     0.000000
    5    -1.000000   180.000000     0.577350    -0.816497     0.000000     0.000000     0.000000     0.000000
    6    -1.000000   180.000000     0.866025     0.000000    -0.500000     0.000000     0.000000     0.000000
 
 Subroutine IBZKPT returns following result:
 ===========================================
 
 Found     13 irreducible k-points:
 
 Following reciprocal coordinates:
            Coordinates               Weight
  0.000000  0.000000  0.000000      1.000000
  0.250000  0.000000  0.000000      6.000000
  0.500000  0.000000  0.000000      3.000000
  0.250000  0.250000  0.000000      6.000000
  0.500000  0.250000  0.000000     12.000000
 -0.250000  0.250000  0.000000      6.000000
  0.500000  0.500000  0.000000      3.000000
  0.250000  0.250000  0.250000      2.000000
  0.500000  0.250000  0.250000      6.000000
 -0.250000  0.250000  0.250000      6.000000
  0.500000  0.500000  0.250000      6.000000
 -0.250000  0.500000  0.250000      6.000000
  0.500000  0.500000  0.500000      1.000000
 
 Following cartesian coordinates:
            Coordinates               Weight
  0.000000  0.000000  0.000000      1.000000
  0.025059 -0.008860  0.000000      6.000000
  0.050118 -0.017719  0.000000      3.000000
  0.025059  0.017719  0.000000      6.000000
  0.050118  0.008860  0.000000     12.000000
 -0.025059  0.035439  0.000000      6.000000
  0.050118  0.035439  0.000000      3.000000
  0.012529  0.008860  0.021702      2.000000
  0.037588  0.000000  0.021702      6.000000
 -0.037588  0.026579  0.021702      6.000000
  0.037588  0.026579  0.021702      6.000000
 -0.037588  0.053158  0.021702      6.000000
  0.025059  0.017719  0.043403      1.000000
 


--------------------------------------------------------------------------------------------------------




 Dimension of arrays:
   k-points           NKPTS =     13   k-points in BZ     NKDIM =     13   number of bands    NBANDS=    144
   number of dos      NEDOS =    301   number of ions     NIONS =     54
   non local maximal  LDIM  =      4   non local SUM 2l+1 LMDIM =      8
   total plane-waves  NPLWV = 343000
   max r-space proj   IRMAX =      1   max aug-charges    IRDMAX=  10807
   dimension x,y,z NGX =    70 NGY =   70 NGZ =   70
   dimension x,y,z NGXF=   140 NGYF=  140 NGZF=  140
   support grid    NGXF=   140 NGYF=  140 NGZF=  140
   ions per type =              52   1   1
   NGX,Y,Z   is equivalent  to a cutoff of  10.10, 10.10, 10.10 a.u.
   NGXF,Y,Z  is equivalent  to a cutoff of  20.20, 20.20, 20.20 a.u.

 SYSTEM =  Si                                      
 POSCAR =  Si52 B1 P1                              

 Startparameter for this run:
   NWRITE =      2    write-flag & timer
   PREC   = normal    normal or accurate (medium, high low for compatibility)
   ISTART =      0    job   : 0-new  1-cont  2-samecut
   ICHARG =      2    charge: 1-file 2-atom 10-const
   ISPIN  =      1    spin polarized calculation?
   LNONCOLLINEAR =      F non collinear calculations
   LSORBIT =      F    spin-orbit coupling
   INIWAV =      1    electr: 0-lowe 1-rand  2-diag
   LASPH  =      F    aspherical Exc in radial PAW
   METAGGA=      F    non-selfconsistent MetaGGA calc.

 Electronic Relaxation 1
   ENCUT  =  550.0 eV  40.42 Ry    6.36 a.u.  22.03 22.03 22.03*2*pi/ulx,y,z
   ENINI  =  550.0     initial cutoff
   ENAUG  =  535.5 eV  augmentation charge cutoff
   NELM   =    200;   NELMIN=  2; NELMDL= -5     # of ELM steps 
   EDIFF  = 0.1E-05   stopping-criterion for ELM
   LREAL  =      F    real-space projection
   NLSPLINE    = F    spline interpolate recip. space projectors
   LCOMPAT=      F    compatible to vasp.4.4
   GGA_COMPAT  = T    GGA compatible to vasp.4.4-vasp.4.6
   LMAXPAW     = -100 max onsite density
   LMAXMIX     =    2 max onsite mixed and CHGCAR
   VOSKOWN=      0    Vosko Wilk Nusair interpolation
   ROPT   =    0.00000   0.00000   0.00000
 Ionic relaxation
   EDIFFG = -.5E-01   stopping-criterion for IOM
   NSW    =      0    number of steps for IOM
   NBLOCK =      1;   KBLOCK =      1    inner block; outer block 
   IBRION =     -1    ionic relax: 0-MD 1-quasi-New 2-CG
   NFREE  =      1    steps in history (QN), initial steepest desc. (CG)
   ISIF   =      2    stress and relaxation
   IWAVPR =     10    prediction:  0-non 1-charg 2-wave 3-comb
   ISYM   =      2    0-nonsym 1-usesym 2-fastsym
   LCORR  =      T    Harris-Foulkes like correction to forces

   POTIM  = 0.5000    time-step for ionic-motion
   TEIN   =    0.0    initial temperature
   TEBEG  =    0.0;   TEEND  =   0.0 temperature during run
   SMASS  =  -3.00    Nose mass-parameter (am)
   estimated Nose-frequenzy (Omega)   =  0.10E-29 period in steps =****** mass=  -0.303E-26a.u.
   SCALEE = 1.0000    scale energy and forces
   NPACO  =    256;   APACO  = 16.0  distance and # of slots for P.C.
   PSTRESS=    0.0 pullay stress

  Mass of Ions in am
   POMASS =  28.09 10.81 30.97
  Ionic Valenz
   ZVAL   =   4.00  3.00  5.00
  Atomic Wigner-Seitz radii
   RWIGS  =  -1.00 -1.00 -1.00
  virtual crystal weights 
   VCA    =   1.00  1.00  1.00
   NELECT =     217.0000    total number of electrons
   NUPDOWN=      -1.0000    fix difference up-down

 DOS related values:
   EMIN   =  10.00;   EMAX   =-10.00  energy-range for DOS
   EFERMI =   0.00
   ISMEAR =     0;   SIGMA  =   0.05  broadening in eV -4-tet -1-fermi 0-gaus

 Electronic relaxation 2 (details)
   IALGO  =     38    algorithm
   LDIAG  =      T    sub-space diagonalisation (order eigenvalues)
   LSUBROT=      F    optimize rotation matrix (better conditioning)
   TURBO    =      0    0=normal 1=particle mesh
   IRESTART =      0    0=no restart 2=restart with 2 vectors
   NREBOOT  =      0    no. of reboots
   NMIN     =      0    reboot dimension
   EREF     =   0.00    reference energy to select bands
   IMIX   =      4    mixing-type and parameters
     AMIX     =   0.20;   BMIX     =  1.00
     AMIX_MAG =   0.80;   BMIX_MAG =  1.00
     AMIN     =   0.10
     WC   =   100.;   INIMIX=   1;  MIXPRE=   1;  MAXMIX= -45

 Intra band minimization:
   WEIMIN = 0.0000     energy-eigenvalue tresh-hold
   EBREAK =  0.17E-08  absolut break condition
   DEPER  =   0.30     relativ break condition  

   TIME   =   0.40     timestep for ELM

  volume/ion in A,a.u.               =      20.02       135.09
  Fermi-wavevector in a.u.,A,eV,Ry     =   0.958562  1.811420 12.501599  0.918842
  Thomas-Fermi vector in A             =   2.087681
 
 Write flags
   LWAVE        =      T    write WAVECAR
   LDOWNSAMPLE  =      F    k-point downsampling of WAVECAR
   LCHARG       =      T    write CHGCAR
   LVTOT        =      F    write LOCPOT, total local potential
   LVHAR        =      F    write LOCPOT, Hartree potential only
   LELF         =      F    write electronic localiz. function (ELF)
   LORBIT       =     10    0 simple, 1 ext, 2 COOP (PROOUT), +10 PAW based schemes


 Dipole corrections
   LMONO  =      F    monopole corrections only (constant potential shift)
   LDIPOL =      F    correct potential (dipole corrections)
   IDIPOL =      0    1-x, 2-y, 3-z, 4-all directions 
   EPSILON=  1.0000000 bulk dielectric constant

 Exchange correlation treatment:
   GGA     =    --    GGA type
   LEXCH   =     8    internal setting for exchange type
   VOSKOWN=      0    Vosko Wilk Nusair interpolation
   LHFCALC =     F    Hartree Fock is set to
   LHFONE  =     F    Hartree Fock one center treatment
   AEXX    =    0.0000 exact exchange contribution

 Linear response parameters
   LEPSILON=     F    determine dielectric tensor
   LRPA    =     F    only Hartree local field effects (RPA)
   LNABLA  =     F    use nabla operator in PAW spheres
   LVEL    =     F    velocity operator in full k-point grid
   LINTERFAST=   F  fast interpolation
   KINTER  =     0    interpolate to denser k-point grid
   CSHIFT  =0.1000    complex shift for real part using Kramers Kronig
   OMEGAMAX=  -1.0    maximum frequency
   DEG_THRESHOLD= 0.2000000E-02 threshold for treating states as degnerate
   RTIME   =   -0.100 relaxation time in fs
  (WPLASMAI=    0.000 imaginary part of plasma frequency in eV, 0.658/RTIME)
   DFIELD  = 0.0000000 0.0000000 0.0000000 field for delta impulse in time
 
 Orbital magnetization related:
   ORBITALMAG=     F  switch on orbital magnetization
   LCHIMAG   =     F  perturbation theory with respect to B field
   DQ        =  0.001000  dq finite difference perturbation B field
   LLRAUG    =     F  two centre corrections for induced B field



--------------------------------------------------------------------------------------------------------


 Static calculation
 charge density and potential will be updated during run
 non-spin polarized calculation
 Variant of blocked Davidson
 Davidson routine will perform the subspace rotation
 perform sub-space diagonalisation
    after iterative eigenvector-optimisation
 modified Broyden-mixing scheme, WC =      100.0
 initial mixing is a Kerker type mixing with AMIX =  0.2000 and BMIX =      1.0000
 Hartree-type preconditioning will be used
 using additional bands           35
 reciprocal scheme for non local part
 use partial core corrections
 calculate Harris-corrections to forces 
   (improved forces if not selfconsistent)
 use gradient corrections 
 use of overlap-Matrix (Vanderbilt PP)
 Gauss-broadening in eV      SIGMA  =   0.05


--------------------------------------------------------------------------------------------------------


  energy-cutoff  :      550.00
  volume of cell :     1080.99
      direct lattice vectors                 reciprocal lattice vectors
     9.976465530  0.000000000  5.759915070     0.100235900 -0.035438742  0.000000000
     3.325488510  9.405901920  5.759915070     0.000000000  0.106316227  0.000000000
     0.000000000  0.000000000 11.519830140    -0.050117950 -0.035438742  0.086806836

  length of vectors
    11.519830124 11.519830136 11.519830140     0.106316227  0.106316227  0.106316227


 
 k-points in units of 2pi/SCALE and weight: pymatgen with grid density = 1000 / numb
   0.00000000  0.00000000  0.00000000       0.016
   0.02505897 -0.00885969  0.00000000       0.094
   0.05011795 -0.01771937  0.00000000       0.047
   0.02505897  0.01771937  0.00000000       0.094
   0.05011795  0.00885969  0.00000000       0.188
  -0.02505897  0.03543874  0.00000000       0.094
   0.05011795  0.03543874  0.00000000       0.047
   0.01252949  0.00885969  0.02170171       0.031
   0.03758846  0.00000000  0.02170171       0.094
  -0.03758846  0.02657906  0.02170171       0.094
   0.03758846  0.02657906  0.02170171       0.094
  -0.03758846  0.05315811  0.02170171       0.094
   0.02505897  0.01771937  0.04340342       0.016
 
 k-points in reciprocal lattice and weights: pymatgen with grid density = 1000 / numb
   0.00000000  0.00000000  0.00000000       0.016
   0.25000000  0.00000000  0.00000000       0.094
   0.50000000  0.00000000  0.00000000       0.047
   0.25000000  0.25000000  0.00000000       0.094
   0.50000000  0.25000000  0.00000000       0.188
  -0.25000000  0.25000000  0.00000000       0.094
   0.50000000  0.50000000  0.00000000       0.047
   0.25000000  0.25000000  0.25000000       0.031
   0.50000000  0.25000000  0.25000000       0.094
  -0.25000000  0.25000000  0.25000000       0.094
   0.50000000  0.50000000  0.25000000       0.094
  -0.25000000  0.50000000  0.25000000       0.094
   0.50000000  0.50000000  0.50000000       0.016
 
 position of ions in fractional coordinates (direct lattice) 
   0.29166667  0.29166667  0.62500000
   0.29166667  0.29166667  0.95833333
   0.29166667  0.62500000  0.29166667
   0.29166667  0.62500000  0.62500000
   0.29166667  0.62500000  0.95833333
   0.29166667  0.95833333  0.29166667
   0.29166667  0.95833333  0.62500000
   0.29166667  0.95833333  0.95833333
   0.62500000  0.29166667  0.29166667
   0.62500000  0.29166667  0.62500000
   0.62500000  0.29166667  0.95833333
   0.62500000  0.62500000  0.29166667
   0.62500000  0.62500000  0.62500000
   0.62500000  0.62500000  0.95833333
   0.62500000  0.95833333  0.29166667
   0.62500000  0.95833333  0.62500000
   0.62500000  0.95833333  0.95833333
   0.95833333  0.29166667  0.29166667
   0.95833333  0.29166667  0.62500000
   0.95833333  0.29166667  0.95833333
   0.95833333  0.62500000  0.29166667
   0.95833333  0.62500000  0.62500000
   0.95833333  0.62500000  0.95833333
   0.95833333  0.95833333  0.29166667
   0.95833333  0.95833333  0.62500000
   0.95833333  0.95833333  0.95833333
   0.04166667  0.04166667  0.04166667
   0.04166667  0.04166667  0.37500000
   0.04166667  0.04166667  0.70833333
   0.04166667  0.37500000  0.04166667
   0.04166667  0.37500000  0.37500000
   0.04166667  0.37500000  0.70833333
   0.04166667  0.70833333  0.04166667
   0.04166667  0.70833333  0.37500000
   0.04166667  0.70833333  0.70833333
   0.37500000  0.04166667  0.04166667
   0.37500000  0.04166667  0.37500000
   0.37500000  0.04166667  0.70833333
   0.37500000  0.37500000  0.04166667
   0.37500000  0.37500000  0.70833333
   0.37500000  0.70833333  0.04166667
   0.37500000  0.70833333  0.37500000
   0.37500000  0.70833333  0.70833333
   0.70833333  0.04166667  0.04166667
   0.70833333  0.04166667  0.37500000
   0.70833333  0.04166667  0.70833333
   0.70833333  0.37500000  0.04166667
   0.70833333  0.37500000  0.37500000
   0.70833333  0.37500000  0.70833333
   0.70833333  0.70833333  0.04166667
   0.70833333  0.70833333  0.37500000
   0.70833333  0.70833333  0.70833333
   0.37500000  0.37500000  0.37500000
   0.29166667  0.29166667  0.29166667
 
 position of ions in cartesian coordinates  (Angst):
   3.87973659  2.74338806 10.55984429
   3.87973659  2.74338806 14.39978767
   4.98823276  5.87868870  8.63987260
   4.98823276  5.87868870 12.47981598
   4.98823276  5.87868870 16.31975937
   6.09672893  9.01398934 10.55984429
   6.09672893  9.01398934 14.39978767
   6.09672893  9.01398934 18.23973106
   7.20522510  2.74338806  8.63987260
   7.20522510  2.74338806 12.47981598
   7.20522510  2.74338806 16.31975937
   8.31372128  5.87868870 10.55984429
   8.31372128  5.87868870 14.39978767
   8.31372128  5.87868870 18.23973106
   9.42221745  9.01398934 12.47981598
   9.42221745  9.01398934 16.31975937
   9.42221745  9.01398934 20.15970275
  10.53071362  2.74338806 10.55984429
  10.53071362  2.74338806 14.39978767
  10.53071362  2.74338806 18.23973106
  11.63920979  5.87868870 12.47981598
  11.63920979  5.87868870 16.31975937
  11.63920979  5.87868870 20.15970275
  12.74770596  9.01398934 14.39978767
  12.74770596  9.01398934 18.23973106
  12.74770596  9.01398934 22.07967444
   0.55424808  0.39191258  0.95998584
   0.55424808  0.39191258  4.79992922
   0.55424808  0.39191258  8.63987260
   1.66274425  3.52721322  2.87995753
   1.66274425  3.52721322  6.71990091
   1.66274425  3.52721322 10.55984430
   2.77124042  6.66251386  4.79992922
   2.77124042  6.66251386  8.63987261
   2.77124042  6.66251386 12.47981599
   3.87973659  0.39191258  2.87995753
   3.87973659  0.39191258  6.71990091
   3.87973659  0.39191258 10.55984430
   4.98823277  3.52721322  4.79992922
   4.98823277  3.52721322 12.47981599
   6.09672894  6.66251386  6.71990091
   6.09672894  6.66251386 10.55984430
   6.09672894  6.66251386 14.39978768
   7.20522511  0.39191258  4.79992922
   7.20522511  0.39191258  8.63987261
   7.20522511  0.39191258 12.47981599
   8.31372128  3.52721322  6.71990091
   8.31372128  3.52721322 10.55984430
   8.31372128  3.52721322 14.39978768
   9.42221745  6.66251386  8.63987260
   9.42221745  6.66251386 12.47981599
   9.42221745  6.66251386 16.31975937
   4.98823277  3.52721322  8.63987261
   3.87973659  2.74338806  6.71990091
 


--------------------------------------------------------------------------------------------------------


 k-point  1 :   0.0000 0.0000 0.0000  plane waves:   31415
 k-point  2 :   0.2500 0.0000 0.0000  plane waves:   31608
 k-point  3 :   0.5000 0.0000 0.0000  plane waves:   31638
 k-point  4 :   0.2500 0.2500 0.0000  plane waves:   31695
 k-point  5 :   0.5000 0.2500 0.0000  plane waves:   31649
 k-point  6 :  -0.2500 0.2500 0.0000  plane waves:   31674
 k-point  7 :   0.5000 0.5000 0.0000  plane waves:   31716
 k-point  8 :   0.2500 0.2500 0.2500  plane waves:   31608
 k-point  9 :   0.5000 0.2500 0.2500  plane waves:   31674
 k-point 10 :  -0.2500 0.2500 0.2500  plane waves:   31649
 k-point 11 :   0.5000 0.5000 0.2500  plane waves:   31649
 k-point 12 :  -0.2500 0.5000 0.2500  plane waves:   31684
 k-point 13 :   0.5000 0.5000 0.5000  plane waves:   31638

 maximum and minimum number of plane-waves per node :     31716    31415

 maximum number of plane-waves:     31716
 maximum index in each direction: 
   IXMAX=   22   IYMAX=   22   IZMAX=   22
   IXMIN=  -22   IYMIN=  -22   IZMIN=  -22


 serial   3D FFT for wavefunctions
 parallel 3D FFT for charge:
    minimum data exchange during FFTs selected (reduces bandwidth)


 total amount of memory used by VASP MPI-rank0   203693. kBytes
=======================================================================

   base      :      30000. kBytes
   nonl-proj :     106606. kBytes
   fftplans  :       5382. kBytes
   grid      :      21405. kBytes
   one-center:        165. kBytes
   wavefun   :      40135. kBytes
 
     INWAV:  cpu time    0.0000: real time    0.0000
 Broyden mixing: mesh for mixing (old mesh)
   NGX = 45   NGY = 45   NGZ = 45
  (NGX  =140   NGY  =140   NGZ  =140)
  gives a total of  91125 points

 initial charge density was supplied:
 charge density of overlapping atoms calculated
 number of electron     216.0000000 magnetization 
 keeping initial charge density in first step


--------------------------------------------------------------------------------------------------------


 Maximum index for augmentation-charges          503 (set IRDMAX)


--------------------------------------------------------------------------------------------------------


 First call to EWALD:  gamma=   0.173
 Maximum number of real-space cells 3x 3x 3
 Maximum number of reciprocal cells 3x 3x 3

    FEWALD:  cpu time    0.0073: real time    0.0074


--------------------------------------- Iteration      1(   1)  ---------------------------------------


    POTLOK:  cpu time    0.2573: real time    0.2650
    SETDIJ:  cpu time    0.0335: real time    0.0341
     EDDAV:  cpu time    5.8822: real time    5.9382
       DOS:  cpu time    0.0065: real time    0.0079
    --------------------------------------------
      LOOP:  cpu time    6.1796: real time    6.2452

 eigenvalue-minimisations  :  3744
 total energy-change (2. order) : 0.5793998E+03  (-0.8599173E+04)
 number of electron     216.0000000 magnetization 
 augmentation part      216.0000000 magnetization 

 Free energy of the ion-electron system (eV)
  ---------------------------------------------------
  alpha Z        PSCENC =        96.03250935
  Ewald energy   TEWEN  =     -6176.92747578
  -Hartree energ DENC   =      -313.20007129
  -exchange      EXHF   =         0.00000000
  -V(xc)+E(xc)   XCENC  =      -474.92353748
  PAW double counting   =      4765.69747538    -3841.83005074
  entropy T*S    EENTRO =        -0.01570757
  eigenvalues    EBANDS =       917.89867142
  atomic energy  EATOM  =      5606.66798631
  Solvation  Ediel_sol  =         0.00000000
  ---------------------------------------------------
  free energy    TOTEN  =       579.39979959 eV

  energy without entropy =      579.41550717  energy(sigma->0) =      579.40765338


--------------------------------------------------------------------------------------------------------




--------------------------------------- Iteration      1(   2)  ---------------------------------------


     EDDAV:  cpu time    7.5103: real time    7.5907
       DOS:  cpu time    0.4908: real time    0.4975
    --------------------------------------------
      LOOP:  cpu time    8.0011: real time    8.0882

 eigenvalue-minimisations  :  4632
 total energy-change (2. order) :-0.8192690E+03  (-0.7883494E+03)
 number of electron     216.0000000 magnetization 
 augmentation part      216.0000000 magnetization 

 Free energy of the ion-electron system (eV)
  ---------------------------------------------------
  alpha Z        PSCENC =        96.03250935
  Ewald energy   TEWEN  =     -6176.92747578
  -Hartree energ DENC   =      -313.20007129
  -exchange      EXHF   =         0.00000000
  -V(xc)+E(xc)   XCENC  =      -474.92353748
  PAW double counting   =      4765.69747538    -3841.83005074
  entropy T*S    EENTRO =        -0.01156711
  eigenvalues    EBANDS =        98.62552435
  atomic energy  EATOM  =      5606.66798631
  Solvation  Ediel_sol  =         0.00000000
  ---------------------------------------------------
  free energy    TOTEN  =      -239.86920701 eV

  energy without entropy =     -239.85763991  energy(sigma->0) =     -239.86342346


--------------------------------------------------------------------------------------------------------




--------------------------------------- Iteration      1(   3)  ---------------------------------------


     EDDAV:  cpu time    7.9351: real time    8.0262
       DOS:  cpu time    0.5107: real time    0.5178
    --------------------------------------------
      LOOP:  cpu time    8.4458: real time    8.5440

 eigenvalue-minimisations  :  4656
 total energy-change (2. order) :-0.5053008E+02  (-0.4993210E+02)
 number of electron     216.0000000 magnetization 
 augmentation part      216.0000000 magnetization 

 Free energy of the ion-electron system (eV)
  ---------------------------------------------------
  alpha Z        PSCENC =        96.03250935
  Ewald energy   TEWEN  =     -6176.92747578
  -Hartree energ DENC   =      -313.20007129
  -exchange      EXHF   =         0.00000000
  -V(xc)+E(xc)   XCENC  =      -474.92353748
  PAW double counting   =      4765.69747538    -3841.83005074
  entropy T*S    EENTRO =        -0.01246580
  eigenvalues    EBANDS =        48.09634521
  atomic energy  EATOM  =      5606.66798631
  Solvation  Ediel_sol  =         0.00000000
  ---------------------------------------------------
  free energy    TOTEN  =      -290.39928484 eV

  energy without entropy =     -290.38681904  energy(sigma->0) =     -290.39305194


--------------------------------------------------------------------------------------------------------




--------------------------------------- Iteration      1(   4)  ---------------------------------------


     EDDAV:  cpu time    8.0854: real time    8.1622
       DOS:  cpu time    0.0040: real time    0.0040
    --------------------------------------------
      LOOP:  cpu time    8.0894: real time    8.1662

 eigenvalue-minimisations  :  4776
 total energy-change (2. order) :-0.1087780E+01  (-0.1082169E+01)
 number of electron     216.0000000 magnetization 
 augmentation part      216.0000000 magnetization 

 Free energy of the ion-electron system (eV)
  ---------------------------------------------------
  alpha Z        PSCENC =        96.03250935
  Ewald energy   TEWEN  =     -6176.92747578
  -Hartree energ DENC   =      -313.20007129
  -exchange      EXHF   =         0.00000000
  -V(xc)+E(xc)   XCENC  =      -474.92353748
  PAW double counting   =      4765.69747538    -3841.83005074
  entropy T*S    EENTRO =        -0.01329861
  eigenvalues    EBANDS =        47.00939820
  atomic energy  EATOM  =      5606.66798631
  Solvation  Ediel_sol  =         0.00000000
  ---------------------------------------------------
  free energy    TOTEN  =      -291.48706467 eV

  energy without entropy =     -291.47376605  energy(sigma->0) =     -291.48041536


--------------------------------------------------------------------------------------------------------




--------------------------------------- Iteration      1(   5)  ---------------------------------------


     EDDAV:  cpu time    6.9993: real time    7.0680
       DOS:  cpu time    0.4965: real time    0.5037
    CHARGE:  cpu time    0.2202: real time    0.2224
    MIXING:  cpu time    0.0040: real time    0.0059
    --------------------------------------------
      LOOP:  cpu time    7.7200: real time    7.8000

 eigenvalue-minimisations  :  4560
 total energy-change (2. order) :-0.2243885E-01  (-0.2242292E-01)
 number of electron     217.0000000 magnetization 
 augmentation part      -12.7856380 magnetization 

 Broyden mixing:
  rms(total) = 0.25223E+01    rms(broyden)= 0.25222E+01
  rms(prec ) = 0.29102E+01
  weight for this iteration     100.00

 Free energy of the ion-electron system (eV)
  ---------------------------------------------------
  alpha Z        PSCENC =        96.03250935
  Ewald energy   TEWEN  =     -6176.92747578
  -Hartree energ DENC   =      -313.20007129
  -exchange      EXHF   =         0.00000000
  -V(xc)+E(xc)   XCENC  =      -474.92353748
  PAW double counting   =      4765.69747538    -3841.83005074
  entropy T*S    EENTRO =        -0.01331216
  eigenvalues    EBANDS =        46.98697291
  atomic energy  EATOM  =      5606.66798631
  Solvation  Ediel_sol  =         0.00000000
  ---------------------------------------------------
  free energy    TOTEN  =      -291.50950351 eV

  energy without entropy =     -291.49619135  energy(sigma->0) =     -291.50284743


--------------------------------------------------------------------------------------------------------




--------------------------------------- Iteration      1(   6)  ---------------------------------------


    POTLOK:  cpu time    0.0833: real time    0.0842
    SETDIJ:  cpu time    0.0056: real time    0.0056
     EDDAV:  cpu time    7.1739: real time    7.2552
       DOS:  cpu time    0.6400: real time    0.6488
    CHARGE:  cpu time    0.3008: real time    0.3038
    MIXING:  cpu time    0.0430: real time    0.0436
    --------------------------------------------
      LOOP:  cpu time    8.2466: real time    8.3413

 eigenvalue-minimisations  :  5016
 total energy-change (2. order) : 0.2284188E+01  (-0.8690349E-01)
 number of electron     217.0000000 magnetization 
 augmentation part      -12.7250398 magnetization 

 Broyden mixing:
  rms(total) = 0.20319E+01    rms(broyden)= 0.20319E+01
  rms(prec ) = 0.23249E+01
  weight for this iteration     100.00

 eigenvalues of (default mixing * dielectric matrix)
  average eigenvalue GAMMA=   5.0452
  5.0452

 Free energy of the ion-electron system (eV)
  ---------------------------------------------------
  alpha Z        PSCENC =        96.03250935
  Ewald energy   TEWEN  =     -6176.92747578
  -Hartree energ DENC   =      -332.32826514
  -exchange      EXHF   =         0.00000000
  -V(xc)+E(xc)   XCENC  =      -469.09773426
  PAW double counting   =      7147.85205317    -6225.41561952
  entropy T*S    EENTRO =        -0.01361465
  eigenvalues    EBANDS =        64.00484521
  atomic energy  EATOM  =      5606.66798631
  Solvation  Ediel_sol  =         0.00000000
  ---------------------------------------------------
  free energy    TOTEN  =      -289.22531530 eV

  energy without entropy =     -289.21170065  energy(sigma->0) =     -289.21850797


--------------------------------------------------------------------------------------------------------




--------------------------------------- Iteration      1(   7)  ---------------------------------------


    POTLOK:  cpu time    0.0756: real time    0.0786
    SETDIJ:  cpu time    0.5775: real time    0.5840
     EDDAV:  cpu time    7.1096: real time    7.1659
       DOS:  cpu time    0.0055: real time    0.0055
    CHARGE:  cpu time    0.2167: real time    0.2181
    MIXING:  cpu time    0.0048: real time    0.0048
    --------------------------------------------
      LOOP:  cpu time    7.9896: real time    8.0569

 eigenvalue-minimisations  :  4608
 total energy-change (2. order) : 0.2948091E+01  (-0.8486843E+00)
 number of electron     217.0000000 magnetization 
 augmentation part      -12.5039033 magnetization 

 Broyden mixing:
  rms(total) = 0.24744E+00    rms(broyden)= 0.24744E+00
  rms(prec ) = 0.36068E+00
  weight for this iteration     100.00

 eigenvalues of (default mixing * dielectric matrix)
  average eigenvalue GAMMA=   3.3755
  1.8045  4.9466

 Free energy of the ion-electron system (eV)
  ---------------------------------------------------
  alpha Z        PSCENC =        96.03250935
  Ewald energy   TEWEN  =     -6176.92747578
  -Hartree energ DENC   =      -414.31095134
  -exchange      EXHF   =         0.00000000
  -V(xc)+E(xc)   XCENC  =      -456.08696393
  PAW double counting   =     21888.12619978   -20970.97980929
  entropy T*S    EENTRO =        -0.01328086
  eigenvalues    EBANDS =       141.21456150
  atomic energy  EATOM  =      5606.66798631
  Solvation  Ediel_sol  =         0.00000000
  ---------------------------------------------------
  free energy    TOTEN  =      -286.27722428 eV

  energy without entropy =     -286.26394341  energy(sigma->0) =     -286.27058384


--------------------------------------------------------------------------------------------------------




--------------------------------------- Iteration      1(   8)  ---------------------------------------


    POTLOK:  cpu time    0.0760: real time    0.0771
    SETDIJ:  cpu time    0.0399: real time    0.0402
     EDDAV:  cpu time    7.0185: real time    7.0757
       DOS:  cpu time    0.0062: real time    0.0063
    CHARGE:  cpu time    0.2176: real time    0.2191
    MIXING:  cpu time    0.0055: real time    0.0056
    --------------------------------------------
      LOOP:  cpu time    7.3639: real time    7.4239

 eigenvalue-minimisations  :  4872
 total energy-change (2. order) : 0.5901571E-01  (-0.1043407E+00)
 number of electron     217.0000000 magnetization 
 augmentation part      -12.4849525 magnetization 

 Broyden mixing:
  rms(total) = 0.13294E+00    rms(broyden)= 0.13294E+00
  rms(prec ) = 0.15854E+00
  weight for this iteration     100.00

 eigenvalues of (default mixing * dielectric matrix)
  average eigenvalue GAMMA=   2.4351
  4.9772  1.7830  0.5450

 Free energy of the ion-electron system (eV)
  ---------------------------------------------------
  alpha Z        PSCENC =        96.03250935
  Ewald energy   TEWEN  =     -6176.92747578
  -Hartree energ DENC   =      -416.86572312
  -exchange      EXHF   =         0.00000000
  -V(xc)+E(xc)   XCENC  =      -455.50547334
  PAW double counting   =     22994.32340323   -22076.96230646
  entropy T*S    EENTRO =        -0.01353784
  eigenvalues    EBANDS =       143.03240910
  atomic energy  EATOM  =      5606.66798631
  Solvation  Ediel_sol  =         0.00000000
  ---------------------------------------------------
  free energy    TOTEN  =      -286.21820856 eV

  energy without entropy =     -286.20467072  energy(sigma->0) =     -286.21143964


--------------------------------------------------------------------------------------------------------




--------------------------------------- Iteration      1(   9)  ---------------------------------------


    POTLOK:  cpu time    0.0867: real time    0.0877
    SETDIJ:  cpu time    0.0039: real time    0.0040
     EDDAV:  cpu time    7.0286: real time    7.0854
       DOS:  cpu time    0.0061: real time    0.0062
    CHARGE:  cpu time    0.2171: real time    0.2185
    MIXING:  cpu time    0.0037: real time    0.0038
    --------------------------------------------
      LOOP:  cpu time    7.3462: real time    7.4054

 eigenvalue-minimisations  :  4800
 total energy-change (2. order) :-0.9872013E-02  (-0.1326310E-01)
 number of electron     217.0000000 magnetization 
 augmentation part      -12.4849328 magnetization 

 Broyden mixing:
  rms(total) = 0.94897E-01    rms(broyden)= 0.94897E-01
  rms(prec ) = 0.11402E+00
  weight for this iteration     100.00

 eigenvalues of (default mixing * dielectric matrix)
  average eigenvalue GAMMA=   2.2612
  4.8656  2.0050  1.0870  1.0870

 Free energy of the ion-electron system (eV)
  ---------------------------------------------------
  alpha Z        PSCENC =        96.03250935
  Ewald energy   TEWEN  =     -6176.92747578
  -Hartree energ DENC   =      -416.98401338
  -exchange      EXHF   =         0.00000000
  -V(xc)+E(xc)   XCENC  =      -455.43403404
  PAW double counting   =     23144.10508157   -22226.64915538
  entropy T*S    EENTRO =        -0.01346957
  eigenvalues    EBANDS =       142.97449035
  atomic energy  EATOM  =      5606.66798631
  Solvation  Ediel_sol  =         0.00000000
  ---------------------------------------------------
  free energy    TOTEN  =      -286.22808057 eV

  energy without entropy =     -286.21461100  energy(sigma->0) =     -286.22134579


--------------------------------------------------------------------------------------------------------




--------------------------------------- Iteration      1(  10)  ---------------------------------------


    POTLOK:  cpu time    0.0877: real time    0.0887
    SETDIJ:  cpu time    0.0040: real time    0.0040
     EDDAV:  cpu time    6.6554: real time    6.7105
       DOS:  cpu time    0.0063: real time    0.0063
    CHARGE:  cpu time    0.2222: real time    0.2238
    MIXING:  cpu time    0.0039: real time    0.0039
    --------------------------------------------
      LOOP:  cpu time    6.9794: real time    7.0371

 eigenvalue-minimisations  :  4584
 total energy-change (2. order) :-0.1726407E-02  (-0.1526488E-02)
 number of electron     217.0000000 magnetization 
 augmentation part      -12.4891313 magnetization 

 Broyden mixing:
  rms(total) = 0.63594E-01    rms(broyden)= 0.63594E-01
  rms(prec ) = 0.76757E-01
  weight for this iteration     100.00

 eigenvalues of (default mixing * dielectric matrix)
  average eigenvalue GAMMA=   2.6069
  4.6325  4.6325  1.8990  0.9353  0.9353

 Free energy of the ion-electron system (eV)
  ---------------------------------------------------
  alpha Z        PSCENC =        96.03250935
  Ewald energy   TEWEN  =     -6176.92747578
  -Hartree energ DENC   =      -416.26646957
  -exchange      EXHF   =         0.00000000
  -V(xc)+E(xc)   XCENC  =      -455.47720813
  PAW double counting   =     23073.14519595   -22155.52049008
  entropy T*S    EENTRO =        -0.01357785
  eigenvalues    EBANDS =       142.12972282
  atomic energy  EATOM  =      5606.66798631
  Solvation  Ediel_sol  =         0.00000000
  ---------------------------------------------------
  free energy    TOTEN  =      -286.22980698 eV

  energy without entropy =     -286.21622914  energy(sigma->0) =     -286.22301806


--------------------------------------------------------------------------------------------------------




--------------------------------------- Iteration      1(  11)  ---------------------------------------


    POTLOK:  cpu time    0.0882: real time    0.0892
    SETDIJ:  cpu time    0.0038: real time    0.0038
     EDDAV:  cpu time    6.7511: real time    6.8056
       DOS:  cpu time    0.0042: real time    0.0042
    CHARGE:  cpu time    0.2185: real time    0.2199
    MIXING:  cpu time    0.0044: real time    0.0045
    --------------------------------------------
      LOOP:  cpu time    7.0702: real time    7.1272

 eigenvalue-minimisations  :  4632
 total energy-change (2. order) :-0.8013673E-02  (-0.2931722E-02)
 number of electron     217.0000000 magnetization 
 augmentation part      -12.4992841 magnetization 

 Broyden mixing:
  rms(total) = 0.23311E-01    rms(broyden)= 0.23311E-01
  rms(prec ) = 0.30077E-01
  weight for this iteration     100.00

 eigenvalues of (default mixing * dielectric matrix)
  average eigenvalue GAMMA=   2.3595
  4.5601  4.5601  2.1126  1.0483  1.0483  0.8275

 Free energy of the ion-electron system (eV)
  ---------------------------------------------------
  alpha Z        PSCENC =        96.03250935
  Ewald energy   TEWEN  =     -6176.92747578
  -Hartree energ DENC   =      -415.65574976
  -exchange      EXHF   =         0.00000000
  -V(xc)+E(xc)   XCENC  =      -455.42414668
  PAW double counting   =     23143.25977044   -22225.31595830
  entropy T*S    EENTRO =        -0.01357925
  eigenvalues    EBANDS =       141.13882303
  atomic energy  EATOM  =      5606.66798631
  Solvation  Ediel_sol  =         0.00000000
  ---------------------------------------------------
  free energy    TOTEN  =      -286.23782065 eV

  energy without entropy =     -286.22424140  energy(sigma->0) =     -286.23103103


--------------------------------------------------------------------------------------------------------




--------------------------------------- Iteration      1(  12)  ---------------------------------------


    POTLOK:  cpu time    0.0877: real time    0.0887
    SETDIJ:  cpu time    0.0043: real time    0.0043
     EDDAV:  cpu time    6.7882: real time    6.8417
       DOS:  cpu time    0.0038: real time    0.0038
    CHARGE:  cpu time    0.2168: real time    0.2183
    MIXING:  cpu time    0.0045: real time    0.0045
    --------------------------------------------
      LOOP:  cpu time    7.1053: real time    7.1613

 eigenvalue-minimisations  :  4536
 total energy-change (2. order) :-0.6574352E-03  (-0.4548850E-03)
 number of electron     217.0000000 magnetization 
 augmentation part      -12.5000813 magnetization 

 Broyden mixing:
  rms(total) = 0.20610E-01    rms(broyden)= 0.20610E-01
  rms(prec ) = 0.23703E-01
  weight for this iteration     100.00

 eigenvalues of (default mixing * dielectric matrix)
  average eigenvalue GAMMA=   2.2409
  4.6834  4.6834  2.2606  1.2540  1.2540  0.7753  0.7753

 Free energy of the ion-electron system (eV)
  ---------------------------------------------------
  alpha Z        PSCENC =        96.03250935
  Ewald energy   TEWEN  =     -6176.92747578
  -Hartree energ DENC   =      -415.78407694
  -exchange      EXHF   =         0.00000000
  -V(xc)+E(xc)   XCENC  =      -455.40470419
  PAW double counting   =     23079.49973172   -22161.54695640
  entropy T*S    EENTRO =        -0.01357830
  eigenvalues    EBANDS =       141.23808615
  atomic energy  EATOM  =      5606.66798631
  Solvation  Ediel_sol  =         0.00000000
  ---------------------------------------------------
  free energy    TOTEN  =      -286.23847809 eV

  energy without entropy =     -286.22489979  energy(sigma->0) =     -286.23168894


--------------------------------------------------------------------------------------------------------




--------------------------------------- Iteration      1(  13)  ---------------------------------------


    POTLOK:  cpu time    0.0883: real time    0.0893
    SETDIJ:  cpu time    0.0037: real time    0.0038
     EDDAV:  cpu time    7.1975: real time    7.2619
       DOS:  cpu time    0.0047: real time    0.0047
    CHARGE:  cpu time    0.2194: real time    0.2211
    MIXING:  cpu time    0.0057: real time    0.0058
    --------------------------------------------
      LOOP:  cpu time    7.5194: real time    7.5866

 eigenvalue-minimisations  :  4752
 total energy-change (2. order) :-0.7633179E-03  (-0.8664961E-04)
 number of electron     217.0000000 magnetization 
 augmentation part      -12.5015176 magnetization 

 Broyden mixing:
  rms(total) = 0.16136E-01    rms(broyden)= 0.16136E-01
  rms(prec ) = 0.17972E-01
  weight for this iteration     100.00

 eigenvalues of (default mixing * dielectric matrix)
  average eigenvalue GAMMA=   2.4216
  5.1855  5.1855  2.2494  2.2494  1.7201  0.9726  0.9726  0.8377

 Free energy of the ion-electron system (eV)
  ---------------------------------------------------
  alpha Z        PSCENC =        96.03250935
  Ewald energy   TEWEN  =     -6176.92747578
  -Hartree energ DENC   =      -415.89305958
  -exchange      EXHF   =         0.00000000
  -V(xc)+E(xc)   XCENC  =      -455.37715989
  PAW double counting   =     23051.65632204   -22133.67840605
  entropy T*S    EENTRO =        -0.01358879
  eigenvalues    EBANDS =       141.29363099
  atomic energy  EATOM  =      5606.66798631
  Solvation  Ediel_sol  =         0.00000000
  ---------------------------------------------------
  free energy    TOTEN  =      -286.23924141 eV

  energy without entropy =     -286.22565262  energy(sigma->0) =     -286.23244701


--------------------------------------------------------------------------------------------------------




--------------------------------------- Iteration      1(  14)  ---------------------------------------


    POTLOK:  cpu time    0.0799: real time    0.0819
    SETDIJ:  cpu time    0.0069: real time    0.0070
     EDDAV:  cpu time    6.7756: real time    6.8424
       DOS:  cpu time    0.0039: real time    0.0039
    CHARGE:  cpu time    0.2177: real time    0.2192
    MIXING:  cpu time    0.0048: real time    0.0048
    --------------------------------------------
      LOOP:  cpu time    7.0888: real time    7.1591

 eigenvalue-minimisations  :  4656
 total energy-change (2. order) :-0.6824784E-03  (-0.8417071E-04)
 number of electron     217.0000000 magnetization 
 augmentation part      -12.5020808 magnetization 

 Broyden mixing:
  rms(total) = 0.79208E-02    rms(broyden)= 0.79208E-02
  rms(prec ) = 0.95753E-02
  weight for this iteration     100.00

 eigenvalues of (default mixing * dielectric matrix)
  average eigenvalue GAMMA=   2.3964
  5.5350  4.7025  2.9079  2.9079  1.6508  1.0844  1.0844  0.8474  0.8474

 Free energy of the ion-electron system (eV)
  ---------------------------------------------------
  alpha Z        PSCENC =        96.03250935
  Ewald energy   TEWEN  =     -6176.92747578
  -Hartree energ DENC   =      -416.01903019
  -exchange      EXHF   =         0.00000000
  -V(xc)+E(xc)   XCENC  =      -455.34327730
  PAW double counting   =     23003.70084491   -22085.68317201
  entropy T*S    EENTRO =        -0.01359376
  eigenvalues    EBANDS =       141.34528459
  atomic energy  EATOM  =      5606.66798631
  Solvation  Ediel_sol  =         0.00000000
  ---------------------------------------------------
  free energy    TOTEN  =      -286.23992389 eV

  energy without entropy =     -286.22633013  energy(sigma->0) =     -286.23312701


--------------------------------------------------------------------------------------------------------




--------------------------------------- Iteration      1(  15)  ---------------------------------------


    POTLOK:  cpu time    0.0880: real time    0.0892
    SETDIJ:  cpu time    0.0038: real time    0.0038
     EDDAV:  cpu time    7.3611: real time    7.4230
       DOS:  cpu time    0.0039: real time    0.0039
    CHARGE:  cpu time    0.2179: real time    0.2194
    MIXING:  cpu time    0.0048: real time    0.0049
    --------------------------------------------
      LOOP:  cpu time    7.6797: real time    7.7443

 eigenvalue-minimisations  :  4992
 total energy-change (2. order) :-0.4967097E-04  (-0.3102467E-04)
 number of electron     217.0000000 magnetization 
 augmentation part      -12.5014051 magnetization 

 Broyden mixing:
  rms(total) = 0.39379E-02    rms(broyden)= 0.39379E-02
  rms(prec ) = 0.44862E-02
  weight for this iteration     100.00

 eigenvalues of (default mixing * dielectric matrix)
  average eigenvalue GAMMA=   2.2947
  5.6160  4.8250  3.3398  2.7211  1.5459  1.1631  1.1631  0.8993  0.8993  0.7741

 Free energy of the ion-electron system (eV)
  ---------------------------------------------------
  alpha Z        PSCENC =        96.03250935
  Ewald energy   TEWEN  =     -6176.92747578
  -Hartree energ DENC   =      -416.36990963
  -exchange      EXHF   =         0.00000000
  -V(xc)+E(xc)   XCENC  =      -455.29586095
  PAW double counting   =     22990.18420526   -22072.18357828
  entropy T*S    EENTRO =        -0.01359776
  eigenvalues    EBANDS =       141.66574792
  atomic energy  EATOM  =      5606.66798631
  Solvation  Ediel_sol  =         0.00000000
  ---------------------------------------------------
  free energy    TOTEN  =      -286.23997356 eV

  energy without entropy =     -286.22637580  energy(sigma->0) =     -286.23317468


--------------------------------------------------------------------------------------------------------




--------------------------------------- Iteration      1(  16)  ---------------------------------------


    POTLOK:  cpu time    0.0876: real time    0.0888
    SETDIJ:  cpu time    0.0039: real time    0.0040
     EDDAV:  cpu time    6.7536: real time    6.8088
       DOS:  cpu time    0.0036: real time    0.0036
    CHARGE:  cpu time    0.2193: real time    0.2208
    MIXING:  cpu time    0.0053: real time    0.0053
    --------------------------------------------
      LOOP:  cpu time    7.0734: real time    7.1313

 eigenvalue-minimisations  :  4632
 total energy-change (2. order) :-0.9785170E-05  (-0.5769294E-05)
 number of electron     217.0000000 magnetization 
 augmentation part      -12.5013933 magnetization 

 Broyden mixing:
  rms(total) = 0.33032E-02    rms(broyden)= 0.33032E-02
  rms(prec ) = 0.36634E-02
  weight for this iteration     100.00

 eigenvalues of (default mixing * dielectric matrix)
  average eigenvalue GAMMA=   2.2628
  5.7521  4.8170  2.8809  2.8809  1.6451  1.6451  1.2312  1.2312  1.0732  0.8670
  0.8670

 Free energy of the ion-electron system (eV)
  ---------------------------------------------------
  alpha Z        PSCENC =        96.03250935
  Ewald energy   TEWEN  =     -6176.92747578
  -Hartree energ DENC   =      -416.39557372
  -exchange      EXHF   =         0.00000000
  -V(xc)+E(xc)   XCENC  =      -455.29426382
  PAW double counting   =     22978.55047417   -22060.55043971
  entropy T*S    EENTRO =        -0.01359636
  eigenvalues    EBANDS =       141.69039623
  atomic energy  EATOM  =      5606.66798631
  Solvation  Ediel_sol  =         0.00000000
  ---------------------------------------------------
  free energy    TOTEN  =      -286.23998334 eV

  energy without entropy =     -286.22638698  energy(sigma->0) =     -286.23318516


--------------------------------------------------------------------------------------------------------




--------------------------------------- Iteration      1(  17)  ---------------------------------------


    POTLOK:  cpu time    0.0874: real time    0.0885
    SETDIJ:  cpu time    0.0050: real time    0.0050
     EDDAV:  cpu time    6.9699: real time    7.0270
       DOS:  cpu time    0.0037: real time    0.0038
    CHARGE:  cpu time    0.2181: real time    0.2196
    MIXING:  cpu time    0.0054: real time    0.0054
    --------------------------------------------
      LOOP:  cpu time    7.2896: real time    7.3493

 eigenvalue-minimisations  :  4728
 total energy-change (2. order) : 0.1688437E-05  (-0.1078980E-05)
 number of electron     217.0000000 magnetization 
 augmentation part      -12.5014350 magnetization 

 Broyden mixing:
  rms(total) = 0.23689E-02    rms(broyden)= 0.23689E-02
  rms(prec ) = 0.25769E-02
  weight for this iteration     100.00

 eigenvalues of (default mixing * dielectric matrix)
  average eigenvalue GAMMA=   2.3629
  5.7059  4.8744  3.4788  3.4788  2.2730  2.2730  1.2665  1.2665  1.0702  0.8850
  0.8917  0.8917

 Free energy of the ion-electron system (eV)
  ---------------------------------------------------
  alpha Z        PSCENC =        96.03250935
  Ewald energy   TEWEN  =     -6176.92747578
  -Hartree energ DENC   =      -416.40444768
  -exchange      EXHF   =         0.00000000
  -V(xc)+E(xc)   XCENC  =      -455.29313238
  PAW double counting   =     22979.63609745   -22061.63481912
  entropy T*S    EENTRO =        -0.01359574
  eigenvalues    EBANDS =       141.69689594
  atomic energy  EATOM  =      5606.66798631
  Solvation  Ediel_sol  =         0.00000000
  ---------------------------------------------------
  free energy    TOTEN  =      -286.23998165 eV

  energy without entropy =     -286.22638591  energy(sigma->0) =     -286.23318378


--------------------------------------------------------------------------------------------------------




--------------------------------------- Iteration      1(  18)  ---------------------------------------


    POTLOK:  cpu time    0.0873: real time    0.0884
    SETDIJ:  cpu time    0.0050: real time    0.0050
     EDDAV:  cpu time    6.9162: real time    6.9722
       DOS:  cpu time    0.0038: real time    0.0038
    CHARGE:  cpu time    0.2165: real time    0.2179
    MIXING:  cpu time    0.0055: real time    0.0056
    --------------------------------------------
      LOOP:  cpu time    7.2343: real time    7.2929

 eigenvalue-minimisations  :  4680
 total energy-change (2. order) :-0.4143563E-05  (-0.7767088E-06)
 number of electron     217.0000000 magnetization 
 augmentation part      -12.5012898 magnetization 

 Broyden mixing:
  rms(total) = 0.10980E-02    rms(broyden)= 0.10980E-02
  rms(prec ) = 0.11941E-02
  weight for this iteration     100.00

 eigenvalues of (default mixing * dielectric matrix)
  average eigenvalue GAMMA=   2.3277
  6.1392  5.0067  3.5897  3.5897  2.1817  2.1817  1.4219  1.4219  1.0525  1.0525
  0.8991  0.8620  0.8620

 Free energy of the ion-electron system (eV)
  ---------------------------------------------------
  alpha Z        PSCENC =        96.03250935
  Ewald energy   TEWEN  =     -6176.92747578
  -Hartree energ DENC   =      -416.43046965
  -exchange      EXHF   =         0.00000000
  -V(xc)+E(xc)   XCENC  =      -455.29166019
  PAW double counting   =     22974.18841907   -22056.18959679
  entropy T*S    EENTRO =        -0.01359691
  eigenvalues    EBANDS =       141.72389880
  atomic energy  EATOM  =      5606.66798631
  Solvation  Ediel_sol  =         0.00000000
  ---------------------------------------------------
  free energy    TOTEN  =      -286.23998580 eV

  energy without entropy =     -286.22638889  energy(sigma->0) =     -286.23318734


--------------------------------------------------------------------------------------------------------




--------------------------------------- Iteration      1(  19)  ---------------------------------------


    POTLOK:  cpu time    0.0875: real time    0.0886
    SETDIJ:  cpu time    0.0052: real time    0.0052
     EDDAV:  cpu time    6.5338: real time    6.5893
       DOS:  cpu time    0.0039: real time    0.0039
    CHARGE:  cpu time    0.2165: real time    0.2180
    MIXING:  cpu time    0.0057: real time    0.0057
    --------------------------------------------
      LOOP:  cpu time    6.8526: real time    6.9108

 eigenvalue-minimisations  :  4224
 total energy-change (2. order) :-0.1891327E-05  (-0.3386229E-06)
 number of electron     217.0000000 magnetization 
 augmentation part      -12.5012291 magnetization 

 Broyden mixing:
  rms(total) = 0.47530E-03    rms(broyden)= 0.47530E-03
  rms(prec ) = 0.52386E-03
  weight for this iteration     100.00

 eigenvalues of (default mixing * dielectric matrix)
  average eigenvalue GAMMA=   2.2697
  6.0790  5.0142  3.5435  3.5435  2.0866  2.0866  1.8394  1.8394  1.1137  1.1137
  0.8830  0.8830  0.8749  0.8749

 Free energy of the ion-electron system (eV)
  ---------------------------------------------------
  alpha Z        PSCENC =        96.03250935
  Ewald energy   TEWEN  =     -6176.92747578
  -Hartree energ DENC   =      -416.44851714
  -exchange      EXHF   =         0.00000000
  -V(xc)+E(xc)   XCENC  =      -455.29032665
  PAW double counting   =     22966.99893164   -22049.00044183
  entropy T*S    EENTRO =        -0.01359739
  eigenvalues    EBANDS =       141.74094380
  atomic energy  EATOM  =      5606.66798631
  Solvation  Ediel_sol  =         0.00000000
  ---------------------------------------------------
  free energy    TOTEN  =      -286.23998769 eV

  energy without entropy =     -286.22639030  energy(sigma->0) =     -286.23318899


--------------------------------------------------------------------------------------------------------




--------------------------------------- Iteration      1(  20)  ---------------------------------------


    POTLOK:  cpu time    0.0880: real time    0.0891
    SETDIJ:  cpu time    0.0038: real time    0.0038
     EDDAV:  cpu time    4.8412: real time    4.8803
       DOS:  cpu time    0.0038: real time    0.0038
    --------------------------------------------
      LOOP:  cpu time    4.9367: real time    4.9769

 eigenvalue-minimisations  :  2808
 total energy-change (2. order) :-0.2892193E-08  (-0.3618356E-07)
 number of electron     217.0000000 magnetization 
 augmentation part      -12.5012291 magnetization 

 Free energy of the ion-electron system (eV)
  ---------------------------------------------------
  alpha Z        PSCENC =        96.03250935
  Ewald energy   TEWEN  =     -6176.92747578
  -Hartree energ DENC   =      -416.44830875
  -exchange      EXHF   =         0.00000000
  -V(xc)+E(xc)   XCENC  =      -455.29040080
  PAW double counting   =     22967.55293580   -22049.55444510
  entropy T*S    EENTRO =        -0.01359767
  eigenvalues    EBANDS =       141.74080895
  atomic energy  EATOM  =      5606.66798631
  Solvation  Ediel_sol  =         0.00000000
  ---------------------------------------------------
  free energy    TOTEN  =      -286.23998769 eV

  energy without entropy =     -286.22639002  energy(sigma->0) =     -286.23318885


--------------------------------------------------------------------------------------------------------




 average (electrostatic) potential at core
  the test charge radii are     0.9892  0.7672  0.9587
  (the norm of the test charge is              1.0000)
       1 -83.2103       2 -83.4152       3 -83.2103       4 -83.3660       5 -83.4578
       6 -83.4152       7 -83.4578       8 -83.3095       9 -83.2103      10 -83.3660
      11 -83.4578      12 -83.3660      13 -83.4097      14 -83.3331      15 -83.4578
      16 -83.3331      17 -83.3830      18 -83.4152      19 -83.4578      20 -83.3095
      21 -83.4578      22 -83.3331      23 -83.3830      24 -83.3095      25 -83.3830
      26 -83.4069      27 -83.3454      28 -83.3947      29 -83.4125      30 -83.3947
      31 -83.8036      32 -83.2779      33 -83.4125      34 -83.2779      35 -83.3778
      36 -83.3947      37 -83.8036      38 -83.2779      39 -83.8036      40 -83.3627
      41 -83.2779      42 -83.3627      43 -83.4564      44 -83.4125      45 -83.2779
      46 -83.3778      47 -83.2779      48 -83.3627      49 -83.4564      50 -83.3778
      51 -83.4564      52 -83.3394      53 -27.1857      54 -83.4699
 
 
 
 E-fermi :   6.4674     XC(G=0):  -9.4117     alpha+bet :-11.8465


 k-point     1 :       0.0000    0.0000    0.0000
  band No.  band energies     occupation 
      1      -6.4863      2.00000
      2      -5.8313      2.00000
      3      -4.9295      2.00000
      4      -4.9295      2.00000
      5      -4.9158      2.00000
      6      -4.8695      2.00000
      7      -4.8605      2.00000
      8      -4.8605      2.00000
      9      -4.7328      2.00000
     10      -4.5478      2.00000
     11      -4.3768      2.00000
     12      -4.3768      2.00000
     13      -4.3250      2.00000
     14      -4.3250      2.00000
     15      -4.1426      2.00000
     16      -3.4860      2.00000
     17      -3.0935      2.00000
     18      -3.0935      2.00000
     19      -3.0047      2.00000
     20      -3.0047      2.00000
     21      -2.9988      2.00000
     22      -2.9946      2.00000
     23      -2.9918      2.00000
     24      -2.9918      2.00000
     25      -2.8839      2.00000
     26      -2.8839      2.00000
     27      -2.5251      2.00000
     28      -1.3968      2.00000
     29      -1.1993      2.00000
     30      -1.1993      2.00000
     31      -1.0805      2.00000
     32      -1.0805      2.00000
     33      -1.0692      2.00000
     34      -1.0647      2.00000
     35      -1.0617      2.00000
     36      -1.0617      2.00000
     37      -0.9372      2.00000
     38      -0.9372      2.00000
     39      -0.7104      2.00000
     40       0.2128      2.00000
     41       0.2597      2.00000
     42       0.2597      2.00000
     43       0.3329      2.00000
     44       0.3913      2.00000
     45       0.4060      2.00000
     46       0.4060      2.00000
     47       0.4259      2.00000
     48       0.6054      2.00000
     49       0.6611      2.00000
     50       0.6611      2.00000
     51       0.7588      2.00000
     52       0.7588      2.00000
     53       0.8250      2.00000
     54       1.1143      2.00000
     55       1.1143      2.00000
     56       1.2736      2.00000
     57       1.2739      2.00000
     58       1.2800      2.00000
     59       1.2800      2.00000
     60       1.2827      2.00000
     61       1.2982      2.00000
     62       1.2982      2.00000
     63       1.3799      2.00000
     64       1.4958      2.00000
     65       1.4958      2.00000
     66       2.9179      2.00000
     67       2.9179      2.00000
     68       3.2102      2.00000
     69       3.2498      2.00000
     70       3.2518      2.00000
     71       3.2518      2.00000
     72       3.2852      2.00000
     73       3.3062      2.00000
     74       3.3062      2.00000
     75       3.3311      2.00000
     76       3.3525      2.00000
     77       3.3525      2.00000
     78       3.4981      2.00000
     79       3.4981      2.00000
     80       3.5580      2.00000
     81       3.5661      2.00000
     82       3.5661      2.00000
     83       3.5671      2.00000
     84       3.5911      2.00000
     85       3.6245      2.00000
     86       3.6245      2.00000
     87       3.6308      2.00000
     88       3.8053      2.00000
     89       3.8053      2.00000
     90       4.4839      2.00000
     91       4.4839      2.00000
     92       4.6135      2.00000
     93       4.6801      2.00000
     94       4.6801      2.00000
     95       4.6862      2.00000
     96       4.6862      2.00000
[...]
   32        0.753   0.945   0.000   1.697
   33        0.753   0.943   0.000   1.696
   34        0.753   0.944   0.000   1.696
   35        0.753   0.943   0.000   1.696
   36        0.752   0.943   0.000   1.696
   37        0.755   0.910   0.000   1.665
   38        0.753   0.944   0.000   1.696
   39        0.755   0.907   0.000   1.662
   40        0.753   0.941   0.000   1.694
   41        0.753   0.944   0.000   1.696
   42        0.752   0.942   0.000   1.694
   43        0.753   0.941   0.000   1.694
   44        0.753   0.943   0.000   1.696
   45        0.752   0.944   0.000   1.696
   46        0.753   0.943   0.000   1.696
   47        0.752   0.945   0.000   1.698
   48        0.752   0.942   0.000   1.694
   49        0.752   0.940   0.000   1.693
   50        0.753   0.943   0.000   1.696
   51        0.753   0.942   0.000   1.695
   52        0.753   0.944   0.000   1.697
   53        0.651   0.852   0.000   1.503
   54        1.027   1.428   0.000   2.455
--------------------------------------------------
tot         40.821  51.100   0.000  91.921
 
    CHARGE:  cpu time    0.2292: real time    0.2311
    FORLOC:  cpu time    0.0355: real time    0.0360
    FORNL :  cpu time    3.0392: real time    3.0617
    STRESS:  cpu time    9.5150: real time    9.5874
    FORCOR:  cpu time    0.1326: real time    0.1336
    FORHAR:  cpu time    0.0528: real time    0.0533
    MIXING:  cpu time    0.2941: real time    0.2959
    OFIELD:  cpu time    0.0001: real time    0.0004

  FORCE on cell =-STRESS in cart. coord.  units (eV):
  Direction    XX          YY          ZZ          XY          YZ          ZX
  --------------------------------------------------------------------------------------
  Alpha Z    96.03251    96.03251    96.03251
  Ewald   -2058.31515 -2057.64236 -2061.00633    -0.95148    -1.64800    -2.33063
  Hartree   139.00840   139.19879   138.24684    -0.26925    -0.46636    -0.65953
  E(xc)    -686.76492  -686.74821  -686.83179    -0.02364    -0.04094    -0.05790
  Local    -798.82591  -799.57230  -795.84035     1.05556     1.82828     2.58557
  n-local  2070.51340  2083.81227  2089.96577    -0.28272    -2.61363     0.14663
  augment  -313.77761  -313.73143  -313.96231    -0.06530    -0.11311    -0.15996
  Kinetic  1533.18442  1560.76872  1569.40398    -3.82507    -6.94086    -2.24183
  Fock        0.00000     0.00000     0.00000     0.00000     0.00000     0.00000
  -------------------------------------------------------------------------------------
  Total      13.01224    12.96399    13.20523     0.06823     0.11818     0.16714
  in kB      19.28587    19.21436    19.57191     0.10113     0.17516     0.24772
  external pressure =       19.36 kB  Pullay stress =        0.00 kB


 VOLUME and BASIS-vectors are now :
 -----------------------------------------------------------------------------
  energy-cutoff  :      550.00
  volume of cell :     1080.99
      direct lattice vectors                 reciprocal lattice vectors
     9.976465530  0.000000000  5.759915070     0.100235900 -0.035438742  0.000000000
     3.325488510  9.405901920  5.759915070     0.000000000  0.106316227  0.000000000
     0.000000000  0.000000000 11.519830140    -0.050117950 -0.035438742  0.086806836

  length of vectors
    11.519830124 11.519830136 11.519830140     0.106316227  0.106316227  0.106316227


 FORCES acting on ions
    electron-ion (+dipol)            ewald-force                    non-local-force                 convergence-correction
 -----------------------------------------------------------------------------------------------
   -.489E+01 -.346E+01 0.485E+01   0.466E+01 0.329E+01 -.509E+01   0.108E+01 0.765E+00 -.162E+01   -.224E-03 -.158E-03 -.544E-03
   -.300E+00 -.212E+00 0.282E+01   0.215E+00 0.152E+00 -.298E+01   0.230E-01 0.162E-01 0.197E+00   0.130E-03 0.920E-04 0.102E-02
   -.105E+01 0.742E+01 -.181E+01   0.861E+00 -.745E+01 0.149E+01   0.747E-01 -.208E+01 0.129E+00   -.269E-03 -.286E-03 -.466E-03
   0.563E-03 0.944E+00 0.154E+01   0.184E-01 -.981E+00 -.159E+01   -.423E-02 0.335E-01 0.523E-01   0.264E-03 0.176E-03 0.440E-03
   -.956E+00 -.109E+01 0.204E+00   0.951E+00 0.143E+01 0.996E-01   -.469E-01 -.263E+00 -.127E+00   -.349E-03 -.504E-03 0.192E-04
   0.665E+00 0.252E+01 0.115E+01   -.754E+00 -.259E+01 -.131E+01   0.684E-01 0.145E+00 0.119E+00   0.360E-03 0.741E-03 0.623E-03
   -.224E+00 0.980E+00 -.106E+01   0.147E+00 -.844E+00 0.149E+01   0.482E-01 0.622E-02 -.292E+00   -.481E-04 0.348E-03 -.503E-03
   -.129E+00 -.414E-01 -.142E+00   0.179E+00 -.177E+00 -.186E+00   -.344E-01 0.140E+00 0.209E+00   -.270E-03 0.538E-05 -.147E-03
   0.665E+01 -.346E+01 -.181E+01   -.673E+01 0.329E+01 0.149E+01   -.194E+01 0.765E+00 0.129E+00   -.359E-03 -.158E-03 -.466E-03
   0.890E+00 -.314E+00 0.154E+01   -.919E+00 0.344E+00 -.159E+01   0.302E-01 -.152E-01 0.523E-01   0.254E-03 0.190E-03 0.440E-03
   -.135E+01 -.538E+00 0.204E+00   0.167E+01 0.420E+00 0.996E-01   -.264E+00 0.434E-01 -.127E+00   -.591E-03 -.161E-03 0.192E-04
   0.133E+01 0.944E+00 0.771E+00   -.139E+01 -.981E+00 -.780E+00   0.474E-01 0.335E-01 0.225E-01   0.249E-03 0.176E-03 0.449E-03
   0.199E-01 0.141E-01 0.345E-01   0.357E-01 0.253E-01 0.619E-01   -.387E-01 -.273E-01 -.670E-01   -.170E-03 -.120E-03 -.294E-03
   0.462E+00 0.327E+00 -.844E+00   -.555E+00 -.392E+00 0.718E+00   0.646E-01 0.457E-01 0.734E-01   -.321E-03 -.227E-03 -.162E-03
   -.810E+00 0.980E+00 -.726E+00   0.122E+01 -.844E+00 0.873E+00   -.277E+00 0.622E-02 -.104E+00   -.411E-03 0.348E-03 -.293E-03
   -.125E-01 -.102E+01 -.216E-01   -.702E-01 0.979E+00 -.122E+00   0.535E-01 0.143E-01 0.927E-01   -.207E-03 0.949E-04 -.359E-03
   -.104E+00 0.474E+00 0.714E+00   0.100E+00 -.496E+00 -.752E+00   0.103E-01 0.169E-01 0.336E-01   0.867E-04 0.355E-03 0.631E-03
   0.259E+01 -.212E+00 0.115E+01   -.269E+01 0.152E+00 -.131E+01   0.159E+00 0.162E-01 0.119E+00   0.819E-03 0.920E-04 0.623E-03
   0.850E+00 -.538E+00 -.106E+01   -.746E+00 0.420E+00 0.149E+01   0.219E-01 0.434E-01 -.292E+00   0.312E-03 -.161E-03 -.503E-03
   -.821E-01 -.108E+00 -.142E+00   -.108E+00 0.228E+00 -.186E+00   0.120E+00 -.790E-01 0.209E+00   -.850E-04 -.257E-03 -.147E-03
   0.654E+00 -.109E+01 -.726E+00   -.389E+00 0.143E+01 0.873E+00   -.864E-01 -.263E+00 -.104E+00   0.191E-03 -.504E-03 -.293E-03
   -.962E+00 0.327E+00 -.216E-01   0.899E+00 -.392E+00 -.122E+00   0.313E-01 0.457E-01 0.927E-01   0.203E-04 -.227E-03 -.359E-03
   0.412E+00 -.256E+00 0.714E+00   -.434E+00 0.260E+00 -.752E+00   0.194E-01 0.403E-02 0.336E-01   0.364E-03 -.368E-04 0.631E-03
   -.586E-01 -.414E-01 -.183E+00   -.251E+00 -.177E+00 0.619E-01   0.198E+00 0.140E+00 0.745E-01   0.761E-05 0.538E-05 -.308E-03
   0.671E+00 0.474E+00 0.267E+00   -.701E+00 -.496E+00 -.289E+00   0.240E-01 0.169E-01 0.257E-01   0.503E-03 0.355E-03 0.390E-03
   -.731E-01 -.517E-01 -.127E+00   0.131E+00 0.927E-01 0.227E+00   -.413E-01 -.292E-01 -.716E-01   -.553E-04 -.391E-04 -.958E-04
   0.323E-01 0.228E-01 0.559E-01   0.357E-01 0.253E-01 0.619E-01   -.460E-01 -.325E-01 -.796E-01   -.127E-03 -.899E-04 -.220E-03
   0.132E+01 0.934E+00 0.760E+00   -.139E+01 -.981E+00 -.780E+00   0.592E-01 0.418E-01 0.227E-01   0.599E-03 0.424E-03 0.506E-03
   0.488E+00 0.345E+00 -.769E+00   -.555E+00 -.392E+00 0.718E+00   0.446E-01 0.315E-01 0.236E-01   0.265E-03 0.187E-03 -.274E-03
   0.879E+00 -.313E+00 0.152E+01   -.919E+00 0.344E+00 -.159E+01   0.361E-01 -.233E-01 0.626E-01   0.446E-03 -.105E-04 0.772E-03
   0.392E+01 -.242E+01 -.168E+01   -.673E+01 0.329E+01 0.149E+01   0.305E+01 -.102E+01 0.980E-01   0.519E-03 -.341E-03 -.257E-03
   -.114E+01 -.593E+00 0.211E+00   0.167E+01 0.420E+00 0.996E-01   -.386E+00 0.112E+00 -.196E+00   0.571E-04 -.251E-03 -.527E-03
   0.221E-01 -.973E+00 0.383E-01   -.702E-01 0.979E+00 -.122E+00   0.291E-01 -.123E-01 0.504E-01   0.534E-04 -.411E-03 0.924E-04
   -.614E+00 0.910E+00 -.709E+00   0.122E+01 -.844E+00 0.873E+00   -.431E+00 -.153E-01 -.118E+00   0.137E-04 -.374E-03 -.452E-03
   -.104E+00 0.476E+00 0.718E+00   0.100E+00 -.496E+00 -.752E+00   0.584E-02 0.180E-01 0.328E-01   0.396E-03 0.922E-04 0.379E-03
   -.233E-02 0.934E+00 0.152E+01   0.184E-01 -.981E+00 -.159E+01   -.992E-02 0.418E-01 0.626E-01   0.139E-03 0.424E-03 0.772E-03
   -.971E+00 0.450E+01 -.168E+01   0.861E+00 -.745E+01 0.149E+01   0.566E-01 0.322E+01 0.980E-01   -.148E-03 0.602E-03 -.257E-03
   -.940E+00 -.882E+00 0.211E+00   0.951E+00 0.143E+01 0.996E-01   -.228E-01 -.401E+00 -.196E+00   -.217E-03 0.137E-03 -.527E-03
   -.342E+01 -.242E+01 0.256E+01   0.466E+01 0.329E+01 -.509E+01   -.144E+01 -.102E+01 0.269E+01   -.482E-03 -.341E-03 0.321E-03
   -.250E+00 -.177E+00 0.259E+01   0.215E+00 0.152E+00 -.298E+01   0.525E-01 0.371E-01 0.338E+00   0.219E-03 0.155E-03 0.406E-03
   -.307E+00 0.910E+00 -.886E+00   0.147E+00 -.844E+00 0.149E+01   0.114E+00 -.153E-01 -.432E+00   -.398E-03 -.374E-03 -.214E-03
   0.622E+00 0.229E+01 0.108E+01   -.754E+00 -.259E+01 -.131E+01   0.124E+00 0.239E+00 0.215E+00   0.227E-03 0.176E-03 0.392E-03
   -.136E+00 -.467E-01 -.155E+00   0.179E+00 -.177E+00 -.186E+00   -.186E-01 0.127E+00 0.197E+00   -.118E-03 -.599E-04 -.166E-03
   -.910E+00 0.345E+00 0.383E-01   0.899E+00 -.392E+00 -.122E+00   -.188E-02 0.315E-01 0.504E-01   -.370E-03 0.187E-03 0.924E-04
   0.653E+00 -.882E+00 -.709E+00   -.389E+00 0.143E+01 0.873E+00   -.158E+00 -.401E+00 -.118E+00   -.348E-03 0.137E-03 -.452E-03
   0.414E+00 -.257E+00 0.718E+00   -.434E+00 0.260E+00 -.752E+00   0.190E-01 -.505E-03 0.328E-01   0.219E-03 0.343E-03 0.379E-03
   0.755E+00 -.593E+00 -.886E+00   -.746E+00 0.420E+00 0.149E+01   0.235E-01 0.112E+00 -.432E+00   -.485E-03 -.251E-03 -.214E-03
   0.237E+01 -.177E+00 0.108E+01   -.269E+01 0.152E+00 -.131E+01   0.267E+00 0.371E-01 0.215E+00   0.242E-03 0.155E-03 0.392E-03
   -.893E-01 -.112E+00 -.155E+00   -.108E+00 0.228E+00 -.186E+00   0.114E+00 -.600E-01 0.197E+00   -.957E-04 -.910E-04 -.166E-03
   0.674E+00 0.476E+00 0.269E+00   -.701E+00 -.496E+00 -.289E+00   0.255E-01 0.180E-01 0.215E-01   0.130E-03 0.922E-04 0.533E-03
   -.661E-01 -.467E-01 -.195E+00   -.251E+00 -.177E+00 0.619E-01   0.180E+00 0.127E+00 0.825E-01   -.847E-04 -.599E-04 -.185E-03
   -.359E-01 -.254E-01 -.621E-01   0.131E+00 0.927E-01 0.227E+00   -.622E-01 -.440E-01 -.108E+00   -.200E-03 -.141E-03 -.346E-03
   -.223E+01 -.158E+01 -.386E+01   0.349E+01 0.247E+01 0.605E+01   -.105E+01 -.741E+00 -.182E+01   -.331E-03 -.234E-03 -.573E-03
   -.529E+01 -.374E+01 -.917E+01   0.582E+01 0.412E+01 0.101E+02   0.235E+00 0.166E+00 0.407E+00   -.546E-03 -.386E-03 -.946E-03
 -----------------------------------------------------------------------------------------------
   -.155E+00 -.110E+00 -.269E+00   0.373E-13 -.533E-14 0.320E-13   0.155E+00 0.110E+00 0.269E+00   -.226E-03 -.160E-03 -.392E-03
 
 
 POSITION                                       TOTAL-FORCE (eV/Angst)
 -----------------------------------------------------------------------------------
      3.87974      2.74339     10.55984         0.848246      0.599801     -1.849156
      3.87974      2.74339     14.39979        -0.061874     -0.043752      0.036631
      4.98823      5.87869      8.63987        -0.109682     -2.109630     -0.189975
      4.98823      5.87869     12.47982         0.014972     -0.003750      0.002521
      4.98823      5.87869     16.31976        -0.052062      0.076006      0.176521
      6.09673      9.01399     10.55984        -0.020363      0.073661     -0.035269
      6.09673      9.01399     14.39979        -0.028257      0.143336      0.135290
      6.09673      9.01399     18.23973         0.015212     -0.078902     -0.120064
      7.20523      2.74339      8.63987        -2.025539      0.599801     -0.189975
      7.20523      2.74339     12.47982         0.001455      0.015365      0.002521
      7.20523      2.74339     16.31976         0.054305     -0.074419      0.176521
      8.31372      5.87869     10.55984        -0.005303     -0.003750      0.014226
      8.31372      5.87869     14.39979         0.016821      0.011894      0.029135
      8.31372      5.87869     18.23973        -0.028420     -0.020096     -0.052752
      9.42222      9.01399     12.47982         0.131293      0.143336      0.043174
      9.42222      9.01399     16.31976        -0.029438     -0.022976     -0.050989
      9.42222      9.01399     20.15970         0.006574     -0.004250     -0.003145
     10.53071      2.74339     10.55984         0.062660     -0.043752     -0.035269
     10.53071      2.74339     14.39979         0.125719     -0.074419      0.135290
     10.53071      2.74339     18.23973        -0.069319      0.040643     -0.120064
     11.63921      5.87869     12.47982         0.178903      0.076006      0.043174
     11.63921      5.87869     16.31976        -0.031475     -0.020096     -0.050989
     11.63921      5.87869     20.15970        -0.001816      0.007614     -0.003145
     12.74771      9.01399     14.39979        -0.111585     -0.078902     -0.046858
     12.74771      9.01399     18.23973        -0.006010     -0.004250      0.004121
     12.74771      9.01399     22.07967         0.016702      0.011810      0.028930
      0.55425      0.39191      0.95999         0.021914      0.015496      0.037957
      0.55425      0.39191      4.79993        -0.007340     -0.005190      0.002988
      0.55425      0.39191      8.63987        -0.022002     -0.015558     -0.027620
      1.66274      3.52721      2.87996        -0.002807      0.007630     -0.004862
      1.66274      3.52721      6.71990         0.241037     -0.141343     -0.091650
      1.66274      3.52721     10.55984         0.134247     -0.060499      0.114405
      2.77124      6.66251      4.79993        -0.018974     -0.006994     -0.032864
      2.77124      6.66251      8.63987         0.173418      0.050293      0.046559
      2.77124      6.66251     12.47982         0.002187     -0.001299     -0.000859
      3.87974      0.39191      2.87996         0.006258     -0.005190     -0.004862
      3.87974      0.39191      6.71990        -0.052914      0.274367     -0.091650
      3.87974      0.39191     10.55984        -0.012290      0.146735      0.114405
      4.98823      3.52721      4.79993        -0.199890     -0.141343      0.162920
      4.98823      3.52721     12.47982         0.017776      0.012569     -0.056314
      6.09673      6.66251      6.71990        -0.046387      0.050293      0.173464
      6.09673      6.66251     10.55984        -0.007369     -0.058550     -0.012763
      6.09673      6.66251     14.39979         0.024773     -0.096804     -0.143777
      7.20523      0.39191      4.79993        -0.012918     -0.015558     -0.032864
      7.20523      0.39191      8.63987         0.105223      0.146735      0.046559
      7.20523      0.39191     12.47982        -0.000496      0.002495     -0.000859
      8.31372      3.52721      6.71990         0.031954     -0.060499      0.173464
      8.31372      3.52721     10.55984        -0.057657      0.012569     -0.012763
      8.31372      3.52721     14.39979        -0.083010      0.055625     -0.143777
      9.42222      6.66251      8.63987        -0.001837     -0.001299      0.001465
      9.42222      6.66251     12.47982        -0.136901     -0.096804     -0.050434
      9.42222      6.66251     16.31976         0.032881      0.023250      0.056952
      4.98823      3.52721      8.63987         0.215007      0.152033      0.372404
      3.87974      2.74339      6.71990         0.764396      0.540510      1.323973
 -----------------------------------------------------------------------------------
    total drift:                               -0.000078     -0.000055     -0.000134


--------------------------------------------------------------------------------------------------------



  FREE ENERGIE OF THE ION-ELECTRON SYSTEM (eV)
  ---------------------------------------------------
  free  energy   TOTEN  =      -286.23998769 eV

  energy  without entropy=     -286.22639002  energy(sigma->0) =     -286.23318885
 


--------------------------------------------------------------------------------------------------------


    POTLOK:  cpu time    0.2286: real time    0.3084


--------------------------------------------------------------------------------------------------------


 writing wavefunctions
     LOOP+:  cpu time  165.4260: real time  167.0392
    4ORBIT:  cpu time    0.0000: real time    0.0000
 


 total charge     
 
# of ion       s       p       d       tot
------------------------------------------
    1        0.752   0.899   0.000   1.651
    2        0.753   0.944   0.000   1.697
    3        0.751   0.899   0.000   1.650
    4        0.753   0.944   0.000   1.696
    5        0.753   0.943   0.000   1.696
    6        0.753   0.945   0.000   1.698
    7        0.753   0.943   0.000   1.696
    8        0.753   0.943   0.000   1.696
    9        0.751   0.899   0.000   1.651
   10        0.753   0.944   0.000   1.696
   11        0.752   0.943   0.000   1.695
   12        0.753   0.944   0.000   1.697
   13        0.753   0.943   0.000   1.696
   14        0.753   0.944   0.000   1.696
   15        0.753   0.943   0.000   1.696
   16        0.752   0.944   0.000   1.696
   17        0.753   0.944   0.000   1.696
   18        0.753   0.945   0.000   1.698
   19        0.752   0.943   0.000   1.695
   20        0.753   0.944   0.000   1.698
   21        0.753   0.943   0.000   1.696
   22        0.752   0.944   0.000   1.696
   23        0.753   0.944   0.000   1.696
   24        0.753   0.944   0.000   1.696
   25        0.753   0.944   0.000   1.696
   26        0.753   0.943   0.000   1.695
   27        0.753   0.943   0.000   1.696
   28        0.752   0.943   0.000   1.696
   29        0.753   0.943   0.000   1.696
   30        0.752   0.943   0.000   1.696
   31        0.754   0.913   0.000   1.667
   32        0.753   0.945   0.000   1.697
   33        0.753   0.943   0.000   1.696
   34        0.753   0.944   0.000   1.696
   35        0.753   0.943   0.000   1.696
   36        0.752   0.943   0.000   1.696
   37        0.755   0.910   0.000   1.665
   38        0.753   0.944   0.000   1.696
   39        0.755   0.907   0.000   1.662
   40        0.753   0.941   0.000   1.694
   41        0.753   0.944   0.000   1.696
   42        0.752   0.942   0.000   1.694
   43        0.753   0.941   0.000   1.694
   44        0.753   0.943   0.000   1.696
   45        0.752   0.944   0.000   1.696
   46        0.753   0.943   0.000   1.696
   47        0.752   0.945   0.000   1.698
   48        0.752   0.942   0.000   1.694
   49        0.752   0.940   0.000   1.693
   50        0.753   0.943   0.000   1.696
   51        0.753   0.942   0.000   1.695
   52        0.753   0.944   0.000   1.697
   53        0.651   0.852   0.000   1.503
   54        1.027   1.428   0.000   2.455
--------------------------------------------------
tot         40.821  51.100   0.000  91.921
 

 total amount of memory used by VASP MPI-rank0   203693. kBytes
=======================================================================

   base      :      30000. kBytes
   nonl-proj :     106606. kBytes
   fftplans  :       5382. kBytes
   grid      :      21405. kBytes
   one-center:        165. kBytes
   wavefun   :      40135. kBytes
 
  
  
 General timing and accounting informations for this job:
 ========================================================
  
                  Total CPU time used (sec):      187.791
                            User time (sec):      181.061
                          System time (sec):        6.729
                         Elapsed time (sec):      192.706
  
                   Maximum memory used (kb):      464172.
                   Average memory used (kb):           0.
  
                          Minor page faults:        54270
                          Major page faults:            0
                 Voluntary context switches:         4838
