 vasp.5.4.4.18Apr17-6-g9f103f2a35 (build Jun 19 2019 10:34:07) complex          
  
 executed on               LB-5.4 date 2023.05.15  18:32:02
 running on   96 total cores
 distrk:  each k-point on   24 cores,    4 groups
 distr:  one band on NCORES_PER_BAND=   1 cores,   24 groups


--------------------------------------------------------------------------------------------------------


 INCAR:
 POTCAR:    PAW_PBE Si 05Jan2001                  

 ----------------------------------------------------------------------------- 
|                                                                             |
|           W    W    AA    RRRRR   N    N  II  N    N   GGGG   !!!           |
|           W    W   A  A   R    R  NN   N  II  NN   N  G    G  !!!           |
|           W    W  A    A  R    R  N N  N  II  N N  N  G       !!!           |
|           W WW W  AAAAAA  RRRRR   N  N N  II  N  N N  G  GGG   !            |
|           WW  WW  A    A  R   R   N   NN  II  N   NN  G    G                |
|           W    W  A    A  R    R  N    N  II  N    N   GGGG   !!!           |
|                                                                             |
|      For optimal performance we recommend to set                            |
|        NCORE= 4 - approx SQRT( number of cores)                             |
|      NCORE specifies how many cores store one orbital (NPAR=cpu/NCORE).     |
|      This setting can  greatly improve the performance of VASP for DFT.     |
|      The default,   NCORE=1            might be grossly inefficient         |
|      on modern multi-core architectures or massively parallel machines.     |
|      Do your own testing !!!!                                               |
|      Unfortunately you need to use the default for GW and RPA calculations. |
|      (for HF NCORE is supported but not extensively tested yet)             |
|                                                                             |
 ----------------------------------------------------------------------------- 


 ----------------------------------------------------------------------------- 
|                                                                             |
|           W    W    AA    RRRRR   N    N  II  N    N   GGGG   !!!           |
|           W    W   A  A   R    R  NN   N  II  NN   N  G    G  !!!           |
|           W    W  A    A  R    R  N N  N  II  N N  N  G       !!!           |
|           W WW W  AAAAAA  RRRRR   N  N N  II  N  N N  G  GGG   !            |
|           WW  WW  A    A  R   R   N   NN  II  N   NN  G    G                |
|           W    W  A    A  R    R  N    N  II  N    N   GGGG   !!!           |
|                                                                             |
|      You have enabled k-point parallelism (KPAR>1).                         |
|      This developmental code was originally  written by Paul Kent at ORNL,  |
|      and carefully double checked in Vienna.                                |
|      GW as well as linear response parallelism added by Martijn Marsman     |
|      and Georg Kresse.                                                      |
|      Carefully verify results versus KPAR=1.                                |
|      Report problems to Paul Kent and Vienna.                               |
|                                                                             |
 ----------------------------------------------------------------------------- 

 POTCAR:    PAW_PBE Si 05Jan2001                  
   VRHFIN =Si: s2p2                                                             
   LEXCH  = PE                                                                  
   EATOM  =   103.0669 eV,    7.5752 Ry                                         
                                                                                
   TITEL  = PAW_PBE Si 05Jan2001                                                
   LULTRA =        F    use ultrasoft PP ?                                      
   IUNSCR =        1    unscreen: 0-lin 1-nonlin 2-no                           
   RPACOR =    1.500    partial core radius                                     
   POMASS =   28.085; ZVAL   =    4.000    mass and valenz                      
   RCORE  =    1.900    outmost cutoff radius                                   
   RWIGS  =    2.480; RWIGS  =    1.312    wigner-seitz radius (au A)           
   ENMAX  =  245.345; ENMIN  =  184.009 eV                                      
   ICORE  =        2    local potential                                         
   LCOR   =        T    correct aug charges                                     
   LPAW   =        T    paw PP                                                  
   EAUG   =  322.069                                                            
   DEXC   =    0.000                                                            
   RMAX   =    1.950    core radius for proj-oper                               
   RAUG   =    1.300    factor for augmentation sphere                          
   RDEP   =    1.993    radius for radial grids                                 
   RDEPT  =    1.837    core radius for aug-charge                              
                                                                                
   Atomic configuration                                                         
    6 entries                                                                   
     n  l   j            E        occ.                                          
     1  0  0.50     -1785.8828   2.0000                                         
     2  0  0.50      -139.4969   2.0000                                         
     2  1  1.50       -95.5546   6.0000                                         
     3  0  0.50       -10.8127   2.0000                                         
     3  1  0.50        -4.0811   2.0000                                         
     3  2  1.50        -4.0817   0.0000                                         
   Description                                                                  
     l       E           TYP  RCUT    TYP  RCUT                                 
     0    -10.8127223     23  1.900                                             
     0     -7.6451159     23  1.900                                             
     1     -4.0811372     23  1.900                                             
     1      2.4879257     23  1.900                                             
     2     -4.0817478      7  1.900                                             
  local pseudopotential read in
  partial core-charges read in
  partial kinetic energy density read in
  atomic valenz-charges read in
  non local Contribution for L=           0  read in
    real space projection operators read in
  non local Contribution for L=           0  read in
    real space projection operators read in
  non local Contribution for L=           1  read in
    real space projection operators read in
  non local Contribution for L=           1  read in
    real space projection operators read in
    PAW grid and wavefunctions read in
 
   number of l-projection  operators is LMAX  =           4
   number of lm-projection operators is LMMAX =           8
 

 ----------------------------------------------------------------------------- 
|                                                                             |
|  ADVICE TO THIS USER RUNNING 'VASP/VAMP'   (HEAR YOUR MASTER'S VOICE ...):  |
|                                                                             |
|      You have a (more or less) 'large supercell' and for larger cells       |
|      it might be more efficient to use real space projection opertators     |
|      So try LREAL= Auto  in the INCAR   file.                               |
|      Mind:          For very  accurate calculation you might also keep the  |
|      reciprocal projection scheme          (i.e. LREAL=.FALSE.)             |
|                                                                             |
 ----------------------------------------------------------------------------- 

  PAW_PBE Si 05Jan2001                  :
 energy of atom  1       EATOM= -103.0669
 kinetic energy error for atom=    0.0004 (will be added to EATOM!!)
 
 
 POSCAR: Si55                                    
  positions in direct lattice
  No initial velocities read in
 exchange correlation table for  LEXCH =        8
   RHO(1)=    0.500       N(1)  =     2000
   RHO(2)=  100.500       N(2)  =     4000
 


--------------------------------------------------------------------------------------------------------


 ion  position               nearest neighbor table
   1  0.292  0.292  0.292-  32 2.35  40 2.35  41 2.35  38 2.35
   2  0.292  0.292  0.625-  33 2.35  41 2.35  42 2.35  39 2.35
   3  0.292  0.292  0.958-  31 2.35  40 2.35  42 2.35  37 2.35
   4  0.292  0.625  0.292-  35 2.35  43 2.35  44 2.35  41 2.35
   5  0.292  0.625  0.625-  36 2.35  44 2.35  45 2.35  42 2.35
   6  0.292  0.625  0.958-  34 2.35  43 2.35  45 2.35  40 2.35
   7  0.292  0.958  0.292-  29 2.35  37 2.35  38 2.35  44 2.35
   8  0.292  0.958  0.625-  30 2.35  38 2.35  39 2.35  45 2.35
   9  0.292  0.958  0.958-  28 2.35  37 2.35  39 2.35  43 2.35
  10  0.625  0.292  0.292-  41 2.35  49 2.35  50 2.35  47 2.35
  11  0.625  0.292  0.625-  55 2.25  42 2.35  50 2.35  51 2.35  48 2.35
  12  0.625  0.292  0.958-  40 2.35  49 2.35  51 2.35  46 2.35
  13  0.625  0.625  0.292-  55 2.25  44 2.35  52 2.35  53 2.35  50 2.35
  14  0.625  0.625  0.625-  55 2.25  45 2.35  53 2.35  54 2.35  51 2.35
  15  0.625  0.625  0.958-  43 2.35  52 2.35  54 2.35  49 2.35
  16  0.625  0.958  0.292-  38 2.35  46 2.35  47 2.35  53 2.35
  17  0.625  0.958  0.625-  39 2.35  47 2.35  48 2.35  54 2.35
  18  0.625  0.958  0.958-  37 2.35  46 2.35  48 2.35  52 2.35
  19  0.958  0.292  0.292-  50 2.35  32 2.35  31 2.35  29 2.35
  20  0.958  0.292  0.625-  51 2.35  33 2.35  32 2.35  30 2.35
  21  0.958  0.292  0.958-  49 2.35  31 2.35  33 2.35  28 2.35
  22  0.958  0.625  0.292-  53 2.35  35 2.35  34 2.35  32 2.35
  23  0.958  0.625  0.625-  54 2.35  36 2.35  35 2.35  33 2.35
  24  0.958  0.625  0.958-  52 2.35  34 2.35  36 2.35  31 2.35
  25  0.958  0.958  0.292-  47 2.35  29 2.35  28 2.35  35 2.35
  26  0.958  0.958  0.625-  48 2.35  30 2.35  29 2.35  36 2.35
  27  0.958  0.958  0.958-  46 2.35  28 2.35  30 2.35  34 2.35
  28  0.042  0.042  0.042-   9 2.35  27 2.35  25 2.35  21 2.35
  29  0.042  0.042  0.375-   7 2.35  25 2.35  26 2.35  19 2.35
  30  0.042  0.042  0.708-   8 2.35  26 2.35  27 2.35  20 2.35
  31  0.042  0.375  0.042-   3 2.35  21 2.35  19 2.35  24 2.35
  32  0.042  0.375  0.375-   1 2.35  19 2.35  20 2.35  22 2.35
  33  0.042  0.375  0.708-   2 2.35  20 2.35  21 2.35  23 2.35
  34  0.042  0.708  0.042-   6 2.35  24 2.35  22 2.35  27 2.35
  35  0.042  0.708  0.375-   4 2.35  22 2.35  23 2.35  25 2.35
  36  0.042  0.708  0.708-   5 2.35  23 2.35  24 2.35  26 2.35
  37  0.375  0.042  0.042-  18 2.35   9 2.35   7 2.35   3 2.35
  38  0.375  0.042  0.375-  16 2.35   8 2.35   7 2.35   1 2.35
  39  0.375  0.042  0.708-  17 2.35   9 2.35   8 2.35   2 2.35
  40  0.375  0.375  0.042-  12 2.35   3 2.35   1 2.35   6 2.35
  41  0.375  0.375  0.375-  10 2.35   2 2.35   1 2.35   4 2.35
  42  0.375  0.375  0.708-  11 2.35   3 2.35   2 2.35   5 2.35
  43  0.375  0.708  0.042-  15 2.35   6 2.35   4 2.35   9 2.35
  44  0.375  0.708  0.375-  13 2.35   5 2.35   4 2.35   7 2.35
  45  0.375  0.708  0.708-  14 2.35   6 2.35   5 2.35   8 2.35
  46  0.708  0.042  0.042-  27 2.35  18 2.35  16 2.35  12 2.35
  47  0.708  0.042  0.375-  25 2.35  17 2.35  16 2.35  10 2.35
  48  0.708  0.042  0.708-  26 2.35  18 2.35  17 2.35  11 2.35
  49  0.708  0.375  0.042-  21 2.35  12 2.35  10 2.35  15 2.35
  50  0.708  0.375  0.375-  55 2.25  19 2.35  11 2.35  10 2.35  13 2.35
  51  0.708  0.375  0.708-  55 2.25  20 2.35  12 2.35  11 2.35  14 2.35
  52  0.708  0.708  0.042-  24 2.35  15 2.35  13 2.35  18 2.35
  53  0.708  0.708  0.375-  55 2.25  22 2.35  14 2.35  13 2.35  16 2.35
  54  0.708  0.708  0.708-  23 2.35  15 2.35  14 2.35  17 2.35
  55  0.667  0.500  0.500-  50 2.25  11 2.25  13 2.25  53 2.25  14 2.25  51 2.25
 
  LATTYP: Found a face centered cubic cell.
 ALAT       =    16.2915000202
  
  Lattice vectors:
  
 A1 = (   9.9764655300,   0.0000000000,   5.7599150700)
 A2 = (   3.3254885100,   9.4059019200,   5.7599150700)
 A3 = (   0.0000000000,   0.0000000000,  11.5198301400)


Analysis of symmetry for initial positions (statically):
=====================================================================
 Subroutine PRICEL returns:
 Original cell was already a primitive cell.
 

 Routine SETGRP: Setting up the symmetry group for a 
 face centered cubic supercell.


 Subroutine GETGRP returns: Found 12 space group operations
 (whereof  2 operations were pure point group operations)
 out of a pool of 48 trial point group operations.


The static configuration has the point symmetry C_1h.
 The point group associated with its full space group is D_3d.


Analysis of symmetry for dynamics (positions and initial velocities):
=====================================================================
 Subroutine PRICEL returns:
 Original cell was already a primitive cell.
 

 Routine SETGRP: Setting up the symmetry group for a 
 face centered cubic supercell.


 Subroutine GETGRP returns: Found 12 space group operations
 (whereof  2 operations were pure point group operations)
 out of a pool of 48 trial point group operations.


The dynamic configuration has the point symmetry C_1h.
 The point group associated with its full space group is D_3d.


 Subroutine INISYM returns: Found 12 space group operations
 (whereof  2 operations are pure point group operations),
 and found     1 'primitive' translations

 
 
 KPOINTS: Automatic kpoint scheme                 

Automatic generation of k-mesh.
Space group operators:
 irot       det(A)        alpha          n_x          n_y          n_z        tau_x        tau_y        tau_z
    1     1.000000     0.000000     1.000000     0.000000     0.000000     0.000000     0.000000     0.000000
    2    -1.000000   180.000000     0.288675     0.816497    -0.500000     0.000000     0.000000     0.000000
    3    -1.000000     0.000000     1.000000     0.000000     0.000000     0.333333     0.000000     0.000000
    4     1.000000   120.000000     0.942809    -0.333333     0.000000     0.000000     0.000000     0.166667
    5    -1.000000   120.000000     0.942809    -0.333333     0.000000     0.333333     0.000000     0.833333
    6     1.000000   180.000000     0.288675     0.816497     0.500000     0.333333     0.833333    -0.000000
    7    -1.000000   180.000000     0.288675     0.816497     0.500000    -0.000000     0.166667     0.000000
    8     1.000000   180.000000     0.000000    -0.000000     1.000000     0.333333     0.000000     0.833333
    9    -1.000000   180.000000     0.000000    -0.000000     1.000000     0.000000     0.000000     0.166667
   10     1.000000   120.000000    -0.942809     0.333333     0.000000     0.000000     0.166667    -0.000000
   11    -1.000000   120.000000    -0.942809     0.333333     0.000000     0.333333     0.833333    -0.000000
   12     1.000000   180.000000     0.288675     0.816497    -0.500000     0.333333     0.000000     0.000000
 
 Subroutine IBZKPT returns following result:
 ===========================================
 
 Found     13 irreducible k-points:
 
 Following reciprocal coordinates:
            Coordinates               Weight
  0.000000  0.000000  0.000000      1.000000
  0.250000  0.000000  0.000000      2.000000
  0.500000  0.000000  0.000000      1.000000
  0.000000  0.250000  0.000000      6.000000
  0.250000  0.250000  0.000000      6.000000
  0.500000  0.250000  0.000000      6.000000
 -0.250000  0.250000  0.000000      6.000000
  0.000000  0.500000  0.000000      3.000000
  0.250000  0.500000  0.000000      6.000000
  0.500000  0.500000  0.000000      3.000000
  0.000000  0.500000  0.250000     12.000000
  0.250000  0.500000  0.250000      6.000000
 -0.250000  0.500000  0.250000      6.000000
 
 Following cartesian coordinates:
            Coordinates               Weight
  0.000000  0.000000  0.000000      1.000000
  0.025059 -0.008860  0.000000      2.000000
  0.050118 -0.017719  0.000000      1.000000
  0.000000  0.026579  0.000000      6.000000
  0.025059  0.017719  0.000000      6.000000
  0.050118  0.008860  0.000000      6.000000
 -0.025059  0.035439  0.000000      6.000000
  0.000000  0.053158  0.000000      3.000000
  0.025059  0.044298  0.000000      6.000000
  0.050118  0.035439  0.000000      3.000000
 -0.012529  0.044298  0.021702     12.000000
  0.012529  0.035439  0.021702      6.000000
 -0.037588  0.053158  0.021702      6.000000
 


--------------------------------------------------------------------------------------------------------




 Dimension of arrays:
   k-points           NKPTS =     13   k-points in BZ     NKDIM =     13   number of bands    NBANDS=    144
   number of dos      NEDOS =    301   number of ions     NIONS =     55
   non local maximal  LDIM  =      4   non local SUM 2l+1 LMDIM =      8
   total plane-waves  NPLWV = 343000
   max r-space proj   IRMAX =      1   max aug-charges    IRDMAX=  10807
   dimension x,y,z NGX =    70 NGY =   70 NGZ =   70
   dimension x,y,z NGXF=   140 NGYF=  140 NGZF=  140
   support grid    NGXF=   140 NGYF=  140 NGZF=  140
   ions per type =              55
   NGX,Y,Z   is equivalent  to a cutoff of  10.10, 10.10, 10.10 a.u.
   NGXF,Y,Z  is equivalent  to a cutoff of  20.20, 20.20, 20.20 a.u.

 SYSTEM =  Si                                      
 POSCAR =  Si55                                    

 Startparameter for this run:
   NWRITE =      2    write-flag & timer
   PREC   = normal    normal or accurate (medium, high low for compatibility)
   ISTART =      0    job   : 0-new  1-cont  2-samecut
   ICHARG =      2    charge: 1-file 2-atom 10-const
   ISPIN  =      1    spin polarized calculation?
   LNONCOLLINEAR =      F non collinear calculations
   LSORBIT =      F    spin-orbit coupling
   INIWAV =      1    electr: 0-lowe 1-rand  2-diag
   LASPH  =      F    aspherical Exc in radial PAW
   METAGGA=      F    non-selfconsistent MetaGGA calc.

 Electronic Relaxation 1
   ENCUT  =  550.0 eV  40.42 Ry    6.36 a.u.  22.03 22.03 22.03*2*pi/ulx,y,z
   ENINI  =  550.0     initial cutoff
   ENAUG  =  322.1 eV  augmentation charge cutoff
   NELM   =    200;   NELMIN=  2; NELMDL= -5     # of ELM steps 
   EDIFF  = 0.1E-05   stopping-criterion for ELM
   LREAL  =      F    real-space projection
   NLSPLINE    = F    spline interpolate recip. space projectors
   LCOMPAT=      F    compatible to vasp.4.4
   GGA_COMPAT  = T    GGA compatible to vasp.4.4-vasp.4.6
   LMAXPAW     = -100 max onsite density
   LMAXMIX     =    2 max onsite mixed and CHGCAR
   VOSKOWN=      0    Vosko Wilk Nusair interpolation
   ROPT   =    0.00000
 Ionic relaxation
   EDIFFG = -.5E-01   stopping-criterion for IOM
   NSW    =      0    number of steps for IOM
   NBLOCK =      1;   KBLOCK =      1    inner block; outer block 
   IBRION =     -1    ionic relax: 0-MD 1-quasi-New 2-CG
   NFREE  =      1    steps in history (QN), initial steepest desc. (CG)
   ISIF   =      2    stress and relaxation
   IWAVPR =     10    prediction:  0-non 1-charg 2-wave 3-comb
   ISYM   =      2    0-nonsym 1-usesym 2-fastsym
   LCORR  =      T    Harris-Foulkes like correction to forces

   POTIM  = 0.5000    time-step for ionic-motion
   TEIN   =    0.0    initial temperature
   TEBEG  =    0.0;   TEEND  =   0.0 temperature during run
   SMASS  =  -3.00    Nose mass-parameter (am)
   estimated Nose-frequenzy (Omega)   =  0.10E-29 period in steps =****** mass=  -0.303E-26a.u.
   SCALEE = 1.0000    scale energy and forces
   NPACO  =    256;   APACO  = 16.0  distance and # of slots for P.C.
   PSTRESS=    0.0 pullay stress

  Mass of Ions in am
   POMASS =  28.09
  Ionic Valenz
   ZVAL   =   4.00
  Atomic Wigner-Seitz radii
   RWIGS  =  -1.00
  virtual crystal weights 
   VCA    =   1.00
   NELECT =     220.0000    total number of electrons
   NUPDOWN=      -1.0000    fix difference up-down

 DOS related values:
   EMIN   =  10.00;   EMAX   =-10.00  energy-range for DOS
   EFERMI =   0.00
   ISMEAR =     0;   SIGMA  =   0.05  broadening in eV -4-tet -1-fermi 0-gaus

 Electronic relaxation 2 (details)
   IALGO  =     38    algorithm
   LDIAG  =      T    sub-space diagonalisation (order eigenvalues)
   LSUBROT=      F    optimize rotation matrix (better conditioning)
   TURBO    =      0    0=normal 1=particle mesh
   IRESTART =      0    0=no restart 2=restart with 2 vectors
   NREBOOT  =      0    no. of reboots
   NMIN     =      0    reboot dimension
   EREF     =   0.00    reference energy to select bands
   IMIX   =      4    mixing-type and parameters
     AMIX     =   0.20;   BMIX     =  1.00
     AMIX_MAG =   0.80;   BMIX_MAG =  1.00
     AMIN     =   0.10
     WC   =   100.;   INIMIX=   1;  MIXPRE=   1;  MAXMIX= -45

 Intra band minimization:
   WEIMIN = 0.0000     energy-eigenvalue tresh-hold
   EBREAK =  0.17E-08  absolut break condition
   DEPER  =   0.30     relativ break condition  

   TIME   =   0.40     timestep for ELM

  volume/ion in A,a.u.               =      19.65       132.63
  Fermi-wavevector in a.u.,A,eV,Ry     =   0.962959  1.819729 12.616558  0.927291
  Thomas-Fermi vector in A             =   2.092463
 
 Write flags
   LWAVE        =      T    write WAVECAR
   LDOWNSAMPLE  =      F    k-point downsampling of WAVECAR
   LCHARG       =      T    write CHGCAR
   LVTOT        =      F    write LOCPOT, total local potential
   LVHAR        =      F    write LOCPOT, Hartree potential only
   LELF         =      F    write electronic localiz. function (ELF)
   LORBIT       =     10    0 simple, 1 ext, 2 COOP (PROOUT), +10 PAW based schemes


 Dipole corrections
   LMONO  =      F    monopole corrections only (constant potential shift)
   LDIPOL =      F    correct potential (dipole corrections)
   IDIPOL =      0    1-x, 2-y, 3-z, 4-all directions 
   EPSILON=  1.0000000 bulk dielectric constant

 Exchange correlation treatment:
   GGA     =    --    GGA type
   LEXCH   =     8    internal setting for exchange type
   VOSKOWN=      0    Vosko Wilk Nusair interpolation
   LHFCALC =     F    Hartree Fock is set to
   LHFONE  =     F    Hartree Fock one center treatment
   AEXX    =    0.0000 exact exchange contribution

 Linear response parameters
   LEPSILON=     F    determine dielectric tensor
   LRPA    =     F    only Hartree local field effects (RPA)
   LNABLA  =     F    use nabla operator in PAW spheres
   LVEL    =     F    velocity operator in full k-point grid
   LINTERFAST=   F  fast interpolation
   KINTER  =     0    interpolate to denser k-point grid
   CSHIFT  =0.1000    complex shift for real part using Kramers Kronig
   OMEGAMAX=  -1.0    maximum frequency
   DEG_THRESHOLD= 0.2000000E-02 threshold for treating states as degnerate
   RTIME   =   -0.100 relaxation time in fs
  (WPLASMAI=    0.000 imaginary part of plasma frequency in eV, 0.658/RTIME)
   DFIELD  = 0.0000000 0.0000000 0.0000000 field for delta impulse in time
 
 Orbital magnetization related:
   ORBITALMAG=     F  switch on orbital magnetization
   LCHIMAG   =     F  perturbation theory with respect to B field
   DQ        =  0.001000  dq finite difference perturbation B field
   LLRAUG    =     F  two centre corrections for induced B field



--------------------------------------------------------------------------------------------------------


 Static calculation
 charge density and potential will be updated during run
 non-spin polarized calculation
 Variant of blocked Davidson
 Davidson routine will perform the subspace rotation
 perform sub-space diagonalisation
    after iterative eigenvector-optimisation
 modified Broyden-mixing scheme, WC =      100.0
 initial mixing is a Kerker type mixing with AMIX =  0.2000 and BMIX =      1.0000
 Hartree-type preconditioning will be used
 using additional bands           34
 reciprocal scheme for non local part
 use partial core corrections
 calculate Harris-corrections to forces 
   (improved forces if not selfconsistent)
 use gradient corrections 
 use of overlap-Matrix (Vanderbilt PP)
 Gauss-broadening in eV      SIGMA  =   0.05


--------------------------------------------------------------------------------------------------------


  energy-cutoff  :      550.00
  volume of cell :     1080.99
      direct lattice vectors                 reciprocal lattice vectors
     9.976465530  0.000000000  5.759915070     0.100235900 -0.035438742  0.000000000
     3.325488510  9.405901920  5.759915070     0.000000000  0.106316227  0.000000000
     0.000000000  0.000000000 11.519830140    -0.050117950 -0.035438742  0.086806836

  length of vectors
    11.519830124 11.519830136 11.519830140     0.106316227  0.106316227  0.106316227


 
 k-points in units of 2pi/SCALE and weight: Automatic kpoint scheme                 
   0.00000000  0.00000000  0.00000000       0.016
   0.02505897 -0.00885969  0.00000000       0.031
   0.05011795 -0.01771937  0.00000000       0.016
   0.00000000  0.02657906  0.00000000       0.094
   0.02505897  0.01771937  0.00000000       0.094
   0.05011795  0.00885969  0.00000000       0.094
  -0.02505897  0.03543874  0.00000000       0.094
   0.00000000  0.05315811  0.00000000       0.047
   0.02505897  0.04429843  0.00000000       0.094
   0.05011795  0.03543874  0.00000000       0.047
  -0.01252949  0.04429843  0.02170171       0.188
   0.01252949  0.03543874  0.02170171       0.094
  -0.03758846  0.05315811  0.02170171       0.094
 
 k-points in reciprocal lattice and weights: Automatic kpoint scheme                 
   0.00000000  0.00000000  0.00000000       0.016
   0.25000000  0.00000000  0.00000000       0.031
   0.50000000  0.00000000  0.00000000       0.016
   0.00000000  0.25000000  0.00000000       0.094
   0.25000000  0.25000000  0.00000000       0.094
   0.50000000  0.25000000  0.00000000       0.094
  -0.25000000  0.25000000  0.00000000       0.094
   0.00000000  0.50000000  0.00000000       0.047
   0.25000000  0.50000000  0.00000000       0.094
   0.50000000  0.50000000  0.00000000       0.047
   0.00000000  0.50000000  0.25000000       0.188
   0.25000000  0.50000000  0.25000000       0.094
  -0.25000000  0.50000000  0.25000000       0.094
 
 position of ions in fractional coordinates (direct lattice) 
   0.29166667  0.29166667  0.29166667
   0.29166667  0.29166667  0.62500000
   0.29166667  0.29166667  0.95833333
   0.29166667  0.62500000  0.29166667
   0.29166667  0.62500000  0.62500000
   0.29166667  0.62500000  0.95833333
   0.29166667  0.95833333  0.29166667
   0.29166667  0.95833333  0.62500000
   0.29166667  0.95833333  0.95833333
   0.62500000  0.29166667  0.29166667
   0.62500000  0.29166667  0.62500000
   0.62500000  0.29166667  0.95833333
   0.62500000  0.62500000  0.29166667
   0.62500000  0.62500000  0.62500000
   0.62500000  0.62500000  0.95833333
   0.62500000  0.95833333  0.29166667
   0.62500000  0.95833333  0.62500000
   0.62500000  0.95833333  0.95833333
   0.95833333  0.29166667  0.29166667
   0.95833333  0.29166667  0.62500000
   0.95833333  0.29166667  0.95833333
   0.95833333  0.62500000  0.29166667
   0.95833333  0.62500000  0.62500000
   0.95833333  0.62500000  0.95833333
   0.95833333  0.95833333  0.29166667
   0.95833333  0.95833333  0.62500000
   0.95833333  0.95833333  0.95833333
   0.04166667  0.04166667  0.04166667
   0.04166667  0.04166667  0.37500000
   0.04166667  0.04166667  0.70833333
   0.04166667  0.37500000  0.04166667
   0.04166667  0.37500000  0.37500000
   0.04166667  0.37500000  0.70833333
   0.04166667  0.70833333  0.04166667
   0.04166667  0.70833333  0.37500000
   0.04166667  0.70833333  0.70833333
   0.37500000  0.04166667  0.04166667
   0.37500000  0.04166667  0.37500000
   0.37500000  0.04166667  0.70833333
   0.37500000  0.37500000  0.04166667
   0.37500000  0.37500000  0.37500000
   0.37500000  0.37500000  0.70833333
   0.37500000  0.70833333  0.04166667
   0.37500000  0.70833333  0.37500000
   0.37500000  0.70833333  0.70833333
   0.70833333  0.04166667  0.04166667
   0.70833333  0.04166667  0.37500000
   0.70833333  0.04166667  0.70833333
   0.70833333  0.37500000  0.04166667
   0.70833333  0.37500000  0.37500000
   0.70833333  0.37500000  0.70833333
   0.70833333  0.70833333  0.04166667
   0.70833333  0.70833333  0.37500000
   0.70833333  0.70833333  0.70833333
   0.66666667  0.50000000  0.50000000
 
 position of ions in cartesian coordinates  (Angst):
   3.87973659  2.74338806  6.71990091
   3.87973659  2.74338806 10.55984429
   3.87973659  2.74338806 14.39978767
   4.98823276  5.87868870  8.63987260
   4.98823276  5.87868870 12.47981598
   4.98823276  5.87868870 16.31975937
   6.09672893  9.01398934 10.55984429
   6.09672893  9.01398934 14.39978767
   6.09672893  9.01398934 18.23973106
   7.20522510  2.74338806  8.63987260
   7.20522510  2.74338806 12.47981598
   7.20522510  2.74338806 16.31975937
   8.31372128  5.87868870 10.55984429
   8.31372128  5.87868870 14.39978767
   8.31372128  5.87868870 18.23973106
   9.42221745  9.01398934 12.47981598
   9.42221745  9.01398934 16.31975937
   9.42221745  9.01398934 20.15970275
  10.53071362  2.74338806 10.55984429
  10.53071362  2.74338806 14.39978767
  10.53071362  2.74338806 18.23973106
  11.63920979  5.87868870 12.47981598
  11.63920979  5.87868870 16.31975937
  11.63920979  5.87868870 20.15970275
  12.74770596  9.01398934 14.39978767
  12.74770596  9.01398934 18.23973106
  12.74770596  9.01398934 22.07967444
   0.55424808  0.39191258  0.95998584
   0.55424808  0.39191258  4.79992922
   0.55424808  0.39191258  8.63987260
   1.66274425  3.52721322  2.87995753
   1.66274425  3.52721322  6.71990091
   1.66274425  3.52721322 10.55984430
   2.77124042  6.66251386  4.79992922
   2.77124042  6.66251386  8.63987261
   2.77124042  6.66251386 12.47981599
   3.87973659  0.39191258  2.87995753
   3.87973659  0.39191258  6.71990091
   3.87973659  0.39191258 10.55984430
   4.98823277  3.52721322  4.79992922
   4.98823277  3.52721322  8.63987261
   4.98823277  3.52721322 12.47981599
   6.09672894  6.66251386  6.71990091
   6.09672894  6.66251386 10.55984430
   6.09672894  6.66251386 14.39978768
   7.20522511  0.39191258  4.79992922
   7.20522511  0.39191258  8.63987261
   7.20522511  0.39191258 12.47981599
   8.31372128  3.52721322  6.71990091
   8.31372128  3.52721322 10.55984430
   8.31372128  3.52721322 14.39978768
   9.42221745  6.66251386  8.63987260
   9.42221745  6.66251386 12.47981599
   9.42221745  6.66251386 16.31975937
   8.31372127  4.70295096 12.47981598
 


--------------------------------------------------------------------------------------------------------


 k-point  1 :   0.0000 0.0000 0.0000  plane waves:   31415
 k-point  2 :   0.2500 0.0000 0.0000  plane waves:   31608
 k-point  3 :   0.5000 0.0000 0.0000  plane waves:   31638
 k-point  4 :   0.0000 0.2500 0.0000  plane waves:   31608
 k-point  5 :   0.2500 0.2500 0.0000  plane waves:   31695
 k-point  6 :   0.5000 0.2500 0.0000  plane waves:   31649
 k-point  7 :  -0.2500 0.2500 0.0000  plane waves:   31674
 k-point  8 :   0.0000 0.5000 0.0000  plane waves:   31638
 k-point  9 :   0.2500 0.5000 0.0000  plane waves:   31649
 k-point 10 :   0.5000 0.5000 0.0000  plane waves:   31716
 k-point 11 :   0.0000 0.5000 0.2500  plane waves:   31649
 k-point 12 :   0.2500 0.5000 0.2500  plane waves:   31674
 k-point 13 :  -0.2500 0.5000 0.2500  plane waves:   31684

 maximum and minimum number of plane-waves per node :     31716    31415

 maximum number of plane-waves:     31716
 maximum index in each direction: 
   IXMAX=   22   IYMAX=   22   IZMAX=   22
   IXMIN=  -22   IYMIN=  -22   IZMIN=  -22


 serial   3D FFT for wavefunctions
 parallel 3D FFT for charge:
    minimum data exchange during FFTs selected (reduces bandwidth)


 total amount of memory used by VASP MPI-rank0   149529. kBytes
=======================================================================

   base      :      30000. kBytes
   nonl-proj :      54318. kBytes
   fftplans  :       5382. kBytes
   grid      :      19496. kBytes
   one-center:        168. kBytes
   wavefun   :      40165. kBytes
 
     INWAV:  cpu time    0.0000: real time    0.0000
 Broyden mixing: mesh for mixing (old mesh)
   NGX = 45   NGY = 45   NGZ = 45
  (NGX  =140   NGY  =140   NGZ  =140)
  gives a total of  91125 points

 initial charge density was supplied:
 charge density of overlapping atoms calculated
 number of electron     220.0000000 magnetization 
 keeping initial charge density in first step


--------------------------------------------------------------------------------------------------------


 Maximum index for augmentation-charges          505 (set IRDMAX)


--------------------------------------------------------------------------------------------------------


 First call to EWALD:  gamma=   0.173
 Maximum number of real-space cells 3x 3x 3
 Maximum number of reciprocal cells 3x 3x 3

    FEWALD:  cpu time    0.0792: real time    0.0800


--------------------------------------- Iteration      1(   1)  ---------------------------------------


    POTLOK:  cpu time    0.2206: real time    0.2273
    SETDIJ:  cpu time    0.0915: real time    0.0928
     EDDAV:  cpu time    5.6965: real time    5.7495
       DOS:  cpu time    0.0054: real time    0.0067
    --------------------------------------------
      LOOP:  cpu time    6.0141: real time    6.0764

 eigenvalue-minimisations  :  3744
 total energy-change (2. order) : 0.5920679E+03  (-0.8791645E+04)
 number of electron     220.0000000 magnetization 
 augmentation part      220.0000000 magnetization 

 Free energy of the ion-electron system (eV)
  ---------------------------------------------------
  alpha Z        PSCENC =        94.20124788
  Ewald energy   TEWEN  =     -6273.82433833
  -Hartree energ DENC   =      -337.91230673
  -exchange      EXHF   =         0.00000000
  -V(xc)+E(xc)   XCENC  =      -508.97838230
  PAW double counting   =      4846.80897882    -3879.17847845
  entropy T*S    EENTRO =        -0.02144066
  eigenvalues    EBANDS =       982.31682883
  atomic energy  EATOM  =      5668.65580356
  Solvation  Ediel_sol  =         0.00000000
  ---------------------------------------------------
  free energy    TOTEN  =       592.06791263 eV

  energy without entropy =      592.08935329  energy(sigma->0) =      592.07863296


--------------------------------------------------------------------------------------------------------




--------------------------------------- Iteration      1(   2)  ---------------------------------------


     EDDAV:  cpu time    6.8294: real time    6.8848
       DOS:  cpu time    0.0051: real time    0.0051
    --------------------------------------------
      LOOP:  cpu time    6.8345: real time    6.8900

 eigenvalue-minimisations  :  4608
 total energy-change (2. order) :-0.8379404E+03  (-0.8071948E+03)
 number of electron     220.0000000 magnetization 
 augmentation part      220.0000000 magnetization 

 Free energy of the ion-electron system (eV)
  ---------------------------------------------------
  alpha Z        PSCENC =        94.20124788
  Ewald energy   TEWEN  =     -6273.82433833
  -Hartree energ DENC   =      -337.91230673
  -exchange      EXHF   =         0.00000000
  -V(xc)+E(xc)   XCENC  =      -508.97838230
  PAW double counting   =      4846.80897882    -3879.17847845
  entropy T*S    EENTRO =        -0.00262259
  eigenvalues    EBANDS =       144.35759531
  atomic energy  EATOM  =      5668.65580356
  Solvation  Ediel_sol  =         0.00000000
  ---------------------------------------------------
  free energy    TOTEN  =      -245.87250282 eV

  energy without entropy =     -245.86988023  energy(sigma->0) =     -245.87119153


--------------------------------------------------------------------------------------------------------




--------------------------------------- Iteration      1(   3)  ---------------------------------------


     EDDAV:  cpu time    6.8142: real time    6.8715
       DOS:  cpu time    0.0048: real time    0.0048
    --------------------------------------------
      LOOP:  cpu time    6.8190: real time    6.8763

 eigenvalue-minimisations  :  4680
 total energy-change (2. order) :-0.5207292E+02  (-0.5141574E+02)
 number of electron     220.0000000 magnetization 
 augmentation part      220.0000000 magnetization 

 Free energy of the ion-electron system (eV)
  ---------------------------------------------------
  alpha Z        PSCENC =        94.20124788
  Ewald energy   TEWEN  =     -6273.82433833
  -Hartree energ DENC   =      -337.91230673
  -exchange      EXHF   =         0.00000000
  -V(xc)+E(xc)   XCENC  =      -508.97838230
  PAW double counting   =      4846.80897882    -3879.17847845
  entropy T*S    EENTRO =        -0.00000000
  eigenvalues    EBANDS =        92.28205134
  atomic energy  EATOM  =      5668.65580356
  Solvation  Ediel_sol  =         0.00000000
  ---------------------------------------------------
  free energy    TOTEN  =      -297.94542421 eV

  energy without entropy =     -297.94542421  energy(sigma->0) =     -297.94542421


--------------------------------------------------------------------------------------------------------




--------------------------------------- Iteration      1(   4)  ---------------------------------------


     EDDAV:  cpu time    6.9761: real time    7.0342
       DOS:  cpu time    0.0053: real time    0.0053
    --------------------------------------------
      LOOP:  cpu time    6.9815: real time    7.0395

 eigenvalue-minimisations  :  4728
 total energy-change (2. order) :-0.1070898E+01  (-0.1066466E+01)
 number of electron     220.0000000 magnetization 
 augmentation part      220.0000000 magnetization 

 Free energy of the ion-electron system (eV)
  ---------------------------------------------------
  alpha Z        PSCENC =        94.20124788
  Ewald energy   TEWEN  =     -6273.82433833
  -Hartree energ DENC   =      -337.91230673
  -exchange      EXHF   =         0.00000000
  -V(xc)+E(xc)   XCENC  =      -508.97838230
  PAW double counting   =      4846.80897882    -3879.17847845
  entropy T*S    EENTRO =        -0.00000000
  eigenvalues    EBANDS =        91.21115362
  atomic energy  EATOM  =      5668.65580356
  Solvation  Ediel_sol  =         0.00000000
  ---------------------------------------------------
  free energy    TOTEN  =      -299.01632193 eV

  energy without entropy =     -299.01632193  energy(sigma->0) =     -299.01632193


--------------------------------------------------------------------------------------------------------




--------------------------------------- Iteration      1(   5)  ---------------------------------------


     EDDAV:  cpu time    6.5743: real time    6.6458
       DOS:  cpu time    0.0057: real time    0.0057
    CHARGE:  cpu time    0.2256: real time    0.2285
    MIXING:  cpu time    0.0039: real time    0.0045
    --------------------------------------------
      LOOP:  cpu time    6.8097: real time    6.8846

 eigenvalue-minimisations  :  4584
 total energy-change (2. order) :-0.2213939E-01  (-0.2212526E-01)
 number of electron     220.0000000 magnetization 
 augmentation part      -12.9968156 magnetization 

 Broyden mixing:
  rms(total) = 0.26262E+01    rms(broyden)= 0.26262E+01
  rms(prec ) = 0.30242E+01
  weight for this iteration     100.00

 Free energy of the ion-electron system (eV)
  ---------------------------------------------------
  alpha Z        PSCENC =        94.20124788
  Ewald energy   TEWEN  =     -6273.82433833
  -Hartree energ DENC   =      -337.91230673
  -exchange      EXHF   =         0.00000000
  -V(xc)+E(xc)   XCENC  =      -508.97838230
  PAW double counting   =      4846.80897882    -3879.17847845
  entropy T*S    EENTRO =        -0.00000000
  eigenvalues    EBANDS =        91.18901423
  atomic energy  EATOM  =      5668.65580356
  Solvation  Ediel_sol  =         0.00000000
  ---------------------------------------------------
  free energy    TOTEN  =      -299.03846132 eV

  energy without entropy =     -299.03846132  energy(sigma->0) =     -299.03846132


--------------------------------------------------------------------------------------------------------




--------------------------------------- Iteration      1(   6)  ---------------------------------------


    POTLOK:  cpu time    0.0810: real time    0.0822
    SETDIJ:  cpu time    0.0049: real time    0.0050
     EDDAV:  cpu time    7.1062: real time    7.1630
       DOS:  cpu time    0.0066: real time    0.0066
    CHARGE:  cpu time    0.2175: real time    0.2190
    MIXING:  cpu time    0.0040: real time    0.0047
    --------------------------------------------
      LOOP:  cpu time    7.4204: real time    7.4805

 eigenvalue-minimisations  :  4872
 total energy-change (2. order) : 0.2387023E+01  (-0.1144043E+00)
 number of electron     220.0000000 magnetization 
 augmentation part      -12.9179807 magnetization 

 Broyden mixing:
  rms(total) = 0.21118E+01    rms(broyden)= 0.21118E+01
  rms(prec ) = 0.24036E+01
  weight for this iteration     100.00

 eigenvalues of (default mixing * dielectric matrix)
  average eigenvalue GAMMA=   4.9783
  4.9783

 Free energy of the ion-electron system (eV)
  ---------------------------------------------------
  alpha Z        PSCENC =        94.20124788
  Ewald energy   TEWEN  =     -6273.82433833
  -Hartree energ DENC   =      -359.26189609
  -exchange      EXHF   =         0.00000000
  -V(xc)+E(xc)   XCENC  =      -505.87065822
  PAW double counting   =      7404.89556356    -6438.78092747
  entropy T*S    EENTRO =        -0.00000000
  eigenvalues    EBANDS =       113.33376666
  atomic energy  EATOM  =      5668.65580356
  Solvation  Ediel_sol  =         0.00000000
  ---------------------------------------------------
  free energy    TOTEN  =      -296.65143845 eV

  energy without entropy =     -296.65143845  energy(sigma->0) =     -296.65143845


--------------------------------------------------------------------------------------------------------




--------------------------------------- Iteration      1(   7)  ---------------------------------------


    POTLOK:  cpu time    0.0854: real time    0.0865
    SETDIJ:  cpu time    0.0040: real time    0.0040
     EDDAV:  cpu time    6.4875: real time    6.5412
       DOS:  cpu time    0.0069: real time    0.0070
    CHARGE:  cpu time    0.2177: real time    0.2192
    MIXING:  cpu time    0.0036: real time    0.0036
    --------------------------------------------
      LOOP:  cpu time    6.8052: real time    6.8615

 eigenvalue-minimisations  :  4440
 total energy-change (2. order) : 0.2977053E+01  (-0.9840951E+00)
 number of electron     220.0000000 magnetization 
 augmentation part      -12.6561804 magnetization 

 Broyden mixing:
  rms(total) = 0.34975E+00    rms(broyden)= 0.34975E+00
  rms(prec ) = 0.51743E+00
  weight for this iteration     100.00

 eigenvalues of (default mixing * dielectric matrix)
  average eigenvalue GAMMA=   3.3305
  1.7245  4.9366

 Free energy of the ion-electron system (eV)
  ---------------------------------------------------
  alpha Z        PSCENC =        94.20124788
  Ewald energy   TEWEN  =     -6273.82433833
  -Hartree energ DENC   =      -440.68047196
  -exchange      EXHF   =         0.00000000
  -V(xc)+E(xc)   XCENC  =      -493.49612505
  PAW double counting   =     22194.01716179   -21233.14719454
  entropy T*S    EENTRO =        -0.00175236
  eigenvalues    EBANDS =       190.60128368
  atomic energy  EATOM  =      5668.65580356
  Solvation  Ediel_sol  =         0.00000000
  ---------------------------------------------------
  free energy    TOTEN  =      -293.67438533 eV

  energy without entropy =     -293.67263298  energy(sigma->0) =     -293.67350915


--------------------------------------------------------------------------------------------------------




--------------------------------------- Iteration      1(   8)  ---------------------------------------


    POTLOK:  cpu time    0.0810: real time    0.0821
    SETDIJ:  cpu time    0.0038: real time    0.0038
     EDDAV:  cpu time    6.4132: real time    6.4671
       DOS:  cpu time    0.0067: real time    0.0067
    CHARGE:  cpu time    0.2166: real time    0.2180
    MIXING:  cpu time    0.0054: real time    0.0055
    --------------------------------------------
      LOOP:  cpu time    6.7267: real time    6.7833

 eigenvalue-minimisations  :  4392
 total energy-change (2. order) : 0.1401034E+00  (-0.2233854E+00)
 number of electron     220.0000000 magnetization 
 augmentation part      -12.6606065 magnetization 

 Broyden mixing:
  rms(total) = 0.16612E+00    rms(broyden)= 0.16612E+00
  rms(prec ) = 0.19951E+00
  weight for this iteration     100.00

 eigenvalues of (default mixing * dielectric matrix)
  average eigenvalue GAMMA=   2.5354
  5.0560  1.2750  1.2750

 Free energy of the ion-electron system (eV)
  ---------------------------------------------------
  alpha Z        PSCENC =        94.20124788
  Ewald energy   TEWEN  =     -6273.82433833
  -Hartree energ DENC   =      -444.26606217
  -exchange      EXHF   =         0.00000000
  -V(xc)+E(xc)   XCENC  =      -492.24004760
  PAW double counting   =     24447.87455070   -23487.01547844
  entropy T*S    EENTRO =        -0.00000432
  eigenvalues    EBANDS =       193.08004675
  atomic energy  EATOM  =      5668.65580356
  Solvation  Ediel_sol  =         0.00000000
  ---------------------------------------------------
  free energy    TOTEN  =      -293.53428196 eV

  energy without entropy =     -293.53427765  energy(sigma->0) =     -293.53427981


--------------------------------------------------------------------------------------------------------




--------------------------------------- Iteration      1(   9)  ---------------------------------------


    POTLOK:  cpu time    0.0807: real time    0.0818
    SETDIJ:  cpu time    0.0049: real time    0.0049
     EDDAV:  cpu time    6.7307: real time    6.7868
       DOS:  cpu time    0.0071: real time    0.0071
    CHARGE:  cpu time    0.2168: real time    0.2182
    MIXING:  cpu time    0.0051: real time    0.0052
    --------------------------------------------
      LOOP:  cpu time    7.0454: real time    7.1040

 eigenvalue-minimisations  :  4512
 total energy-change (2. order) :-0.1548149E-01  (-0.2190721E-01)
 number of electron     220.0000000 magnetization 
 augmentation part      -12.6533969 magnetization 

 Broyden mixing:
  rms(total) = 0.87076E-01    rms(broyden)= 0.87076E-01
  rms(prec ) = 0.11663E+00
  weight for this iteration     100.00

 eigenvalues of (default mixing * dielectric matrix)
  average eigenvalue GAMMA=   2.2740
  4.8647  1.9178  1.1569  1.1569

 Free energy of the ion-electron system (eV)
  ---------------------------------------------------
  alpha Z        PSCENC =        94.20124788
  Ewald energy   TEWEN  =     -6273.82433833
  -Hartree energ DENC   =      -446.57363311
  -exchange      EXHF   =         0.00000000
  -V(xc)+E(xc)   XCENC  =      -491.89340973
  PAW double counting   =     24980.09242070   -24019.25951665
  entropy T*S    EENTRO =        -0.00003642
  eigenvalues    EBANDS =       195.05169865
  atomic energy  EATOM  =      5668.65580356
  Solvation  Ediel_sol  =         0.00000000
  ---------------------------------------------------
  free energy    TOTEN  =      -293.54976345 eV

  energy without entropy =     -293.54972703  energy(sigma->0) =     -293.54974524


--------------------------------------------------------------------------------------------------------




--------------------------------------- Iteration      1(  10)  ---------------------------------------


    POTLOK:  cpu time    0.0797: real time    0.0809
    SETDIJ:  cpu time    0.0030: real time    0.0030
     EDDAV:  cpu time    7.2062: real time    7.2680
       DOS:  cpu time    0.0067: real time    0.0067
    CHARGE:  cpu time    0.2181: real time    0.2195
    MIXING:  cpu time    0.0038: real time    0.0039
    --------------------------------------------
      LOOP:  cpu time    7.5176: real time    7.5821

 eigenvalue-minimisations  :  4824
 total energy-change (2. order) : 0.6332623E-02  (-0.3308580E-02)
 number of electron     220.0000000 magnetization 
 augmentation part      -12.6629159 magnetization 

 Broyden mixing:
  rms(total) = 0.66141E-01    rms(broyden)= 0.66141E-01
  rms(prec ) = 0.79982E-01
  weight for this iteration     100.00

 eigenvalues of (default mixing * dielectric matrix)
  average eigenvalue GAMMA=   2.5658
  4.3726  4.3726  1.6304  1.6304  0.8228

 Free energy of the ion-electron system (eV)
  ---------------------------------------------------
  alpha Z        PSCENC =        94.20124788
  Ewald energy   TEWEN  =     -6273.82433833
  -Hartree energ DENC   =      -445.03302077
  -exchange      EXHF   =         0.00000000
  -V(xc)+E(xc)   XCENC  =      -492.04673423
  PAW double counting   =     24771.21110559   -23810.14323195
  entropy T*S    EENTRO =        -0.00002981
  eigenvalues    EBANDS =       193.43576724
  atomic energy  EATOM  =      5668.65580356
  Solvation  Ediel_sol  =         0.00000000
  ---------------------------------------------------
  free energy    TOTEN  =      -293.54343083 eV

  energy without entropy =     -293.54340101  energy(sigma->0) =     -293.54341592


--------------------------------------------------------------------------------------------------------




--------------------------------------- Iteration      1(  11)  ---------------------------------------


    POTLOK:  cpu time    0.0796: real time    0.0837
    SETDIJ:  cpu time    0.0029: real time    0.0029
     EDDAV:  cpu time    7.0568: real time    7.1145
       DOS:  cpu time    0.0056: real time    0.0056
    CHARGE:  cpu time    0.2172: real time    0.2187
    MIXING:  cpu time    0.0042: real time    0.0042
    --------------------------------------------
      LOOP:  cpu time    7.3663: real time    7.4296

 eigenvalue-minimisations  :  4776
 total energy-change (2. order) :-0.5627674E-02  (-0.3840055E-02)
 number of electron     220.0000000 magnetization 
 augmentation part      -12.6769371 magnetization 

 Broyden mixing:
  rms(total) = 0.42400E-01    rms(broyden)= 0.42400E-01
  rms(prec ) = 0.54337E-01
  weight for this iteration     100.00

 eigenvalues of (default mixing * dielectric matrix)
  average eigenvalue GAMMA=   2.4053
  4.8575  3.0658  3.0658  1.3040  1.3040  0.8348

 Free energy of the ion-electron system (eV)
  ---------------------------------------------------
  alpha Z        PSCENC =        94.20124788
  Ewald energy   TEWEN  =     -6273.82433833
  -Hartree energ DENC   =      -443.44889674
  -exchange      EXHF   =         0.00000000
  -V(xc)+E(xc)   XCENC  =      -492.13086718
  PAW double counting   =     24607.09312937   -23645.73946623
  entropy T*S    EENTRO =        -0.00000758
  eigenvalues    EBANDS =       191.64433675
  atomic energy  EATOM  =      5668.65580356
  Solvation  Ediel_sol  =         0.00000000
  ---------------------------------------------------
  free energy    TOTEN  =      -293.54905850 eV

  energy without entropy =     -293.54905092  energy(sigma->0) =     -293.54905471


--------------------------------------------------------------------------------------------------------




--------------------------------------- Iteration      1(  12)  ---------------------------------------


    POTLOK:  cpu time    0.0829: real time    0.0841
    SETDIJ:  cpu time    0.0051: real time    0.0051
     EDDAV:  cpu time    7.0790: real time    7.1379
       DOS:  cpu time    0.0060: real time    0.0060
    CHARGE:  cpu time    0.2445: real time    0.2462
    MIXING:  cpu time    0.0048: real time    0.0048
    --------------------------------------------
      LOOP:  cpu time    7.4223: real time    7.4841

 eigenvalue-minimisations  :  4656
 total energy-change (2. order) :-0.1475883E-02  (-0.1831372E-02)
 number of electron     220.0000000 magnetization 
 augmentation part      -12.6747472 magnetization 

 Broyden mixing:
  rms(total) = 0.20089E-01    rms(broyden)= 0.20089E-01
  rms(prec ) = 0.25213E-01
  weight for this iteration     100.00

 eigenvalues of (default mixing * dielectric matrix)
  average eigenvalue GAMMA=   2.6504
  5.3033  5.3033  2.8125  1.6444  1.6444  0.9871  0.8576

 Free energy of the ion-electron system (eV)
  ---------------------------------------------------
  alpha Z        PSCENC =        94.20124788
  Ewald energy   TEWEN  =     -6273.82433833
  -Hartree energ DENC   =      -444.81757374
  -exchange      EXHF   =         0.00000000
  -V(xc)+E(xc)   XCENC  =      -491.93108716
  PAW double counting   =     24745.99707104   -23784.65640288
  entropy T*S    EENTRO =        -0.00002853
  eigenvalues    EBANDS =       192.82477378
  atomic energy  EATOM  =      5668.65580356
  Solvation  Ediel_sol  =         0.00000000
  ---------------------------------------------------
  free energy    TOTEN  =      -293.55053439 eV

  energy without entropy =     -293.55050585  energy(sigma->0) =     -293.55052012


--------------------------------------------------------------------------------------------------------




--------------------------------------- Iteration      1(  13)  ---------------------------------------


    POTLOK:  cpu time    0.0809: real time    0.0823
    SETDIJ:  cpu time    0.0043: real time    0.0043
     EDDAV:  cpu time    6.8393: real time    6.9241
       DOS:  cpu time    0.0060: real time    0.0060
    CHARGE:  cpu time    0.2170: real time    0.2184
    MIXING:  cpu time    0.0044: real time    0.0044
    --------------------------------------------
      LOOP:  cpu time    7.1518: real time    7.2396

 eigenvalue-minimisations  :  4680
 total energy-change (2. order) :-0.1352081E-02  (-0.4945865E-03)
 number of electron     220.0000000 magnetization 
 augmentation part      -12.6782332 magnetization 

 Broyden mixing:
  rms(total) = 0.10865E-01    rms(broyden)= 0.10865E-01
  rms(prec ) = 0.12957E-01
  weight for this iteration     100.00

 eigenvalues of (default mixing * dielectric matrix)
  average eigenvalue GAMMA=   2.6211
  5.8959  4.5529  3.6438  1.9199  1.9199  1.0946  1.0946  0.8475

 Free energy of the ion-electron system (eV)
  ---------------------------------------------------
  alpha Z        PSCENC =        94.20124788
  Ewald energy   TEWEN  =     -6273.82433833
  -Hartree energ DENC   =      -444.55657874
  -exchange      EXHF   =         0.00000000
  -V(xc)+E(xc)   XCENC  =      -491.92441971
  PAW double counting   =     24568.25918717   -23606.81365022
  entropy T*S    EENTRO =        -0.00002019
  eigenvalues    EBANDS =       192.45088212
  atomic energy  EATOM  =      5668.65580356
  Solvation  Ediel_sol  =         0.00000000
  ---------------------------------------------------
  free energy    TOTEN  =      -293.55188647 eV

  energy without entropy =     -293.55186627  energy(sigma->0) =     -293.55187637


--------------------------------------------------------------------------------------------------------




--------------------------------------- Iteration      1(  14)  ---------------------------------------


    POTLOK:  cpu time    0.0838: real time    0.0852
    SETDIJ:  cpu time    0.0041: real time    0.0041
     EDDAV:  cpu time    6.7713: real time    6.8264
       DOS:  cpu time    0.0061: real time    0.0061
    CHARGE:  cpu time    0.2179: real time    0.2193
    MIXING:  cpu time    0.0046: real time    0.0046
    --------------------------------------------
      LOOP:  cpu time    7.0878: real time    7.1457

 eigenvalue-minimisations  :  4680
 total energy-change (2. order) : 0.2969763E-04  (-0.7946575E-04)
 number of electron     220.0000000 magnetization 
 augmentation part      -12.6773789 magnetization 

 Broyden mixing:
  rms(total) = 0.58393E-02    rms(broyden)= 0.58393E-02
  rms(prec ) = 0.63759E-02
  weight for this iteration     100.00

 eigenvalues of (default mixing * dielectric matrix)
  average eigenvalue GAMMA=   2.5572
  5.8930  4.5618  4.5618  2.0140  2.0140  1.1687  1.1687  0.8163  0.8163

 Free energy of the ion-electron system (eV)
  ---------------------------------------------------
  alpha Z        PSCENC =        94.20124788
  Ewald energy   TEWEN  =     -6273.82433833
  -Hartree energ DENC   =      -445.03429101
  -exchange      EXHF   =         0.00000000
  -V(xc)+E(xc)   XCENC  =      -491.86086569
  PAW double counting   =     24612.54855303   -23651.13626943
  entropy T*S    EENTRO =        -0.00001969
  eigenvalues    EBANDS =       192.89832291
  atomic energy  EATOM  =      5668.65580356
  Solvation  Ediel_sol  =         0.00000000
  ---------------------------------------------------
  free energy    TOTEN  =      -293.55185677 eV

  energy without entropy =     -293.55183708  energy(sigma->0) =     -293.55184692


--------------------------------------------------------------------------------------------------------




--------------------------------------- Iteration      1(  15)  ---------------------------------------


    POTLOK:  cpu time    0.0832: real time    0.0845
    SETDIJ:  cpu time    0.0047: real time    0.0047
     EDDAV:  cpu time    6.8737: real time    6.9307
       DOS:  cpu time    0.0059: real time    0.0059
    CHARGE:  cpu time    0.2179: real time    0.2194
    MIXING:  cpu time    0.0048: real time    0.0048
    --------------------------------------------
      LOOP:  cpu time    7.1902: real time    7.2501

 eigenvalue-minimisations  :  4656
 total energy-change (2. order) :-0.3475703E-04  (-0.9941149E-05)
 number of electron     220.0000000 magnetization 
 augmentation part      -12.6766294 magnetization 

 Broyden mixing:
  rms(total) = 0.37836E-02    rms(broyden)= 0.37836E-02
  rms(prec ) = 0.44485E-02
  weight for this iteration     100.00

 eigenvalues of (default mixing * dielectric matrix)
  average eigenvalue GAMMA=   2.4774
  6.3398  4.6209  4.2473  2.0784  2.0784  1.3081  1.3081  0.8413  0.9757  0.9757

 Free energy of the ion-electron system (eV)
  ---------------------------------------------------
  alpha Z        PSCENC =        94.20124788
  Ewald energy   TEWEN  =     -6273.82433833
  -Hartree energ DENC   =      -445.17256603
  -exchange      EXHF   =         0.00000000
  -V(xc)+E(xc)   XCENC  =      -491.85049610
  PAW double counting   =     24585.75499141   -23624.35601695
  entropy T*S    EENTRO =        -0.00001966
  eigenvalues    EBANDS =       193.03950269
  atomic energy  EATOM  =      5668.65580356
  Solvation  Ediel_sol  =         0.00000000
  ---------------------------------------------------
  free energy    TOTEN  =      -293.55189153 eV

  energy without entropy =     -293.55187186  energy(sigma->0) =     -293.55188169


--------------------------------------------------------------------------------------------------------




--------------------------------------- Iteration      1(  16)  ---------------------------------------


    POTLOK:  cpu time    0.0832: real time    0.0845
    SETDIJ:  cpu time    0.0047: real time    0.0047
     EDDAV:  cpu time    7.0259: real time    7.0833
       DOS:  cpu time    0.0057: real time    0.0057
    CHARGE:  cpu time    0.2201: real time    0.2217
    MIXING:  cpu time    0.0051: real time    0.0052
    --------------------------------------------
      LOOP:  cpu time    7.3447: real time    7.4051

 eigenvalue-minimisations  :  4752
 total energy-change (2. order) : 0.1216810E-04  (-0.5094375E-05)
 number of electron     220.0000000 magnetization 
 augmentation part      -12.6768888 magnetization 

 Broyden mixing:
  rms(total) = 0.22988E-02    rms(broyden)= 0.22988E-02
  rms(prec ) = 0.24787E-02
  weight for this iteration     100.00

 eigenvalues of (default mixing * dielectric matrix)
  average eigenvalue GAMMA=   2.4765
  5.8126  4.6096  4.6096  2.6191  2.6191  1.6966  1.2836  1.1063  1.1063  0.8754
  0.9029

 Free energy of the ion-electron system (eV)
  ---------------------------------------------------
  alpha Z        PSCENC =        94.20124788
  Ewald energy   TEWEN  =     -6273.82433833
  -Hartree energ DENC   =      -445.14784586
  -exchange      EXHF   =         0.00000000
  -V(xc)+E(xc)   XCENC  =      -491.85108267
  PAW double counting   =     24574.59651772   -23613.19031786
  entropy T*S    EENTRO =        -0.00001874
  eigenvalues    EBANDS =       193.00815494
  atomic energy  EATOM  =      5668.65580356
  Solvation  Ediel_sol  =         0.00000000
  ---------------------------------------------------
  free energy    TOTEN  =      -293.55187936 eV

  energy without entropy =     -293.55186062  energy(sigma->0) =     -293.55186999


--------------------------------------------------------------------------------------------------------




--------------------------------------- Iteration      1(  17)  ---------------------------------------


    POTLOK:  cpu time    0.0832: real time    0.0846
    SETDIJ:  cpu time    0.0050: real time    0.0050
     EDDAV:  cpu time    6.6057: real time    6.6620
       DOS:  cpu time    0.0058: real time    0.0059
    CHARGE:  cpu time    0.2184: real time    0.2198
    MIXING:  cpu time    0.0053: real time    0.0053
    --------------------------------------------
      LOOP:  cpu time    6.9234: real time    6.9825

 eigenvalue-minimisations  :  4560
 total energy-change (2. order) :-0.1901637E-05  (-0.1586925E-05)
 number of electron     220.0000000 magnetization 
 augmentation part      -12.6768327 magnetization 

 Broyden mixing:
  rms(total) = 0.15267E-02    rms(broyden)= 0.15267E-02
  rms(prec ) = 0.16810E-02
  weight for this iteration     100.00

 eigenvalues of (default mixing * dielectric matrix)
  average eigenvalue GAMMA=   2.4198
  6.3713  4.6417  4.6417  2.6251  2.6251  1.6888  1.3735  1.1740  1.1740  0.8424
  0.9401  0.9401

 Free energy of the ion-electron system (eV)
  ---------------------------------------------------
  alpha Z        PSCENC =        94.20124788
  Ewald energy   TEWEN  =     -6273.82433833
  -Hartree energ DENC   =      -445.14923115
  -exchange      EXHF   =         0.00000000
  -V(xc)+E(xc)   XCENC  =      -491.85294701
  PAW double counting   =     24569.00327724   -23607.59864032
  entropy T*S    EENTRO =        -0.00001847
  eigenvalues    EBANDS =       193.01296534
  atomic energy  EATOM  =      5668.65580356
  Solvation  Ediel_sol  =         0.00000000
  ---------------------------------------------------
  free energy    TOTEN  =      -293.55188126 eV

  energy without entropy =     -293.55186278  energy(sigma->0) =     -293.55187202


--------------------------------------------------------------------------------------------------------




--------------------------------------- Iteration      1(  18)  ---------------------------------------


    POTLOK:  cpu time    0.0845: real time    0.0857
    SETDIJ:  cpu time    0.0038: real time    0.0038
     EDDAV:  cpu time    5.6244: real time    5.6710
       DOS:  cpu time    0.0060: real time    0.0060
    --------------------------------------------
      LOOP:  cpu time    5.7185: real time    5.7664

 eigenvalue-minimisations  :  3600
 total energy-change (2. order) : 0.1296648E-06  (-0.2774330E-06)
 number of electron     220.0000000 magnetization 
 augmentation part      -12.6768327 magnetization 

 Free energy of the ion-electron system (eV)
  ---------------------------------------------------
  alpha Z        PSCENC =        94.20124788
  Ewald energy   TEWEN  =     -6273.82433833
  -Hartree energ DENC   =      -445.16408708
  -exchange      EXHF   =         0.00000000
  -V(xc)+E(xc)   XCENC  =      -491.85113017
  PAW double counting   =     24567.74281381   -23606.33796990
  entropy T*S    EENTRO =        -0.00001854
  eigenvalues    EBANDS =       193.02579763
  atomic energy  EATOM  =      5668.65580356
  Solvation  Ediel_sol  =         0.00000000
  ---------------------------------------------------
  free energy    TOTEN  =      -293.55188113 eV

  energy without entropy =     -293.55186259  energy(sigma->0) =     -293.55187186


--------------------------------------------------------------------------------------------------------




 average (electrostatic) potential at core
  the test charge radii are     0.9892
  (the norm of the test charge is              1.0000)
       1 -83.0386       2 -83.0533       3 -83.0533       4 -83.0533       5 -83.0217
       6 -83.0533       7 -83.0533       8 -83.0533       9 -83.0560      10 -83.1583
      11 -83.4401      12 -83.1583      13 -83.4401      14 -83.4401      15 -83.1382
      16 -83.1583      17 -83.1382      18 -83.1382      19 -83.0535      20 -83.0535
      21 -83.0499      22 -83.0535      23 -83.0395      24 -83.0395      25 -83.0499
      26 -83.0395      27 -83.0499      28 -83.0560      29 -83.0533      30 -83.0533
      31 -83.0533      32 -83.0217      33 -83.0533      34 -83.0533      35 -83.0533
      36 -83.0386      37 -83.0499      38 -83.0395      39 -83.0499      40 -83.0395
      41 -83.0395      42 -83.0535      43 -83.0499      44 -83.0535      45 -83.0535
      46 -83.1382      47 -83.1382      48 -83.1583      49 -83.1382      50 -83.4401
      51 -83.4401      52 -83.1583      53 -83.4401      54 -83.1583      55 -83.0531
 
 
 
 E-fermi :   6.4302     XC(G=0):  -9.4856     alpha+bet :-12.2031


 k-point     1 :       0.0000    0.0000    0.0000
  band No.  band energies     occupation 
      1      -7.0336      2.00000
      2      -5.6699      2.00000
      3      -5.0199      2.00000
      4      -5.0199      2.00000
      5      -4.6012      2.00000
      6      -4.5972      2.00000
      7      -4.5871      2.00000
      8      -4.5871      2.00000
      9      -4.5657      2.00000
     10      -4.2395      2.00000
     11      -4.1934      2.00000
     12      -4.1934      2.00000
     13      -4.0748      2.00000
     14      -4.0748      2.00000
     15      -4.0712      2.00000
     16      -3.2307      2.00000
     17      -3.2307      2.00000
     18      -2.9882      2.00000
     19      -2.7967      2.00000
     20      -2.7967      2.00000
     21      -2.7255      2.00000
     22      -2.7055      2.00000
     23      -2.7055      2.00000
     24      -2.6998      2.00000
     25      -2.6998      2.00000
     26      -2.6613      2.00000
     27      -2.6605      2.00000
     28      -1.4607      2.00000
     29      -1.1676      2.00000
     30      -1.1676      2.00000
     31      -0.9873      2.00000
     32      -0.9873      2.00000
     33      -0.8640      2.00000
     34      -0.7984      2.00000
     35      -0.7984      2.00000
     36      -0.7774      2.00000
     37      -0.7774      2.00000
     38      -0.7434      2.00000
     39      -0.7375      2.00000
     40      -0.2025      2.00000
     41       0.4273      2.00000
     42       0.4273      2.00000
     43       0.4323      2.00000
     44       0.4838      2.00000
     45       0.4838      2.00000
     46       0.6248      2.00000
     47       0.6540      2.00000
     48       0.8634      2.00000
     49       0.8634      2.00000
     50       0.9053      2.00000
     51       0.9053      2.00000
     52       0.9432      2.00000
     53       0.9554      2.00000
     54       1.0270      2.00000
     55       1.2534      2.00000
     56       1.4272      2.00000
     57       1.4900      2.00000
     58       1.4900      2.00000
     59       1.4956      2.00000
     60       1.4956      2.00000
     61       1.5918      2.00000
     62       1.6040      2.00000
     63       1.6040      2.00000
     64       1.6128      2.00000
     65       1.6128      2.00000
     66       2.7199      2.00000
     67       2.7199      2.00000
     68       3.2218      2.00000
     69       3.3896      2.00000
     70       3.3896      2.00000
     71       3.3976      2.00000
     72       3.5315      2.00000
     73       3.5315      2.00000
     74       3.5501      2.00000
     75       3.5784      2.00000
     76       3.5810      2.00000
     77       3.5810      2.00000
     78       3.7612      2.00000
     79       3.7612      2.00000
     80       3.8049      2.00000
     81       3.8049      2.00000
     82       3.8094      2.00000
     83       3.8171      2.00000
     84       3.8481      2.00000
     85       3.8481      2.00000
     86       3.8600      2.00000
     87       3.8600      2.00000
     88       3.8899      2.00000
     89       3.9003      2.00000
     90       4.6561      2.00000
     91       4.6561      2.00000
     92       4.7279      2.00000
     93       4.7279      2.00000
     94       4.8129      2.00000
     95       4.9077      2.00000
     96       4.9099      2.00000
     97       4.9415      2.00000
     98       4.9415      2.00000
     99       4.9965      2.00000
    100       4.9965      2.00000
    101       5.0000      2.00000
    102       5.0023      2.00000
    103       5.0023      2.00000
    104       5.0312      2.00000
    105       5.0312      2.00000
    106       5.2597      2.00000
    107       5.4303      2.00000
    108       5.9024      2.00000
    109       5.9024      2.00000
    110       5.9639      2.00000
    111       6.5385      0.00219
    112       6.5385      0.00219
    113       6.6204      0.00000
    114       6.6204      0.00000
    115       6.9533      0.00000
    116       7.0021      0.00000
    117       7.2603      0.00000
    118       7.2603      0.00000
    119       7.3359      0.00000
    120       7.3359      0.00000
    121       7.4004      0.00000
    122       7.4004      0.00000
    123       7.4924      0.00000
    124       7.5279      0.00000
    125       7.5383      0.00000
    126       7.5383      0.00000
    127       7.6417      0.00000
    128       7.6832      0.00000
    129       7.6832      0.00000
    130       7.6834      0.00000
    131       7.7128      0.00000
    132       7.7197      0.00000
    133       7.7197      0.00000
    134       7.7904      0.00000
    135       7.8536      0.00000
    136       7.8993      0.00000
    137       7.9233      0.00000
    138       7.9233      0.00000
    139       7.9353      0.00000
    140       7.9353      0.00000
    141       8.2182      0.00000
    142       8.2182      0.00000
    143       8.5036      0.00000
    144       8.9850      0.00000

 k-point     2 :       0.2500    0.0000    0.0000
  band No.  band energies     occupation 
      1      -7.0253      2.00000
      2      -5.6367      2.00000
      3      -5.0534      2.00000
      4      -5.0396      2.00000
      5      -5.0396      2.00000
      6      -4.6035      2.00000
      7      -4.5805      2.00000
      8      -4.5805      2.00000
      9      -4.3410      2.00000
     10      -4.3293      2.00000
     11      -4.3293      2.00000
     12      -4.0549      2.00000
     13      -3.7070      2.00000
     14      -3.7070      2.00000
     15      -3.7067      2.00000
     16      -3.3913      2.00000
     17      -3.3913      2.00000
     18      -3.3747      2.00000
     19      -2.9783      2.00000
     20      -2.9783      2.00000
     21      -2.7925      2.00000
     22      -2.7925      2.00000
     23      -2.6719      2.00000
     24      -2.6559      2.00000
     25      -2.6179      2.00000
     26      -2.4805      2.00000
     27      -2.4805      2.00000
     28      -1.3570      2.00000
     29      -1.2738      2.00000
     30      -1.2738      2.00000
     31      -1.0854      2.00000
     32      -1.0854      2.00000
     33      -0.9815      2.00000
     34      -0.9033      2.00000
     35      -0.9033      2.00000
     36      -0.7798      2.00000
     37      -0.7219      2.00000
     38      -0.5574      2.00000
     39      -0.4016      2.00000
     40      -0.4016      2.00000
     41      -0.0472      2.00000
     42       0.0772      2.00000
     43       0.0772      2.00000
     44       0.1609      2.00000
     45       0.1609      2.00000
     46       0.1791      2.00000
     47       0.6188      2.00000
     48       0.9783      2.00000
     49       0.9783      2.00000
     50       1.2194      2.00000
     51       1.3173      2.00000
     52       1.3173      2.00000
     53       1.4070      2.00000
     54       1.5612      2.00000
     55       1.5948      2.00000
     56       1.7314      2.00000
     57       1.7314      2.00000
     58       1.7505      2.00000
     59       1.7505      2.00000
     60       1.7895      2.00000
     61       1.7895      2.00000
     62       1.8884      2.00000
     63       1.8985      2.00000
     64       1.8985      2.00000
     65       2.0452      2.00000
     66       2.7105      2.00000
     67       2.7105      2.00000
     68       2.8237      2.00000
     69       3.0343      2.00000
     70       3.0343      2.00000
     71       3.3250      2.00000
     72       3.4069      2.00000
     73       3.4131      2.00000
     74       3.4131      2.00000
     75       3.4665      2.00000
     76       3.4665      2.00000
     77       3.5334      2.00000
     78       3.5362      2.00000
     79       3.5362      2.00000
     80       3.5941      2.00000
     81       3.6026      2.00000
     82       3.6253      2.00000
     83       3.6253      2.00000
     84       3.7936      2.00000
     85       3.7936      2.00000
     86       3.8345      2.00000
     87       4.0384      2.00000
     88       4.0542      2.00000
     89       4.0542      2.00000
     90       4.1370      2.00000
     91       4.1370      2.00000
     92       4.2279      2.00000
     93       4.5727      2.00000
     94       4.5727      2.00000
     95       4.5876      2.00000
     96       4.5889      2.00000
     97       4.5889      2.00000
     98       4.6452      2.00000
     99       4.7288      2.00000
    100       4.7288      2.00000
    101       4.9126      2.00000
    102       4.9126      2.00000
    103       4.9668      2.00000
    104       5.0549      2.00000
    105       5.1730      2.00000
    106       5.1730      2.00000
    107       5.3755      2.00000
    108       5.7693      2.00000
    109       5.7693      2.00000
    110       5.8873      2.00000
    111       6.7013      0.00000
    112       6.7013      0.00000
    113       6.8951      0.00000
    114       6.8951      0.00000
    115       7.1329      0.00000
    116       7.2441      0.00000
    117       7.2444      0.00000
    118       7.2444      0.00000
    119       7.5023      0.00000
    120       7.6645      0.00000
    121       7.6645      0.00000
    122       7.6682      0.00000
    123       7.7841      0.00000
    124       7.7841      0.00000
    125       7.9302      0.00000
    126       7.9302      0.00000
    127       7.9547      0.00000
    128       8.0003      0.00000
    129       8.0575      0.00000
    130       8.0575      0.00000
    131       8.0957      0.00000
    132       8.1272      0.00000
    133       8.1272      0.00000
    134       8.1373      0.00000
    135       8.2030      0.00000
    136       8.2030      0.00000
    137       8.2515      0.00000
    138       8.4417      0.00000
    139       8.4417      0.00000
    140       8.5361      0.00000
    141       8.5740      0.00000
    142       8.7274      0.00000
    143       8.7274      0.00000
    144       9.0594      0.00000

 k-point     3 :       0.5000    0.0000    0.0000
  band No.  band energies     occupation 
      1      -7.0169      2.00000
      2      -5.5720      2.00000
      3      -5.2834      2.00000
      4      -5.0490      2.00000
      5      -5.0490      2.00000
      6      -4.6705      2.00000
      7      -4.6705      2.00000
      8      -4.6617      2.00000
      9      -4.1718      2.00000
     10      -4.1139      2.00000
     11      -4.1139      2.00000
     12      -3.8964      2.00000
     13      -3.8557      2.00000
     14      -3.8557      2.00000
     15      -3.6845      2.00000
     16      -3.1915      2.00000
     17      -3.1872      2.00000
     18      -3.1872      2.00000
     19      -2.9372      2.00000
     20      -2.9372      2.00000
     21      -2.9237      2.00000
     22      -2.8183      2.00000
     23      -2.8183      2.00000
     24      -2.7667      2.00000
     25      -2.7667      2.00000
     26      -2.6503      2.00000
     27      -2.6498      2.00000
     28      -1.2890      2.00000
     29      -1.2890      2.00000
     30      -1.2606      2.00000
     31      -1.0791      2.00000
     32      -0.9662      2.00000
     33      -0.9662      2.00000
     34      -0.8196      2.00000
     35      -0.6821      2.00000
     36      -0.6821      2.00000
     37      -0.6714      2.00000
     38      -0.6276      2.00000
     39      -0.6276      2.00000
     40      -0.6265      2.00000
     41      -0.5347      2.00000
     42      -0.1234      2.00000
     43      -0.1234      2.00000
     44      -0.0607      2.00000
     45      -0.0607      2.00000
     46      -0.0294      2.00000
     47       0.7075      2.00000
     48       1.2878      2.00000
     49       1.2878      2.00000
     50       1.3994      2.00000
     51       1.3994      2.00000
     52       1.5042      2.00000
     53       1.6444      2.00000
     54       1.7982      2.00000
     55       1.8002      2.00000
     56       1.9910      2.00000
     57       1.9910      2.00000
     58       2.0132      2.00000
     59       2.0132      2.00000
     60       2.2570      2.00000
     61       2.2570      2.00000
     62       2.2607      2.00000
     63       2.2607      2.00000
     64       2.3075      2.00000
     65       2.5960      2.00000
     66       2.5960      2.00000
     67       2.7892      2.00000
     68       2.8878      2.00000
     69       2.8932      2.00000
     70       2.8932      2.00000
     71       3.0376      2.00000
     72       3.0376      2.00000
     73       3.1394      2.00000
     74       3.1394      2.00000
     75       3.1984      2.00000
     76       3.2304      2.00000
     77       3.2304      2.00000
     78       3.2605      2.00000
     79       3.3071      2.00000
     80       3.3617      2.00000
     81       3.3617      2.00000
     82       3.4461      2.00000
     83       3.5300      2.00000
     84       3.5623      2.00000
     85       3.8272      2.00000
     86       3.9377      2.00000
     87       3.9377      2.00000
     88       3.9504      2.00000
     89       3.9504      2.00000
     90       3.9790      2.00000
     91       3.9790      2.00000
     92       3.9943      2.00000
     93       4.1455      2.00000
     94       4.1708      2.00000
     95       4.1708      2.00000
     96       4.2484      2.00000
     97       4.5452      2.00000
     98       4.5452      2.00000
     99       4.5867      2.00000
    100       4.5867      2.00000
    101       4.6358      2.00000
    102       4.7042      2.00000
    103       4.7515      2.00000
    104       4.7515      2.00000
    105       5.3607      2.00000
    106       5.3607      2.00000
    107       5.3882      2.00000
    108       5.5606      2.00000
    109       5.5606      2.00000
    110       6.3313      1.99487
    111       6.8242      0.00000
    112       6.8242      0.00000
    113       6.8838      0.00000
    114       6.8838      0.00000
    115       7.1427      0.00000
    116       7.5171      0.00000
    117       7.6119      0.00000
    118       7.6693      0.00000
    119       7.6693      0.00000
    120       7.7844      0.00000
    121       7.7844      0.00000
[...]
   39        0.751   0.941   0.000   1.693
   40        0.752   0.941   0.000   1.693
   41        0.752   0.941   0.000   1.694
   42        0.754   0.937   0.000   1.691
   43        0.751   0.941   0.000   1.693
   44        0.755   0.937   0.000   1.692
   45        0.754   0.936   0.000   1.690
   46        0.751   0.938   0.000   1.689
   47        0.750   0.936   0.000   1.685
   48        0.756   0.932   0.000   1.688
   49        0.754   0.940   0.000   1.694
   50        0.763   0.953   0.000   1.716
   51        0.768   0.954   0.000   1.722
   52        0.762   0.934   0.000   1.697
   53        0.757   0.945   0.000   1.702
   54        0.760   0.933   0.000   1.694
   55        0.853   0.992   0.000   1.845
--------------------------------------------------
tot         41.570  51.738   0.000  93.307
 
    CHARGE:  cpu time    0.2169: real time    0.2185
    FORLOC:  cpu time    0.0331: real time    0.0335
    FORNL :  cpu time    3.2002: real time    3.2237
    STRESS:  cpu time    8.5865: real time    8.6544
    FORCOR:  cpu time    0.1018: real time    0.1027
    FORHAR:  cpu time    0.0464: real time    0.0470
    MIXING:  cpu time    0.0054: real time    0.0054
    OFIELD:  cpu time    0.0001: real time    0.0006

  FORCE on cell =-STRESS in cart. coord.  units (eV):
  Direction    XX          YY          ZZ          XY          YZ          ZX
  --------------------------------------------------------------------------------------
  Alpha Z    94.20125    94.20125    94.20125
  Ewald   -2159.42666 -2064.03160 -2050.40374    38.54542     0.00000    -0.00000
  Hartree   138.93458   152.17131   154.06227     5.34844    -0.00000    -0.00000
  E(xc)    -699.95288  -699.93699  -699.93474     0.00642    -0.00001    -0.00001
  Local    -760.14372  -849.64332  -862.42845   -36.16311     0.00025     0.00035
  n-local  2144.39737  2140.55944  2155.61841    -1.01778    -2.54788     1.22557
  augment  -322.43980  -321.61257  -321.49486     0.33407    -0.00021    -0.00033
  Kinetic  1580.65788  1549.81183  1584.27730    -9.96755    -5.59602     2.09442
  Fock        0.00000     0.00000     0.00000     0.00000     0.00000     0.00000
  -------------------------------------------------------------------------------------
  Total      17.66800    26.36704    27.60976     3.51494    -0.00000     0.00000
  in kB      26.18634    39.07948    40.92135     5.20961    -0.00000     0.00000
  external pressure =       35.40 kB  Pullay stress =        0.00 kB


 VOLUME and BASIS-vectors are now :
 -----------------------------------------------------------------------------
  energy-cutoff  :      550.00
  volume of cell :     1080.99
      direct lattice vectors                 reciprocal lattice vectors
     9.976465530  0.000000000  5.759915070     0.100235900 -0.035438742  0.000000000
     3.325488510  9.405901920  5.759915070     0.000000000  0.106316227  0.000000000
     0.000000000  0.000000000 11.519830140    -0.050117950 -0.035438742  0.086806836

  length of vectors
    11.519830124 11.519830136 11.519830140     0.106316227  0.106316227  0.106316227


 FORCES acting on ions
    electron-ion (+dipol)            ewald-force                    non-local-force                 convergence-correction
 -----------------------------------------------------------------------------------------------
   -.208E+01 0.735E+00 -.153E-05   0.183E+01 -.648E+00 -.116E-09   0.294E+00 -.104E+00 -.694E-17   0.776E-03 -.274E-03 0.223E-07
   0.337E+01 0.213E+01 0.948E+00   -.338E+01 -.213E+01 -.914E+00   0.317E-01 -.728E-02 -.261E-01   -.931E-03 -.100E-02 -.432E-04
   0.337E+01 0.213E+01 -.948E+00   -.338E+01 -.213E+01 0.914E+00   0.317E-01 -.728E-02 0.261E-01   -.931E-03 -.100E-02 0.431E-04
   0.208E+01 -.152E+01 0.318E+01   -.208E+01 0.156E+01 -.317E+01   0.223E-01 -.338E-01 -.987E-02   -.317E-03 0.737E-03 -.111E-02
   0.144E+02 -.509E+01 0.197E-05   -.144E+02 0.510E+01 0.646E-08   0.242E+00 -.855E-01 -.208E-16   -.305E-02 0.108E-02 -.726E-08
   0.208E+01 -.152E+01 -.318E+01   -.208E+01 0.156E+01 0.317E+01   0.223E-01 -.338E-01 0.987E-02   -.317E-03 0.737E-03 0.111E-02
   0.153E+01 -.307E+01 0.223E+01   -.155E+01 0.305E+01 -.226E+01   0.374E-01 0.883E-02 0.163E-01   -.292E-03 0.807E-03 -.106E-02
   0.153E+01 -.307E+01 -.223E+01   -.155E+01 0.305E+01 0.226E+01   0.374E-01 0.883E-02 -.163E-01   -.292E-03 0.807E-03 0.106E-02
   0.936E+00 -.331E+00 0.440E-06   -.904E+00 0.319E+00 -.150E-08   -.110E-01 0.388E-02 0.139E-16   -.237E-03 0.837E-04 -.156E-07
   0.166E+01 0.343E+01 0.656E+01   -.181E+01 -.339E+01 -.659E+01   -.143E+00 -.967E-01 -.241E+00   -.393E-03 -.118E-02 -.215E-02
   0.205E+02 0.383E+02 0.208E-05   -.214E+02 -.378E+02 0.286E-07   -.666E+00 -.184E+01 -.278E-16   -.208E-02 -.358E-02 -.647E-08
   0.166E+01 0.343E+01 -.656E+01   -.181E+01 -.339E+01 0.659E+01   -.143E+00 -.967E-01 0.241E+00   -.393E-03 -.118E-02 0.215E-02
   -.965E+00 -.225E+02 0.372E+02   -.462E-01 0.227E+02 -.371E+02   0.312E+00 0.926E+00 -.169E+01   -.455E-04 0.217E-02 -.352E-02
   -.965E+00 -.225E+02 -.372E+02   -.462E-01 0.227E+02 0.371E+02   0.312E+00 0.926E+00 0.169E+01   -.454E-04 0.217E-02 0.352E-02
   -.656E-01 -.126E+01 0.395E-06   -.189E+00 0.118E+01 -.642E-08   0.138E+00 0.231E-01 0.130E-17   -.194E-03 0.461E-03 -.165E-07
   -.213E+01 -.728E+01 -.155E-05   0.199E+01 0.736E+01 0.212E-08   -.424E-02 0.296E+00 0.156E-16   0.850E-03 0.234E-02 0.236E-07
   0.539E+00 0.450E+00 -.105E+01   -.712E+00 -.304E+00 0.907E+00   0.105E+00 -.730E-01 0.589E-01   -.379E-03 -.623E-04 0.320E-03
   0.539E+00 0.450E+00 0.105E+01   -.712E+00 -.304E+00 -.907E+00   0.105E+00 -.730E-01 -.589E-01   -.379E-03 -.623E-04 -.320E-03
   -.958E+01 0.851E+01 0.836E+01   0.966E+01 -.868E+01 -.860E+01   -.396E-02 0.932E-01 0.150E+00   0.189E-02 -.211E-02 -.235E-02
   -.958E+01 0.851E+01 -.836E+01   0.966E+01 -.868E+01 0.860E+01   -.396E-02 0.932E-01 -.150E+00   0.189E-02 -.211E-02 0.235E-02
   -.917E+00 0.155E+01 0.417E-06   0.103E+01 -.151E+01 -.354E-08   -.970E-01 -.238E-01 -.694E-17   0.151E-04 -.772E-03 -.160E-07
   -.144E+02 -.515E+01 -.161E-05   0.146E+02 0.536E+01 0.624E-08   -.905E-01 -.152E+00 -.694E-17   0.324E-02 0.173E-02 0.239E-07
   -.206E+01 -.106E+01 -.291E+01   0.213E+01 0.104E+01 0.292E+01   -.294E-01 0.863E-02 -.289E-02   0.243E-03 0.342E-03 0.699E-03
   -.206E+01 -.106E+01 0.291E+01   0.213E+01 0.104E+01 -.292E+01   -.294E-01 0.863E-02 0.289E-02   0.243E-03 0.342E-03 -.699E-03
   -.149E+01 -.835E-01 0.999E+00   0.157E+01 0.165E-01 -.935E+00   -.696E-01 0.537E-01 -.475E-01   0.376E-03 0.250E-03 -.626E-03
   -.375E+00 0.370E+01 0.129E-05   0.439E+00 -.374E+01 0.142E-08   -.277E-01 0.133E-01 0.694E-17   -.161E-03 -.799E-03 -.619E-08
   -.149E+01 -.835E-01 -.999E+00   0.157E+01 0.165E-01 0.935E+00   -.696E-01 0.537E-01 0.475E-01   0.376E-03 0.250E-03 0.626E-03
   -.936E+00 0.331E+00 0.970E-06   0.904E+00 -.319E+00 -.149E-08   0.110E-01 -.388E-02 0.347E-16   0.237E-03 -.837E-04 -.612E-08
   -.153E+01 0.307E+01 0.223E+01   0.155E+01 -.305E+01 -.226E+01   -.374E-01 -.883E-02 0.163E-01   0.292E-03 -.807E-03 -.106E-02
   -.153E+01 0.307E+01 -.223E+01   0.155E+01 -.305E+01 0.226E+01   -.374E-01 -.883E-02 -.163E-01   0.292E-03 -.807E-03 0.106E-02
   -.208E+01 0.152E+01 0.318E+01   0.208E+01 -.156E+01 -.317E+01   -.223E-01 0.338E-01 -.987E-02   0.317E-03 -.737E-03 -.111E-02
   -.144E+02 0.509E+01 -.192E-05   0.144E+02 -.510E+01 0.647E-08   -.242E+00 0.855E-01 0.694E-17   0.305E-02 -.108E-02 0.240E-07
   -.208E+01 0.152E+01 -.318E+01   0.208E+01 -.156E+01 0.317E+01   -.223E-01 0.338E-01 0.987E-02   0.317E-03 -.737E-03 0.111E-02
   -.337E+01 -.213E+01 0.948E+00   0.338E+01 0.213E+01 -.914E+00   -.317E-01 0.728E-02 -.261E-01   0.931E-03 0.100E-02 -.431E-04
   -.337E+01 -.213E+01 -.948E+00   0.338E+01 0.213E+01 0.914E+00   -.317E-01 0.728E-02 0.261E-01   0.931E-03 0.100E-02 0.431E-04
   0.208E+01 -.735E+00 -.106E-06   -.183E+01 0.648E+00 -.132E-09   -.294E+00 0.104E+00 0.000E+00   -.776E-03 0.274E-03 -.163E-07
   0.149E+01 0.835E-01 0.999E+00   -.157E+01 -.165E-01 -.935E+00   0.696E-01 -.537E-01 -.475E-01   -.376E-03 -.250E-03 -.626E-03
   0.375E+00 -.370E+01 -.180E-05   -.439E+00 0.374E+01 0.144E-08   0.277E-01 -.133E-01 0.694E-17   0.161E-03 0.799E-03 0.231E-07
   0.149E+01 0.835E-01 -.999E+00   -.157E+01 -.165E-01 0.935E+00   0.696E-01 -.537E-01 0.475E-01   -.376E-03 -.250E-03 0.626E-03
   0.206E+01 0.106E+01 -.291E+01   -.213E+01 -.104E+01 0.292E+01   0.294E-01 -.863E-02 -.289E-02   -.243E-03 -.342E-03 0.699E-03
   0.206E+01 0.106E+01 0.291E+01   -.213E+01 -.104E+01 -.292E+01   0.294E-01 -.863E-02 0.289E-02   -.243E-03 -.342E-03 -.699E-03
   0.144E+02 0.515E+01 -.230E-06   -.146E+02 -.536E+01 0.623E-08   0.905E-01 0.152E+00 0.139E-16   -.324E-02 -.173E-02 -.179E-07
   0.917E+00 -.155E+01 0.145E-05   -.103E+01 0.151E+01 -.354E-08   0.970E-01 0.238E-01 0.139E-16   -.151E-04 0.772E-03 -.594E-08
   0.958E+01 -.851E+01 0.836E+01   -.966E+01 0.868E+01 -.860E+01   0.396E-02 -.932E-01 0.150E+00   -.189E-02 0.211E-02 -.235E-02
   0.958E+01 -.851E+01 -.836E+01   -.966E+01 0.868E+01 0.860E+01   0.396E-02 -.932E-01 -.150E+00   -.189E-02 0.211E-02 0.235E-02
   -.539E+00 -.450E+00 -.105E+01   0.712E+00 0.304E+00 0.907E+00   -.105E+00 0.730E-01 0.589E-01   0.379E-03 0.623E-04 0.320E-03
   -.539E+00 -.450E+00 0.105E+01   0.712E+00 0.304E+00 -.907E+00   -.105E+00 0.730E-01 -.589E-01   0.379E-03 0.623E-04 -.320E-03
   0.213E+01 0.728E+01 -.853E-07   -.199E+01 -.736E+01 0.211E-08   0.424E-02 -.296E+00 0.165E-16   -.851E-03 -.234E-02 -.171E-07
   0.656E-01 0.126E+01 0.135E-05   0.189E+00 -.118E+01 -.642E-08   -.138E+00 -.231E-01 0.434E-18   0.194E-03 -.461E-03 -.645E-08
   0.965E+00 0.225E+02 0.372E+02   0.462E-01 -.227E+02 -.371E+02   -.312E+00 -.926E+00 -.169E+01   0.454E-04 -.217E-02 -.352E-02
   0.965E+00 0.225E+02 -.372E+02   0.462E-01 -.227E+02 0.371E+02   -.312E+00 -.926E+00 0.169E+01   0.454E-04 -.217E-02 0.352E-02
   -.166E+01 -.343E+01 0.656E+01   0.181E+01 0.339E+01 -.659E+01   0.143E+00 0.967E-01 -.241E+00   0.393E-03 0.118E-02 -.215E-02
   -.205E+02 -.383E+02 -.223E-05   0.214E+02 0.378E+02 0.286E-07   0.666E+00 0.184E+01 0.000E+00   0.208E-02 0.358E-02 0.231E-07
   -.166E+01 -.343E+01 -.656E+01   0.181E+01 0.339E+01 0.659E+01   0.143E+00 0.967E-01 0.241E+00   0.393E-03 0.118E-02 0.215E-02
   -.382E-06 -.662E-06 -.126E-05   -.867E-11 0.747E-11 0.129E-06   -.158E-20 0.529E-22 0.318E-21   -.554E-08 0.942E-08 0.117E-07
 -----------------------------------------------------------------------------------------------
   -.143E-05 0.238E-06 -.400E-06   0.401E-14 -.497E-13 0.177E-14   0.194E-15 0.319E-15 -.389E-15   -.486E-08 0.946E-08 0.122E-07
 
 
 POSITION                                       TOTAL-FORCE (eV/Angst)
 -----------------------------------------------------------------------------------
      3.87974      2.74339      6.71990         0.050672     -0.017915      0.000000
      3.87974      2.74339     10.55984         0.014348     -0.008921      0.007506
      3.87974      2.74339     14.39979         0.014348     -0.008921     -0.007506
      4.98823      5.87869      8.63987         0.018329      0.002339      0.000611
      4.98823      5.87869     12.47982         0.207360     -0.073313     -0.000000
      4.98823      5.87869     16.31976         0.018329      0.002339     -0.000611
      6.09673      9.01399     10.55984         0.013995     -0.009919     -0.006895
      6.09673      9.01399     14.39979         0.013995     -0.009919      0.006895
      6.09673      9.01399     18.23973         0.021227     -0.007505      0.000000
      7.20523      2.74339      8.63987        -0.295345     -0.060546     -0.269390
      7.20523      2.74339     12.47982        -1.584409     -1.318027     -0.000000
      7.20523      2.74339     16.31976        -0.295345     -0.060546      0.269390
      8.31372      5.87869     10.55984        -0.699017      1.186240     -1.533544
      8.31372      5.87869     14.39979        -0.699017      1.186240      1.533544
      8.31372      5.87869     18.23973        -0.115793     -0.056890      0.000000
      9.42222      9.01399     12.47982        -0.139813      0.379365      0.000000
      9.42222      9.01399     16.31976        -0.069676      0.073549     -0.079877
      9.42222      9.01399     20.15970        -0.069676      0.073549      0.079877
     10.53071      2.74339     10.55984         0.075197     -0.078329     -0.084496
     10.53071      2.74339     14.39979         0.075197     -0.078329      0.084496
     10.53071      2.74339     18.23973         0.019305      0.011970      0.000000
     11.63921      5.87869     12.47982         0.123980      0.059652      0.000000
     11.63921      5.87869     16.31976         0.040529     -0.008841      0.008962
     11.63921      5.87869     20.15970         0.040529     -0.008841     -0.008962
     12.74771      9.01399     14.39979         0.010445     -0.013090      0.015346
     12.74771      9.01399     18.23973         0.035355     -0.023476      0.000000
     12.74771      9.01399     22.07967         0.010445     -0.013090     -0.015346
      0.55425      0.39191      0.95999        -0.021227      0.007505      0.000000
      0.55425      0.39191      4.79993        -0.013995      0.009919     -0.006895
      0.55425      0.39191      8.63987        -0.013995      0.009919      0.006895
      1.66274      3.52721      2.87996        -0.018329     -0.002339      0.000611
      1.66274      3.52721      6.71990        -0.207360      0.073313      0.000000
      1.66274      3.52721     10.55984        -0.018329     -0.002339     -0.000611
      2.77124      6.66251      4.79993        -0.014348      0.008921      0.007506
      2.77124      6.66251      8.63987        -0.014348      0.008921     -0.007506
      2.77124      6.66251     12.47982        -0.050672      0.017915      0.000000
      3.87974      0.39191      2.87996        -0.010445      0.013090      0.015346
      3.87974      0.39191      6.71990        -0.035355      0.023476      0.000000
      3.87974      0.39191     10.55984        -0.010445      0.013090     -0.015346
      4.98823      3.52721      4.79993        -0.040529      0.008841      0.008962
      4.98823      3.52721      8.63987        -0.040529      0.008841     -0.008962
      4.98823      3.52721     12.47982        -0.123980     -0.059652      0.000000
      6.09673      6.66251      6.71990        -0.019305     -0.011970      0.000000
      6.09673      6.66251     10.55984        -0.075197      0.078329     -0.084496
      6.09673      6.66251     14.39979        -0.075197      0.078329      0.084496
      7.20523      0.39191      4.79993         0.069676     -0.073549     -0.079877
      7.20523      0.39191      8.63987         0.069676     -0.073549      0.079877
      7.20523      0.39191     12.47982         0.139813     -0.379365     -0.000000
      8.31372      3.52721      6.71990         0.115793      0.056890      0.000000
      8.31372      3.52721     10.55984         0.699017     -1.186240     -1.533544
      8.31372      3.52721     14.39979         0.699017     -1.186240      1.533544
      9.42222      6.66251      8.63987         0.295345      0.060546     -0.269390
      9.42222      6.66251     12.47982         1.584409      1.318027      0.000000
      9.42222      6.66251     16.31976         0.295345      0.060546      0.269390
      8.31372      4.70295     12.47982        -0.000000      0.000000      0.000000
 -----------------------------------------------------------------------------------
    total drift:                               -0.000001      0.000000     -0.000000


--------------------------------------------------------------------------------------------------------



  FREE ENERGIE OF THE ION-ELECTRON SYSTEM (eV)
  ---------------------------------------------------
  free  energy   TOTEN  =      -293.55188113 eV

  energy  without entropy=     -293.55186259  energy(sigma->0) =     -293.55187186
 


--------------------------------------------------------------------------------------------------------


    POTLOK:  cpu time    0.0896: real time    0.0907


--------------------------------------------------------------------------------------------------------


 writing wavefunctions
     LOOP+:  cpu time  143.0876: real time  144.4579
    4ORBIT:  cpu time    0.0000: real time    0.0000
 


 total charge     
 
# of ion       s       p       d       tot
------------------------------------------
    1        0.751   0.940   0.000   1.691
    2        0.751   0.939   0.000   1.690
    3        0.751   0.939   0.000   1.690
    4        0.751   0.940   0.000   1.692
    5        0.755   0.934   0.000   1.689
    6        0.751   0.939   0.000   1.690
    7        0.751   0.940   0.000   1.691
    8        0.751   0.939   0.000   1.690
    9        0.751   0.941   0.000   1.692
   10        0.760   0.933   0.000   1.694
   11        0.757   0.945   0.000   1.702
   12        0.762   0.934   0.000   1.697
   13        0.768   0.954   0.000   1.722
   14        0.763   0.953   0.000   1.716
   15        0.754   0.940   0.000   1.694
   16        0.756   0.932   0.000   1.688
   17        0.750   0.936   0.000   1.685
   18        0.751   0.938   0.000   1.689
   19        0.754   0.936   0.000   1.690
   20        0.755   0.937   0.000   1.692
   21        0.751   0.941   0.000   1.693
   22        0.754   0.937   0.000   1.691
   23        0.752   0.941   0.000   1.694
   24        0.752   0.941   0.000   1.693
   25        0.751   0.941   0.000   1.693
   26        0.752   0.941   0.000   1.694
   27        0.751   0.941   0.000   1.693
   28        0.751   0.941   0.000   1.692
   29        0.751   0.939   0.000   1.690
   30        0.751   0.940   0.000   1.691
   31        0.751   0.939   0.000   1.690
   32        0.755   0.934   0.000   1.689
   33        0.751   0.940   0.000   1.692
   34        0.751   0.939   0.000   1.690
   35        0.751   0.939   0.000   1.690
   36        0.751   0.940   0.000   1.691
   37        0.751   0.941   0.000   1.693
   38        0.752   0.941   0.000   1.694
   39        0.751   0.941   0.000   1.693
   40        0.752   0.941   0.000   1.693
   41        0.752   0.941   0.000   1.694
   42        0.754   0.937   0.000   1.691
   43        0.751   0.941   0.000   1.693
   44        0.755   0.937   0.000   1.692
   45        0.754   0.936   0.000   1.690
   46        0.751   0.938   0.000   1.689
   47        0.750   0.936   0.000   1.685
   48        0.756   0.932   0.000   1.688
   49        0.754   0.940   0.000   1.694
   50        0.763   0.953   0.000   1.716
   51        0.768   0.954   0.000   1.722
   52        0.762   0.934   0.000   1.697
   53        0.757   0.945   0.000   1.702
   54        0.760   0.933   0.000   1.694
   55        0.853   0.992   0.000   1.845
--------------------------------------------------
tot         41.570  51.738   0.000  93.307
 

 total amount of memory used by VASP MPI-rank0   149529. kBytes
=======================================================================

   base      :      30000. kBytes
   nonl-proj :      54318. kBytes
   fftplans  :       5382. kBytes
   grid      :      19496. kBytes
   one-center:        168. kBytes
   wavefun   :      40165. kBytes
 
  
  
 General timing and accounting informations for this job:
 ========================================================
  
                  Total CPU time used (sec):      159.237
                            User time (sec):      153.170
                          System time (sec):        6.067
                         Elapsed time (sec):      164.009
  
                   Maximum memory used (kb):      399832.
                   Average memory used (kb):           0.
  
                          Minor page faults:        49679
                          Major page faults:            0
                 Voluntary context switches:         4207
