 vasp.6.3.0 20Jan22 (build Mar 07 2022 09:35:52) complex                        
  
 executed on             LinuxIFC date 2025.10.02  15:43:30
 running on   64 total cores
 distrk:  each k-point on   64 cores,    1 groups
 distr:  one band on NCORE=   1 cores,   64 groups


--------------------------------------------------------------------------------------------------------


 INCAR:
   ALGO = Normal
   AMIX = 0.2
   EDIFF = 1e-06
   EDIFFG = -0.05
   ENCUT = 550
   IBRION = 2
   ISIF = 2
   ISMEAR = 0
   ISPIN = 1
   ISYM = 2
   LCHARG = .FALSE.
   LORBIT = 11
   LREAL = .FALSE.
   LVTOT = True
   LWAVE = .FALSE.
   NELECT = 385.0
   NELM = 200
   NSW = 0
   SIGMA = 0.05
   SYSTEM = SiO2

 POTCAR:    PAW_PBE Si 05Jan2001                  
 POTCAR:    PAW_PBE P 06Sep2000                   
 POTCAR:    PAW_PBE O 08Apr2002                   
 WARNING: For LVTOT=.TRUE., VASP.5.x writes the TOTAL local potential to the
     file LOCPOT. If you want only the Hartree contributions, use LVHAR=.TRUE.
     instead. 

 -----------------------------------------------------------------------------
|                                                                             |
|           W    W    AA    RRRRR   N    N  II  N    N   GGGG   !!!           |
|           W    W   A  A   R    R  NN   N  II  NN   N  G    G  !!!           |
|           W    W  A    A  R    R  N N  N  II  N N  N  G       !!!           |
|           W WW W  AAAAAA  RRRRR   N  N N  II  N  N N  G  GGG   !            |
|           WW  WW  A    A  R   R   N   NN  II  N   NN  G    G                |
|           W    W  A    A  R    R  N    N  II  N    N   GGGG   !!!           |
|                                                                             |
|     For optimal performance we recommend to set                             |
|       NCORE = 2 up to number-of-cores-per-socket                            |
|     NCORE specifies how many cores store one orbital (NPAR=cpu/NCORE).      |
|     This setting can greatly improve the performance of VASP for DFT.       |
|     The default, NCORE=1 might be grossly inefficient on modern             |
|     multi-core architectures or massively parallel machines. Do your        |
|     own testing! More info at https://www.vasp.at/wiki/index.php/NCORE      |
|     Unfortunately you need to use the default for GW and RPA                |
|     calculations (for HF NCORE is supported but not extensively tested      |
|     yet).                                                                   |
|                                                                             |
 -----------------------------------------------------------------------------

 POTCAR:    PAW_PBE Si 05Jan2001                  
   VRHFIN =Si: s2p2                                                                                 
   LEXCH  = PE                                                                                      
   EATOM  =   103.0669 eV,    7.5752 Ry                                                             
                                                                                                    
   TITEL  = PAW_PBE Si 05Jan2001                                                                    
   LULTRA =        F    use ultrasoft PP ?                                                          
   IUNSCR =        1    unscreen: 0-lin 1-nonlin 2-no                                               
   RPACOR =    1.500    partial core radius                                                         
   POMASS =   28.085; ZVAL   =    4.000    mass and valenz                                          
   RCORE  =    1.900    outmost cutoff radius                                                       
   RWIGS  =    2.480; RWIGS  =    1.312    wigner-seitz radius (au A)                               
   ENMAX  =  245.345; ENMIN  =  184.009 eV                                                          
   ICORE  =        2    local potential                                                             
   LCOR   =        T    correct aug charges                                                         
   LPAW   =        T    paw PP                                                                      
   EAUG   =  322.069                                                                                
   DEXC   =    0.000                                                                                
   RMAX   =    1.950    core radius for proj-oper                                                   
   RAUG   =    1.300    factor for augmentation sphere                                              
   RDEP   =    1.993    radius for radial grids                                                     
   RDEPT  =    1.837    core radius for aug-charge                                                  
                                                                                                    
   Atomic configuration                                                                             
    6 entries                                                                                       
     n  l   j            E        occ.                                                              
     1  0  0.50     -1785.8828   2.0000                                                             
     2  0  0.50      -139.4969   2.0000                                                             
     2  1  1.50       -95.5546   6.0000                                                             
     3  0  0.50       -10.8127   2.0000                                                             
     3  1  0.50        -4.0811   2.0000                                                             
     3  2  1.50        -4.0817   0.0000                                                             
   Description                                                                                      
     l       E           TYP  RCUT    TYP  RCUT                                                     
     0    -10.8127223     23  1.900                                                                 
     0     -7.6451159     23  1.900                                                                 
     1     -4.0811372     23  1.900                                                                 
     1      2.4879257     23  1.900                                                                 
     2     -4.0817478      7  1.900                                                                 
  local pseudopotential read in
  partial core-charges read in
  partial kinetic energy density read in
  atomic valenz-charges read in
  non local Contribution for L=           0  read in
    real space projection operators read in
  non local Contribution for L=           0  read in
    real space projection operators read in
  non local Contribution for L=           1  read in
    real space projection operators read in
  non local Contribution for L=           1  read in
    real space projection operators read in
    PAW grid and wavefunctions read in
 
   number of l-projection  operators is LMAX  =           4
   number of lm-projection operators is LMMAX =           8
 
 POTCAR:    PAW_PBE P 06Sep2000                   
   VRHFIN =P : s2p3                                                                                 
   LEXCH  = PE                                                                                      
   EATOM  =   176.0430 eV,   12.9388 Ry                                                             
                                                                                                    
   TITEL  = PAW_PBE P 06Sep2000                                                                     
   LULTRA =        F    use ultrasoft PP ?                                                          
   IUNSCR =        1    unscreen: 0-lin 1-nonlin 2-no                                               
   RPACOR =    1.500    partial core radius                                                         
   POMASS =   30.974; ZVAL   =    5.000    mass and valenz                                          
   RCORE  =    1.900    outmost cutoff radius                                                       
   RWIGS  =    2.330; RWIGS  =    1.233    wigner-seitz radius (au A)                               
   ENMAX  =  255.040; ENMIN  =  191.280 eV                                                          
   ICORE  =        2    local potential                                                             
   LCOR   =        T    correct aug charges                                                         
   LPAW   =        T    paw PP                                                                      
   EAUG   =  342.924                                                                                
   DEXC   =    0.000                                                                                
   RMAX   =    1.935    core radius for proj-oper                                                   
   RAUG   =    1.300    factor for augmentation sphere                                              
   RDEP   =    1.931    radius for radial grids                                                     
   RDEPT  =    1.794    core radius for aug-charge                                                  
                                                                                                    
   Atomic configuration                                                                             
    6 entries                                                                                       
     n  l   j            E        occ.                                                              
     1  0  0.50     -2084.0982   2.0000                                                             
     2  0  0.50      -173.9859   2.0000                                                             
     2  1  1.50      -124.4865   6.0000                                                             
     3  0  0.50       -13.9692   2.0000                                                             
     3  1  0.50        -5.5067   3.0000                                                             
     3  2  1.50        -5.4423   0.0000                                                             
   Description                                                                                      
     l       E           TYP  RCUT    TYP  RCUT                                                     
     0    -13.9691527     23  1.900                                                                 
     0    -11.7794650     23  1.900                                                                 
     1     -5.5066937     23  1.900                                                                 
     1     -0.2556953     23  1.900                                                                 
     2     -5.4423304     23  1.900                                                                 
  local pseudopotential read in
  partial core-charges read in
  partial kinetic energy density read in
  atomic valenz-charges read in
  non local Contribution for L=           0  read in
    real space projection operators read in
  non local Contribution for L=           0  read in
    real space projection operators read in
  non local Contribution for L=           1  read in
    real space projection operators read in
  non local Contribution for L=           1  read in
    real space projection operators read in
    PAW grid and wavefunctions read in
 
   number of l-projection  operators is LMAX  =           4
   number of lm-projection operators is LMMAX =           8
 
 POTCAR:    PAW_PBE O 08Apr2002                   
   VRHFIN =O: s2p4                                                                                  
   LEXCH  = PE                                                                                      
   EATOM  =   432.3788 eV,   31.7789 Ry                                                             
                                                                                                    
   TITEL  = PAW_PBE O 08Apr2002                                                                     
   LULTRA =        F    use ultrasoft PP ?                                                          
   IUNSCR =        1    unscreen: 0-lin 1-nonlin 2-no                                               
   RPACOR =    1.200    partial core radius                                                         
   POMASS =   16.000; ZVAL   =    6.000    mass and valenz                                          
   RCORE  =    1.520    outmost cutoff radius                                                       
   RWIGS  =    1.550; RWIGS  =    0.820    wigner-seitz radius (au A)                               
   ENMAX  =  400.000; ENMIN  =  300.000 eV                                                          
   ICORE  =        2    local potential                                                             
   LCOR   =        T    correct aug charges                                                         
   LPAW   =        T    paw PP                                                                      
   EAUG   =  605.392                                                                                
   DEXC   =    0.000                                                                                
   RMAX   =    1.553    core radius for proj-oper                                                   
   RAUG   =    1.300    factor for augmentation sphere                                              
   RDEP   =    1.550    radius for radial grids                                                     
   RDEPT  =    1.329    core radius for aug-charge                                                  
                                                                                                    
   Atomic configuration                                                                             
    4 entries                                                                                       
     n  l   j            E        occ.                                                              
     1  0  0.50      -514.6923   2.0000                                                             
     2  0  0.50       -23.9615   2.0000                                                             
     2  1  0.50        -9.0305   4.0000                                                             
     3  2  1.50        -9.5241   0.0000                                                             
   Description                                                                                      
     l       E           TYP  RCUT    TYP  RCUT                                                     
     0    -23.9615318     23  1.200                                                                 
     0     -9.5240782     23  1.200                                                                 
     1     -9.0304911     23  1.520                                                                 
     1      8.1634956     23  1.520                                                                 
     2     -9.5240782      7  1.500                                                                 
  local pseudopotential read in
  partial core-charges read in
  partial kinetic energy density read in
  kinetic energy density of atom read in
  atomic valenz-charges read in
  non local Contribution for L=           0  read in
    real space projection operators read in
  non local Contribution for L=           0  read in
    real space projection operators read in
  non local Contribution for L=           1  read in
    real space projection operators read in
  non local Contribution for L=           1  read in
    real space projection operators read in
    PAW grid and wavefunctions read in
 
   number of l-projection  operators is LMAX  =           4
   number of lm-projection operators is LMMAX =           8
 
 -----------------------------------------------------------------------------
|                                                                             |
|               ----> ADVICE to this user running VASP <----                  |
|                                                                             |
|     You have a (more or less) 'large supercell' and for larger cells it     |
|     might be more efficient to use real-space projection operators.         |
|     Therefore, try LREAL= Auto in the INCAR file.                           |
|     Mind: For very accurate calculation, you might also keep the            |
|     reciprocal projection scheme (i.e. LREAL=.FALSE.).                      |
|                                                                             |
 -----------------------------------------------------------------------------

  PAW_PBE Si 05Jan2001                  :
 energy of atom  1       EATOM= -103.0669
 kinetic energy error for atom=    0.0004 (will be added to EATOM!!)
  PAW_PBE P 06Sep2000                   :
 energy of atom  2       EATOM= -176.0430
 kinetic energy error for atom=    0.0008 (will be added to EATOM!!)
  PAW_PBE O 08Apr2002                   :
 energy of atom  3       EATOM= -432.3788
 kinetic energy error for atom=    0.0194 (will be added to EATOM!!)
 
 
 POSCAR: Si23 P1 O48
  positions in direct lattice
  No initial velocities read in
 exchange correlation table for  LEXCH =        8
   RHO(1)=    0.500       N(1)  =     2000
   RHO(2)=  100.500       N(2)  =     4000

 VTST: version 4.2, (08/11/21)

 CHAIN: initializing optimizer
 
 OPT: Using VASP Conjugate-Gradient optimizer
 CHAIN: Read ICHAIN            0
 
 POSCAR: Si23 P1 O48
  positions in direct lattice
  No initial velocities read in
 


--------------------------------------------------------------------------------------------------------


 ion  position               nearest neighbor table
   1  0.266  0.266  0.500-  65 1.61  34 1.61  50 1.62  25 1.62  12 3.06  19 3.06  17 3.06   8 3.06

   2  0.266  0.766  0.000-  68 1.61  35 1.61  51 1.62  28 1.62  15 3.06  16 3.06  11 3.06  18 3.06

   3  0.266  0.766  0.500-  67 1.61  36 1.61  52 1.62  27 1.62  14 3.06  17 3.06  10 3.06  19 3.06

   4  0.766  0.266  0.000-  70 1.61  37 1.61  53 1.62  30 1.62   9 3.06  22 3.06  20 3.06  13 3.06

   5  0.766  0.266  0.500-  69 1.61  38 1.61  54 1.62  29 1.62   8 3.06  23 3.06  21 3.06  12 3.06

   6  0.766  0.766  0.000-  72 1.61  39 1.61  55 1.62  32 1.62  11 3.06  20 3.06  15 3.06  22 3.06

   7  0.766  0.766  0.500-  71 1.61  40 1.61  56 1.62  31 1.62  10 3.06  21 3.06  14 3.06  23 3.06

   8  0.000  0.234  0.333-  25 1.61  61 1.61  41 1.62  69 1.62   5 3.06   1 3.06  18 3.06  20 3.06

   9  0.000  0.234  0.833-  26 1.61  62 1.61  42 1.62  70 1.62   4 3.06  19 3.06  21 3.06
  10  0.000  0.734  0.333-  27 1.61  63 1.61  43 1.62  71 1.62   7 3.06   3 3.06  16 3.06  22 3.06

  11  0.000  0.734  0.833-  28 1.61  64 1.61  44 1.62  72 1.62   6 3.06   2 3.06  17 3.06  23 3.06

  12  0.500  0.234  0.333-  29 1.61  57 1.61  45 1.62  65 1.62   1 3.06   5 3.06  16 3.06  22 3.06

  13  0.500  0.234  0.833-  30 1.61  58 1.61  46 1.62  66 1.62   4 3.06  17 3.06  23 3.06
  14  0.500  0.734  0.333-  31 1.61  59 1.61  47 1.62  67 1.62   3 3.06   7 3.06  18 3.06  20 3.06

  15  0.500  0.734  0.833-  32 1.61  60 1.61  48 1.62  68 1.62   2 3.06   6 3.06  19 3.06  21 3.06

  16  0.234  0.000  0.167-  49 1.61  43 1.61  35 1.62  57 1.62   2 3.06  10 3.06  12 3.06
  17  0.234  0.000  0.667-  50 1.61  44 1.61  36 1.62  58 1.62   3 3.06   1 3.06  11 3.06  13 3.06

  18  0.234  0.500  0.167-  51 1.61  41 1.61  33 1.62  59 1.62   2 3.06   8 3.06  14 3.06
  19  0.234  0.500  0.667-  52 1.61  42 1.61  34 1.62  60 1.62   1 3.06   3 3.06   9 3.06  15 3.06

  20  0.734  0.000  0.167-  53 1.61  47 1.61  39 1.62  61 1.62   6 3.06   4 3.06   8 3.06  14 3.06

  21  0.734  0.000  0.667-  54 1.61  48 1.61  40 1.62  62 1.62   7 3.06   5 3.06   9 3.06  15 3.06

  22  0.734  0.500  0.167-  55 1.61  45 1.61  37 1.62  63 1.62   4 3.06   6 3.06  10 3.06  12 3.06

  23  0.734  0.500  0.667-  56 1.61  46 1.61  38 1.62  64 1.62   5 3.06   7 3.06  11 3.06  13 3.06

  24  0.266  0.266  0.000-  66 1.61  33 1.61  49 1.62  26 1.62
  25  0.135  0.207  0.392-   8 1.61   1 1.62
  26  0.135  0.207  0.892-   9 1.61  24 1.62
  27  0.135  0.707  0.392-  10 1.61   3 1.62
  28  0.135  0.707  0.892-  11 1.61   2 1.62
  29  0.635  0.207  0.392-  12 1.61   5 1.62
  30  0.635  0.207  0.892-  13 1.61   4 1.62
  31  0.635  0.707  0.392-  14 1.61   7 1.62
  32  0.635  0.707  0.892-  15 1.61   6 1.62
  33  0.293  0.428  0.059-  24 1.61  18 1.62
  34  0.293  0.428  0.559-   1 1.61  19 1.62
  35  0.293  0.928  0.059-   2 1.61  16 1.62
  36  0.293  0.928  0.559-   3 1.61  17 1.62
  37  0.793  0.428  0.059-   4 1.61  22 1.62
  38  0.793  0.428  0.559-   5 1.61  23 1.62
  39  0.793  0.928  0.059-   6 1.61  20 1.62
  40  0.793  0.928  0.559-   7 1.61  21 1.62
  41  0.072  0.365  0.226-  18 1.61   8 1.62
  42  0.072  0.365  0.726-  19 1.61   9 1.62
  43  0.072  0.865  0.226-  16 1.61  10 1.62
  44  0.072  0.865  0.726-  17 1.61  11 1.62
  45  0.572  0.365  0.226-  22 1.61  12 1.62
  46  0.572  0.365  0.726-  23 1.61  13 1.62
  47  0.572  0.865  0.226-  20 1.61  14 1.62
  48  0.572  0.865  0.726-  21 1.61  15 1.62
  49  0.207  0.135  0.108-  16 1.61  24 1.62
  50  0.207  0.135  0.608-  17 1.61   1 1.62
  51  0.207  0.635  0.108-  18 1.61   2 1.62
  52  0.207  0.635  0.608-  19 1.61   3 1.62
  53  0.707  0.135  0.108-  20 1.61   4 1.62
  54  0.707  0.135  0.608-  21 1.61   5 1.62
  55  0.707  0.635  0.108-  22 1.61   6 1.62
  56  0.707  0.635  0.608-  23 1.61   7 1.62
  57  0.365  0.072  0.274-  12 1.61  16 1.62
  58  0.365  0.072  0.774-  13 1.61  17 1.62
  59  0.365  0.572  0.274-  14 1.61  18 1.62
  60  0.365  0.572  0.774-  15 1.61  19 1.62
  61  0.865  0.072  0.274-   8 1.61  20 1.62
  62  0.865  0.072  0.774-   9 1.61  21 1.62
  63  0.865  0.572  0.274-  10 1.61  22 1.62
  64  0.865  0.572  0.774-  11 1.61  23 1.62
  65  0.428  0.293  0.441-   1 1.61  12 1.62
  66  0.428  0.293  0.941-  24 1.61  13 1.62
  67  0.428  0.793  0.441-   3 1.61  14 1.62
  68  0.428  0.793  0.941-   2 1.61  15 1.62
  69  0.928  0.293  0.441-   5 1.61   8 1.62
  70  0.928  0.293  0.941-   4 1.61   9 1.62
  71  0.928  0.793  0.441-   7 1.61  10 1.62
  72  0.928  0.793  0.941-   6 1.61  11 1.62
 
  LATTYP: Found a hexagonal cell.
 ALAT       =     9.8299323535
 C/A-ratio  =     1.1050536148
  
  Lattice vectors:
  
 A1 = (   4.9149661767,  -8.5129711356,   0.0000000000)
 A2 = (   4.9149661767,   8.5129711356,   0.0000000000)
 A3 = (   0.0000000000,   0.0000000000,  10.8626022800)


Analysis of symmetry for initial positions (statically):
=====================================================================
 Subroutine PRICEL returns:
 Original cell was already a primitive cell.
 

 Routine SETGRP: Setting up the symmetry group for a 
 hexagonal supercell.


 Subroutine GETGRP returns: Found  2 space group operations
 (whereof  2 operations were pure point group operations)
 out of a pool of 24 trial point group operations.


The static configuration has the point symmetry C_2 .


Analysis of symmetry for dynamics (positions and initial velocities):
=====================================================================
 Subroutine PRICEL returns:
 Original cell was already a primitive cell.
 

 Routine SETGRP: Setting up the symmetry group for a 
 hexagonal supercell.


 Subroutine GETGRP returns: Found  2 space group operations
 (whereof  2 operations were pure point group operations)
 out of a pool of 24 trial point group operations.


The dynamic configuration has the point symmetry C_2 .


 Subroutine INISYM returns: Found  2 space group operations
 (whereof  2 operations are pure point group operations),
 and found     1 'primitive' translations


----------------------------------------------------------------------------------------

                                     Primitive cell                                     

  volume of cell :     909.0035

  direct lattice vectors                    reciprocal lattice vectors
     4.914966177 -8.512971136  0.000000000     0.101730100 -0.058733901  0.000000000
     4.914966177  8.512971136  0.000000000     0.101730100  0.058733901  0.000000000
     0.000000000  0.000000000 10.862602280     0.000000000  0.000000000  0.092058972

  length of vectors
     9.829932353  9.829932353 10.862602280     0.117467801  0.117467801  0.092058972

  position of ions in fractional coordinates (direct lattice)
     0.265544295  0.265544295  0.500000000
     0.265544295  0.765544295  0.000000000
     0.265544295  0.765544295  0.500000000
     0.765544295  0.265544295  0.000000000
     0.765544295  0.265544295  0.500000000
     0.765544295  0.765544295  0.000000000
     0.765544295  0.765544295  0.500000000
     1.000000000  0.234455705  0.333333333
     1.000000000  0.234455705  0.833333333
     1.000000000  0.734455705  0.333333333
     1.000000000  0.734455705  0.833333333
     0.500000000  0.234455705  0.333333333
     0.500000000  0.234455705  0.833333333
     0.500000000  0.734455705  0.333333333
     0.500000000  0.734455705  0.833333333
     0.234455705  1.000000000  0.166666667
     0.234455705  1.000000000  0.666666667
     0.234455705  0.500000000  0.166666667
     0.234455705  0.500000000  0.666666667
     0.734455705  1.000000000  0.166666667
     0.734455705  1.000000000  0.666666667
     0.734455705  0.500000000  0.166666667
     0.734455705  0.500000000  0.666666667
     0.265544295  0.265544295  0.000000000
     0.134611555  0.206697145  0.392445490
     0.134611555  0.206697145  0.892445490
     0.134611555  0.706697145  0.392445490
     0.134611555  0.706697145  0.892445490
     0.634611555  0.206697145  0.392445490
     0.634611555  0.206697145  0.892445490
     0.634611555  0.706697145  0.392445490
     0.634611555  0.706697145  0.892445490
     0.293302855  0.427914410  0.059112157
     0.293302855  0.427914410  0.559112157
     0.293302855  0.927914410  0.059112157
     0.293302855  0.927914410  0.559112157
     0.793302855  0.427914410  0.059112157
     0.793302855  0.427914410  0.559112157
     0.793302855  0.927914410  0.059112157
     0.793302855  0.927914410  0.559112157
     0.072085590  0.365388445  0.225778823
     0.072085590  0.365388445  0.725778823
     0.072085590  0.865388445  0.225778823
     0.072085590  0.865388445  0.725778823
     0.572085590  0.365388445  0.225778823
     0.572085590  0.365388445  0.725778823
     0.572085590  0.865388445  0.225778823
     0.572085590  0.865388445  0.725778823
     0.206697145  0.134611555  0.107554510
     0.206697145  0.134611555  0.607554510
     0.206697145  0.634611555  0.107554510
     0.206697145  0.634611555  0.607554510
     0.706697145  0.134611555  0.107554510
     0.706697145  0.134611555  0.607554510
     0.706697145  0.634611555  0.107554510
     0.706697145  0.634611555  0.607554510
     0.365388445  0.072085590  0.274221177
     0.365388445  0.072085590  0.774221177
     0.365388445  0.572085590  0.274221177
     0.365388445  0.572085590  0.774221177
     0.865388445  0.072085590  0.274221177
     0.865388445  0.072085590  0.774221177
     0.865388445  0.572085590  0.274221177
     0.865388445  0.572085590  0.774221177
     0.427914410  0.293302855  0.440887843
     0.427914410  0.293302855  0.940887843
     0.427914410  0.793302855  0.440887843
     0.427914410  0.793302855  0.940887843
     0.927914410  0.293302855  0.440887843
     0.927914410  0.293302855  0.940887843
     0.927914410  0.793302855  0.440887843
     0.927914410  0.793302855  0.940887843

  ion indices of the primitive-cell ions
   primitive index   ion index
                 1           1
                 2           2
                 3           3
                 4           4
                 5           5
                 6           6
                 7           7
                 8           8
                 9           9
                10          10
                11          11
                12          12
                13          13
                14          14
                15          15
                16          16
                17          17
                18          18
                19          19
                20          20
                21          21
                22          22
                23          23
                24          24
                25          25
                26          26
                27          27
                28          28
                29          29
                30          30
                31          31
                32          32
                33          33
                34          34
                35          35
                36          36
                37          37
                38          38
                39          39
                40          40
                41          41
                42          42
                43          43
                44          44
                45          45
                46          46
                47          47
                48          48
                49          49
                50          50
                51          51
                52          52
                53          53
                54          54
                55          55
                56          56
                57          57
                58          58
                59          59
                60          60
                61          61
                62          62
                63          63
                64          64
                65          65
                66          66
                67          67
                68          68
                69          69
                70          70
                71          71
                72          72

----------------------------------------------------------------------------------------

 
 
 KPOINTS: pymatgen with grid density = 1000 / numb

Automatic generation of k-mesh.
 Grid dimensions read from file:
 generate k-points for:    2    2    2

 Generating k-lattice:

  Cartesian coordinates                     Fractional coordinates (reciprocal lattice)
     0.050865050 -0.029366950  0.000000000     0.500000000 -0.000000000  0.000000000
     0.050865050  0.029366950  0.000000000    -0.000000000  0.500000000  0.000000000
     0.000000000  0.000000000  0.046029486     0.000000000  0.000000000  0.500000000

  Length of vectors
     0.058733901  0.058733901  0.046029486

  Shift w.r.t. Gamma in fractional coordinates (k-lattice)
     0.000000000  0.000000000  0.000000000

 
 Subroutine IBZKPT returns following result:
 ===========================================
 
 Found      6 irreducible k-points:
 
 Following reciprocal coordinates:
            Coordinates               Weight
  0.000000  0.000000  0.000000      1.000000
  0.500000  0.000000  0.000000      2.000000
  0.500000  0.500000  0.000000      1.000000
  0.000000  0.000000  0.500000      1.000000
  0.500000  0.000000  0.500000      2.000000
  0.500000  0.500000  0.500000      1.000000
 
 Following cartesian coordinates:
            Coordinates               Weight
  0.000000  0.000000  0.000000      1.000000
  0.050865 -0.029367  0.000000      2.000000
  0.101730  0.000000  0.000000      1.000000
  0.000000  0.000000  0.046029      1.000000
  0.050865 -0.029367  0.046029      2.000000
  0.101730  0.000000  0.046029      1.000000
 


--------------------------------------------------------------------------------------------------------




 Dimension of arrays:
   k-points           NKPTS =      6   k-points in BZ     NKDIM =      6   number of bands    NBANDS=    256
   number of dos      NEDOS =    301   number of ions     NIONS =     72
   non local maximal  LDIM  =      4   non local SUM 2l+1 LMDIM =      8
   total plane-waves  NPLWV = 200704
   max r-space proj   IRMAX =      1   max aug-charges    IRDMAX=   7581
   dimension x,y,z NGX =    56 NGY =   56 NGZ =   64
   dimension x,y,z NGXF=   112 NGYF=  112 NGZF=  128
   support grid    NGXF=   112 NGYF=  112 NGZF=  128
   ions per type =              23   1  48
   NGX,Y,Z   is equivalent  to a cutoff of   9.47,  9.47,  9.79 a.u.
   NGXF,Y,Z  is equivalent  to a cutoff of  18.94, 18.94, 19.59 a.u.

 SYSTEM =  SiO2                                    
 POSCAR =  Si23 P1 O48                             

 Startparameter for this run:
   NWRITE =      2    write-flag & timer
   PREC   = normal    normal or accurate (medium, high low for compatibility)
   ISTART =      0    job   : 0-new  1-cont  2-samecut
   ICHARG =      2    charge: 1-file 2-atom 10-const
   ISPIN  =      1    spin polarized calculation?
   LNONCOLLINEAR =      F non collinear calculations
   LSORBIT =      F    spin-orbit coupling
   INIWAV =      1    electr: 0-lowe 1-rand  2-diag
   LASPH  =      F    aspherical Exc in radial PAW
 Electronic Relaxation 1
   ENCUT  =  550.0 eV  40.42 Ry    6.36 a.u.  18.80 18.80 20.77*2*pi/ulx,y,z
   ENINI  =  550.0     initial cutoff
   ENAUG  =  605.4 eV  augmentation charge cutoff
   NELM   =    200;   NELMIN=  2; NELMDL= -5     # of ELM steps 
   EDIFF  = 0.1E-05   stopping-criterion for ELM
   LREAL  =      F    real-space projection
   NLSPLINE    = F    spline interpolate recip. space projectors
   LCOMPAT=      F    compatible to vasp.4.4
   GGA_COMPAT  = T    GGA compatible to vasp.4.4-vasp.4.6
   LMAXPAW     = -100 max onsite density
   LMAXMIX     =    2 max onsite mixed and CHGCAR
   VOSKOWN=      0    Vosko Wilk Nusair interpolation
   ROPT   =    0.00000   0.00000   0.00000
 Ionic relaxation
   EDIFFG = -.5E-01   stopping-criterion for IOM
   NSW    =      0    number of steps for IOM
   NBLOCK =      1;   KBLOCK =      1    inner block; outer block 
   IBRION =     -1    ionic relax: 0-MD 1-quasi-New 2-CG
   NFREE  =      1    steps in history (QN), initial steepest desc. (CG)
   ISIF   =      2    stress and relaxation
   IWAVPR =     10    prediction:  0-non 1-charg 2-wave 3-comb
   ISYM   =      2    0-nonsym 1-usesym 2-fastsym
   LCORR  =      T    Harris-Foulkes like correction to forces

   POTIM  = 0.5000    time-step for ionic-motion
   TEIN   =    0.0    initial temperature
   TEBEG  =    0.0;   TEEND  =   0.0 temperature during run
   SMASS  =  -3.00    Nose mass-parameter (am)
   estimated Nose-frequenzy (Omega)   =  0.10E-29 period in steps = 0.13E+47 mass=  -0.221E-26a.u.
   SCALEE = 1.0000    scale energy and forces
   NPACO  =    256;   APACO  = 10.0  distance and # of slots for P.C.
   PSTRESS=    0.0 pullay stress

  Mass of Ions in am
   POMASS =  28.09 30.97 16.00
  Ionic Valenz
   ZVAL   =   4.00  5.00  6.00
  Atomic Wigner-Seitz radii
   RWIGS  =  -1.00 -1.00 -1.00
  virtual crystal weights 
   VCA    =   1.00  1.00  1.00
   NELECT =     385.0000    total number of electrons
   NUPDOWN=      -1.0000    fix difference up-down

 DOS related values:
   EMIN   =  10.00;   EMAX   =-10.00  energy-range for DOS
   EFERMI =   0.00
   ISMEAR =     0;   SIGMA  =   0.05  broadening in eV -4-tet -1-fermi 0-gaus

 Electronic relaxation 2 (details)
   IALGO  =     38    algorithm
   LDIAG  =      T    sub-space diagonalisation (order eigenvalues)
   LSUBROT=      F    optimize rotation matrix (better conditioning)
   TURBO    =      0    0=normal 1=particle mesh
   IRESTART =      0    0=no restart 2=restart with 2 vectors
   NREBOOT  =      0    no. of reboots
   NMIN     =      0    reboot dimension
   EREF     =   0.00    reference energy to select bands
   IMIX   =      4    mixing-type and parameters
     AMIX     =   0.20;   BMIX     =  1.00
     AMIX_MAG =   0.80;   BMIX_MAG =  1.00
     AMIN     =   0.10
     WC   =   100.;   INIMIX=   1;  MIXPRE=   1;  MAXMIX= -45

 Intra band minimization:
   WEIMIN = 0.0000     energy-eigenvalue tresh-hold
   EBREAK =  0.98E-09  absolut break condition
   DEPER  =   0.30     relativ break condition  

   TIME   =   0.40     timestep for ELM

  volume/ion in A,a.u.               =      12.63        85.20
  Fermi-wavevector in a.u.,A,eV,Ry     =   1.229438  2.323301 20.565440  1.511517
  Thomas-Fermi vector in A             =   2.364325
 
 Write flags
   LWAVE        =      F    write WAVECAR
   LDOWNSAMPLE  =      F    k-point downsampling of WAVECAR
   LCHARG       =      F    write CHGCAR
   LVTOT        =      T    write LOCPOT, total local potential
   LVHAR        =      F    write LOCPOT, Hartree potential only
   LELF         =      F    write electronic localiz. function (ELF)
   LORBIT       =     11    0 simple, 1 ext, 2 COOP (PROOUT), +10 PAW based schemes


 Dipole corrections
   LMONO  =      F    monopole corrections only (constant potential shift)
   LDIPOL =      F    correct potential (dipole corrections)
   IDIPOL =      0    1-x, 2-y, 3-z, 4-all directions 
   EPSILON=  1.0000000 bulk dielectric constant

 Exchange correlation treatment:
   GGA     =    --    GGA type
   LEXCH   =     8    internal setting for exchange type
   LIBXC   =     F    Libxc                    
   VOSKOWN =     0    Vosko Wilk Nusair interpolation
   LHFCALC =     F    Hartree Fock is set to
   LHFONE  =     F    Hartree Fock one center treatment
   AEXX    =    0.0000 exact exchange contribution

 Linear response parameters
   LEPSILON=     F    determine dielectric tensor
   LRPA    =     F    only Hartree local field effects (RPA)
   LNABLA  =     F    use nabla operator in PAW spheres
   LVEL    =     F    velocity operator in full k-point grid
   CSHIFT  =0.1000    complex shift for real part using Kramers Kronig
   OMEGAMAX=  -1.0    maximum frequency
   DEG_THRESHOLD= 0.2000000E-02 threshold for treating states as degnerate
   RTIME   =   -0.100 relaxation time in fs
  (WPLASMAI=    0.000 imaginary part of plasma frequency in eV, 0.658/RTIME)
   DFIELD  = 0.0000000 0.0000000 0.0000000 field for delta impulse in time
 
  Optional k-point grid parameters
   LKPOINTS_OPT  =     F    use optional k-point grid
   KPOINTS_OPT_MODE=     1    mode for optional k-point grid
 
 Orbital magnetization related:
   ORBITALMAG=     F  switch on orbital magnetization
   LCHIMAG   =     F  perturbation theory with respect to B field
   DQ        =  0.001000  dq finite difference perturbation B field
   LLRAUG    =     F  two centre corrections for induced B field



--------------------------------------------------------------------------------------------------------


 Static calculation
 charge density and potential will be updated during run
 non-spin polarized calculation
 Variant of blocked Davidson
 Davidson routine will perform the subspace rotation
 perform sub-space diagonalisation
    after iterative eigenvector-optimisation
 modified Broyden-mixing scheme, WC =      100.0
 initial mixing is a Kerker type mixing with AMIX =  0.2000 and BMIX =      1.0000
 Hartree-type preconditioning will be used
 using additional bands           63
 reciprocal scheme for non local part
 use partial core corrections
 calculate Harris-corrections to forces 
   (improved forces if not selfconsistent)
 use gradient corrections 
 use of overlap-Matrix (Vanderbilt PP)
 Gauss-broadening in eV      SIGMA  =   0.05


--------------------------------------------------------------------------------------------------------


  energy-cutoff  :      550.00
  volume of cell :      909.00
      direct lattice vectors                 reciprocal lattice vectors
     4.914966177 -8.512971136  0.000000000     0.101730100 -0.058733901  0.000000000
     4.914966177  8.512971136  0.000000000     0.101730100  0.058733901  0.000000000
     0.000000000  0.000000000 10.862602280     0.000000000  0.000000000  0.092058972

  length of vectors
     9.829932353  9.829932353 10.862602280     0.117467801  0.117467801  0.092058972


 
 k-points in units of 2pi/SCALE and weight: pymatgen with grid density = 1000 / numb
   0.00000000  0.00000000  0.00000000       0.125
   0.05086505 -0.02936695  0.00000000       0.250
   0.10173010  0.00000000  0.00000000       0.125
   0.00000000  0.00000000  0.04602949       0.125
   0.05086505 -0.02936695  0.04602949       0.250
   0.10173010  0.00000000  0.04602949       0.125
 
 k-points in reciprocal lattice and weights: pymatgen with grid density = 1000 / numb
   0.00000000  0.00000000  0.00000000       0.125
   0.50000000  0.00000000  0.00000000       0.250
   0.50000000  0.50000000  0.00000000       0.125
   0.00000000  0.00000000  0.50000000       0.125
   0.50000000  0.00000000  0.50000000       0.250
   0.50000000  0.50000000  0.50000000       0.125
 
 position of ions in fractional coordinates (direct lattice) 
   0.26554429  0.26554429  0.50000000
   0.26554429  0.76554429  0.00000000
   0.26554429  0.76554429  0.50000000
   0.76554429  0.26554429  0.00000000
   0.76554429  0.26554429  0.50000000
   0.76554429  0.76554429  0.00000000
   0.76554429  0.76554429  0.50000000
   0.00000000  0.23445571  0.33333333
   0.00000000  0.23445571  0.83333333
   0.00000000  0.73445571  0.33333333
   0.00000000  0.73445571  0.83333333
   0.50000000  0.23445571  0.33333333
   0.50000000  0.23445571  0.83333333
   0.50000000  0.73445571  0.33333333
   0.50000000  0.73445571  0.83333333
   0.23445571  0.00000000  0.16666667
   0.23445571  0.00000000  0.66666667
   0.23445571  0.50000000  0.16666667
   0.23445571  0.50000000  0.66666667
   0.73445571  0.00000000  0.16666667
   0.73445571  0.00000000  0.66666667
   0.73445571  0.50000000  0.16666667
   0.73445571  0.50000000  0.66666667
   0.26554429  0.26554429  0.00000000
   0.13461155  0.20669714  0.39244549
   0.13461155  0.20669714  0.89244549
   0.13461155  0.70669714  0.39244549
   0.13461155  0.70669714  0.89244549
   0.63461155  0.20669714  0.39244549
   0.63461155  0.20669714  0.89244549
   0.63461155  0.70669714  0.39244549
   0.63461155  0.70669714  0.89244549
   0.29330286  0.42791441  0.05911216
   0.29330286  0.42791441  0.55911216
   0.29330286  0.92791441  0.05911216
   0.29330286  0.92791441  0.55911216
   0.79330286  0.42791441  0.05911216
   0.79330286  0.42791441  0.55911216
   0.79330286  0.92791441  0.05911216
   0.79330286  0.92791441  0.55911216
   0.07208559  0.36538845  0.22577882
   0.07208559  0.36538845  0.72577882
   0.07208559  0.86538845  0.22577882
   0.07208559  0.86538845  0.72577882
   0.57208559  0.36538845  0.22577882
   0.57208559  0.36538845  0.72577882
   0.57208559  0.86538845  0.22577882
   0.57208559  0.86538845  0.72577882
   0.20669714  0.13461155  0.10755451
   0.20669714  0.13461155  0.60755451
   0.20669714  0.63461155  0.10755451
   0.20669714  0.63461155  0.60755451
   0.70669714  0.13461155  0.10755451
   0.70669714  0.13461155  0.60755451
   0.70669714  0.63461155  0.10755451
   0.70669714  0.63461155  0.60755451
   0.36538845  0.07208559  0.27422118
   0.36538845  0.07208559  0.77422118
   0.36538845  0.57208559  0.27422118
   0.36538845  0.57208559  0.77422118
   0.86538845  0.07208559  0.27422118
   0.86538845  0.07208559  0.77422118
   0.86538845  0.57208559  0.27422118
   0.86538845  0.57208559  0.77422118
   0.42791441  0.29330286  0.44088784
   0.42791441  0.29330286  0.94088784
   0.42791441  0.79330286  0.44088784
   0.42791441  0.79330286  0.94088784
   0.92791441  0.29330286  0.44088784
   0.92791441  0.29330286  0.94088784
   0.92791441  0.79330286  0.44088784
   0.92791441  0.79330286  0.94088784
 
 position of ions in cartesian coordinates  (Angst):
   2.61028246 -0.00000000  5.43130114
   5.06776555  4.25648557  0.00000000
   5.06776555  4.25648557  5.43130114
   5.06776555 -4.25648557  0.00000000
   5.06776555 -4.25648557  5.43130114
   7.52524863  0.00000000  0.00000000
   7.52524863  0.00000000  5.43130114
   1.15234186  1.99591465  3.62086743
   1.15234186  1.99591465  9.05216857
   3.60982495  6.25240022  3.62086743
   3.60982495  6.25240022  9.05216857
   3.60982495 -2.26057092  3.62086743
   3.60982495 -2.26057092  9.05216857
   6.06730804  1.99591465  3.62086743
   6.06730804  1.99591465  9.05216857
   1.15234186 -1.99591465  1.81043371
   1.15234186 -1.99591465  7.24173485
   3.60982495  2.26057092  1.81043371
   3.60982495  2.26057092  7.24173485
   3.60982495 -6.25240022  1.81043371
   3.60982495 -6.25240022  7.24173485
   6.06730804 -1.99591465  1.81043371
   6.06730804 -1.99591465  7.24173485
   2.61028246 -0.00000000  0.00000000
   1.67752072  0.61366255  4.26297927
   1.67752072  0.61366255  9.69428041
   4.13500380  4.87014811  4.26297927
   4.13500380  4.87014811  9.69428041
   4.13500380 -3.64282302  4.26297927
   4.13500380 -3.64282302  9.69428041
   6.59248689  0.61366255  4.26297927
   6.59248689  0.61366255  9.69428041
   3.54475846  1.14594428  0.64211185
   3.54475846  1.14594428  6.07341299
   6.00224155  5.40242985  0.64211185
   6.00224155  5.40242985  6.07341299
   6.00224155 -3.11054129  0.64211185
   6.00224155 -3.11054129  6.07341299
   8.45972464  1.14594428  0.64211185
   8.45972464  1.14594428  6.07341299
   2.15017009  2.49687874  2.45254556
   2.15017009  2.49687874  7.88384670
   4.60765317  6.75336431  2.45254556
   4.60765317  6.75336431  7.88384670
   4.60765317 -1.75960683  2.45254556
   4.60765317 -1.75960683  7.88384670
   7.06513626  2.49687874  2.45254556
   7.06513626  2.49687874  7.88384670
   1.67752072 -0.61366255  1.16832187
   1.67752072 -0.61366255  6.59962301
   4.13500380  3.64282302  1.16832187
   4.13500380  3.64282302  6.59962301
   4.13500380 -4.87014811  1.16832187
   4.13500380 -4.87014811  6.59962301
   6.59248689 -0.61366255  1.16832187
   6.59248689 -0.61366255  6.59962301
   2.15017009 -2.49687874  2.97875558
   2.15017009 -2.49687874  8.41005672
   4.60765317  1.75960683  2.97875558
   4.60765317  1.75960683  8.41005672
   4.60765317 -6.75336431  2.97875558
   4.60765317 -6.75336431  8.41005672
   7.06513626 -2.49687874  2.97875558
   7.06513626 -2.49687874  8.41005672
   3.54475846 -1.14594428  4.78918929
   3.54475846 -1.14594428 10.22049043
   6.00224155  3.11054129  4.78918929
   6.00224155  3.11054129 10.22049043
   6.00224155 -5.40242985  4.78918929
   6.00224155 -5.40242985 10.22049043
   8.45972464 -1.14594428  4.78918929
   8.45972464 -1.14594428 10.22049043
 


--------------------------------------------------------------------------------------------------------


 k-point   1 :   0.0000 0.0000 0.0000  plane waves:   26579
 k-point   2 :   0.5000 0.0000 0.0000  plane waves:   26614
 k-point   3 :   0.5000 0.5000 0.0000  plane waves:   26614
 k-point   4 :   0.0000 0.0000 0.5000  plane waves:   26718
 k-point   5 :   0.5000 0.0000 0.5000  plane waves:   26636
 k-point   6 :   0.5000 0.5000 0.5000  plane waves:   26636

 maximum and minimum number of plane-waves per node :     26718    26579

 maximum number of plane-waves:     26718
 maximum index in each direction: 
   IXMAX=   18   IYMAX=   18   IZMAX=   20
   IXMIN=  -19   IYMIN=  -19   IZMIN=  -21


 serial   3D FFT for wavefunctions
 parallel 3D FFT for charge:
    minimum data exchange during FFTs selected (reduces bandwidth)


 total amount of memory used by VASP MPI-rank0   114071. kBytes
=======================================================================

   base      :      30000. kBytes
   nonl-proj :      61636. kBytes
   fftplans  :       1787. kBytes
   grid      :       9934. kBytes
   one-center:        221. kBytes
   wavefun   :      10493. kBytes
 
     INWAV:  cpu time      0.0000: real time      0.0000
 Broyden mixing: mesh for mixing (old mesh)
   NGX = 37   NGY = 37   NGZ = 41
  (NGX  =112   NGY  =112   NGZ  =128)
  gives a total of  56129 points

 initial charge density was supplied:
 charge density of overlapping atoms calculated
 number of electron     385.0000000 magnetization 
 keeping initial charge density in first step


--------------------------------------------------------------------------------------------------------


 Maximum index for augmentation-charges          412 (set IRDMAX)


--------------------------------------------------------------------------------------------------------


 First call to EWALD:  gamma=   0.183
 Maximum number of real-space cells 3x 3x 3
 Maximum number of reciprocal cells 3x 3x 3

    FEWALD:  cpu time      0.0017: real time      0.0017


--------------------------------------- Iteration      1(   1)  ---------------------------------------


    POTLOK:  cpu time      0.0181: real time      0.0197
    SETDIJ:  cpu time      0.0023: real time      0.0023
     EDDAV:  cpu time      3.3725: real time      3.3898
       DOS:  cpu time      0.0008: real time      0.0008
    --------------------------------------------
      LOOP:  cpu time      3.3937: real time      3.4125

 eigenvalue-minimisations  :  3072
 total energy-change (2. order) : 0.2318399E+04  (-0.2105804E+05)
 number of electron     385.0000000 magnetization 
 augmentation part      385.0000000 magnetization 

 Free energy of the ion-electron system (eV)
  ---------------------------------------------------
  alpha Z        PSCENC =       561.29760740
  Ewald energy   TEWEN  =    -15179.19602506
  -Hartree energ DENC   =     -7505.73190397
  -exchange      EXHF   =         0.00000000
  -V(xc)+E(xc)   XCENC  =      1145.24165978
  PAW double counting   =     18800.98231178   -18474.51157198
  entropy T*S    EENTRO =        -0.01360321
  eigenvalues    EBANDS =      -329.49279737
  atomic energy  EATOM  =     23299.82317458
  Solvation  Ediel_sol  =         0.00000000
  ---------------------------------------------------
  free energy    TOTEN  =      2318.39885194 eV

  energy without entropy =     2318.41245515  energy(sigma->0) =     2318.40565355


--------------------------------------------------------------------------------------------------------




--------------------------------------- Iteration      1(   2)  ---------------------------------------


     EDDAV:  cpu time      4.0473: real time      4.0598
       DOS:  cpu time      0.0004: real time      0.0004
    --------------------------------------------
      LOOP:  cpu time      4.0477: real time      4.0602

 eigenvalue-minimisations  :  4224
 total energy-change (2. order) :-0.2813221E+04  (-0.2745015E+04)
 number of electron     385.0000000 magnetization 
 augmentation part      385.0000000 magnetization 

 Free energy of the ion-electron system (eV)
  ---------------------------------------------------
  alpha Z        PSCENC =       561.29760740
  Ewald energy   TEWEN  =    -15179.19602506
  -Hartree energ DENC   =     -7505.73190397
  -exchange      EXHF   =         0.00000000
  -V(xc)+E(xc)   XCENC  =      1145.24165978
  PAW double counting   =     18800.98231178   -18474.51157198
  entropy T*S    EENTRO =        -0.00860168
  eigenvalues    EBANDS =     -3142.71834843
  atomic energy  EATOM  =     23299.82317458
  Solvation  Ediel_sol  =         0.00000000
  ---------------------------------------------------
  free energy    TOTEN  =      -494.82169759 eV

  energy without entropy =     -494.81309592  energy(sigma->0) =     -494.81739675


--------------------------------------------------------------------------------------------------------




--------------------------------------- Iteration      1(   3)  ---------------------------------------


     EDDAV:  cpu time      3.7478: real time      3.7578
       DOS:  cpu time      0.0004: real time      0.0004
    --------------------------------------------
      LOOP:  cpu time      3.7482: real time      3.7583

 eigenvalue-minimisations  :  3840
 total energy-change (2. order) :-0.1417744E+03  (-0.1412614E+03)
 number of electron     385.0000000 magnetization 
 augmentation part      385.0000000 magnetization 

 Free energy of the ion-electron system (eV)
  ---------------------------------------------------
  alpha Z        PSCENC =       561.29760740
  Ewald energy   TEWEN  =    -15179.19602506
  -Hartree energ DENC   =     -7505.73190397
  -exchange      EXHF   =         0.00000000
  -V(xc)+E(xc)   XCENC  =      1145.24165978
  PAW double counting   =     18800.98231178   -18474.51157198
  entropy T*S    EENTRO =        -0.01115236
  eigenvalues    EBANDS =     -3284.49019267
  atomic energy  EATOM  =     23299.82317458
  Solvation  Ediel_sol  =         0.00000000
  ---------------------------------------------------
  free energy    TOTEN  =      -636.59609251 eV

  energy without entropy =     -636.58494015  energy(sigma->0) =     -636.59051633


--------------------------------------------------------------------------------------------------------




--------------------------------------- Iteration      1(   4)  ---------------------------------------


     EDDAV:  cpu time      3.7277: real time      3.7370
       DOS:  cpu time      0.0004: real time      0.0004
    --------------------------------------------
      LOOP:  cpu time      3.7281: real time      3.7374

 eigenvalue-minimisations  :  3840
 total energy-change (2. order) :-0.1585918E+01  (-0.1584225E+01)
 number of electron     385.0000000 magnetization 
 augmentation part      385.0000000 magnetization 

 Free energy of the ion-electron system (eV)
  ---------------------------------------------------
  alpha Z        PSCENC =       561.29760740
  Ewald energy   TEWEN  =    -15179.19602506
  -Hartree energ DENC   =     -7505.73190397
  -exchange      EXHF   =         0.00000000
  -V(xc)+E(xc)   XCENC  =      1145.24165978
  PAW double counting   =     18800.98231178   -18474.51157198
  entropy T*S    EENTRO =        -0.01136482
  eigenvalues    EBANDS =     -3286.07589807
  atomic energy  EATOM  =     23299.82317458
  Solvation  Ediel_sol  =         0.00000000
  ---------------------------------------------------
  free energy    TOTEN  =      -638.18201037 eV

  energy without entropy =     -638.17064555  energy(sigma->0) =     -638.17632796


--------------------------------------------------------------------------------------------------------




--------------------------------------- Iteration      1(   5)  ---------------------------------------


     EDDAV:  cpu time      3.6699: real time      3.6783
       DOS:  cpu time      0.0004: real time      0.0004
    CHARGE:  cpu time      0.0468: real time      0.0473
    MIXING:  cpu time      0.0012: real time      0.0013
    --------------------------------------------
      LOOP:  cpu time      3.7184: real time      3.7273

 eigenvalue-minimisations  :  3776
 total energy-change (2. order) :-0.2457450E-01  (-0.2456988E-01)
 number of electron     385.0000060 magnetization 
 augmentation part       35.3319055 magnetization 

 Broyden mixing:
  rms(total) = 0.72893E+01    rms(broyden)= 0.72885E+01
  rms(prec ) = 0.83842E+01
  weight for this iteration     100.00

 Free energy of the ion-electron system (eV)
  ---------------------------------------------------
  alpha Z        PSCENC =       561.29760740
  Ewald energy   TEWEN  =    -15179.19602506
  -Hartree energ DENC   =     -7505.73190397
  -exchange      EXHF   =         0.00000000
  -V(xc)+E(xc)   XCENC  =      1145.24165978
  PAW double counting   =     18800.98231178   -18474.51157198
  entropy T*S    EENTRO =        -0.01136901
  eigenvalues    EBANDS =     -3286.10046838
  atomic energy  EATOM  =     23299.82317458
  Solvation  Ediel_sol  =         0.00000000
  ---------------------------------------------------
  free energy    TOTEN  =      -638.20658487 eV

  energy without entropy =     -638.19521586  energy(sigma->0) =     -638.20090037


--------------------------------------------------------------------------------------------------------




--------------------------------------- Iteration      1(   6)  ---------------------------------------


    POTLOK:  cpu time      0.0120: real time      0.0121
    SETDIJ:  cpu time      0.0018: real time      0.0018
     EDDAV:  cpu time      3.7288: real time      3.7368
       DOS:  cpu time      0.0005: real time      0.0005
    CHARGE:  cpu time      0.0461: real time      0.0463
    MIXING:  cpu time      0.0007: real time      0.0007
    --------------------------------------------
      LOOP:  cpu time      3.7899: real time      3.7983

 eigenvalue-minimisations  :  3840
 total energy-change (2. order) : 0.5519496E+02  (-0.7489210E+01)
 number of electron     385.0000056 magnetization 
 augmentation part       31.8558966 magnetization 

 Broyden mixing:
  rms(total) = 0.50204E+01    rms(broyden)= 0.50203E+01
  rms(prec ) = 0.55350E+01
  weight for this iteration     100.00

 eigenvalues of (default mixing * dielectric matrix)
  average eigenvalue GAMMA=   2.3405
  2.3405

 Free energy of the ion-electron system (eV)
  ---------------------------------------------------
  alpha Z        PSCENC =       561.29760740
  Ewald energy   TEWEN  =    -15179.19602506
  -Hartree energ DENC   =     -7924.00911964
  -exchange      EXHF   =         0.00000000
  -V(xc)+E(xc)   XCENC  =      1173.45722525
  PAW double counting   =     24866.15867596   -24547.98079477
  entropy T*S    EENTRO =        -0.00932649
  eigenvalues    EBANDS =     -2832.55303762
  atomic energy  EATOM  =     23299.82317458
  Solvation  Ediel_sol  =         0.00000000
  ---------------------------------------------------
  free energy    TOTEN  =      -583.01162039 eV

  energy without entropy =     -583.00229390  energy(sigma->0) =     -583.00695714


--------------------------------------------------------------------------------------------------------




--------------------------------------- Iteration      1(   7)  ---------------------------------------


    POTLOK:  cpu time      0.0105: real time      0.0106
    SETDIJ:  cpu time      0.0018: real time      0.0018
     EDDAV:  cpu time      3.8418: real time      3.8518
       DOS:  cpu time      0.0004: real time      0.0004
    CHARGE:  cpu time      0.0486: real time      0.0488
    MIXING:  cpu time      0.0007: real time      0.0007
    --------------------------------------------
      LOOP:  cpu time      3.9037: real time      3.9141

 eigenvalue-minimisations  :  3840
 total energy-change (2. order) : 0.2062045E+02  (-0.1181553E+02)
 number of electron     385.0000050 magnetization 
 augmentation part       27.5537120 magnetization 

 Broyden mixing:
  rms(total) = 0.23188E+01    rms(broyden)= 0.23183E+01
  rms(prec ) = 0.24010E+01
  weight for this iteration     100.00

 eigenvalues of (default mixing * dielectric matrix)
  average eigenvalue GAMMA=   2.5096
  2.5096  2.5096

 Free energy of the ion-electron system (eV)
  ---------------------------------------------------
  alpha Z        PSCENC =       561.29760740
  Ewald energy   TEWEN  =    -15179.19602506
  -Hartree energ DENC   =     -8476.25675604
  -exchange      EXHF   =         0.00000000
  -V(xc)+E(xc)   XCENC  =      1210.68075813
  PAW double counting   =     42890.85107027   -42582.64615464
  entropy T*S    EENTRO =        -0.01314182
  eigenvalues    EBANDS =     -2286.93170500
  atomic energy  EATOM  =     23299.82317458
  Solvation  Ediel_sol  =         0.00000000
  ---------------------------------------------------
  free energy    TOTEN  =      -562.39117218 eV

  energy without entropy =     -562.37803036  energy(sigma->0) =     -562.38460127


--------------------------------------------------------------------------------------------------------




--------------------------------------- Iteration      1(   8)  ---------------------------------------


    POTLOK:  cpu time      0.0121: real time      0.0123
    SETDIJ:  cpu time      0.0020: real time      0.0020
     EDDAV:  cpu time      6.2736: real time      6.2903
       DOS:  cpu time      0.0004: real time      0.0004
    CHARGE:  cpu time      0.0493: real time      0.0495
    MIXING:  cpu time      0.0006: real time      0.0010
    --------------------------------------------
      LOOP:  cpu time      6.3381: real time      6.3555

 eigenvalue-minimisations  :  3648
 total energy-change (2. order) : 0.6753657E-04  (-0.5699880E+00)
 number of electron     385.0000051 magnetization 
 augmentation part       28.3029346 magnetization 

 Broyden mixing:
  rms(total) = 0.75515E+00    rms(broyden)= 0.75515E+00
  rms(prec ) = 0.83278E+00
  weight for this iteration     100.00

 eigenvalues of (default mixing * dielectric matrix)
  average eigenvalue GAMMA=   2.4991
  4.2258  1.2359  2.0356

 Free energy of the ion-electron system (eV)
  ---------------------------------------------------
  alpha Z        PSCENC =       561.29760740
  Ewald energy   TEWEN  =    -15179.19602506
  -Hartree energ DENC   =     -8441.13797010
  -exchange      EXHF   =         0.00000000
  -V(xc)+E(xc)   XCENC  =      1208.67139587
  PAW double counting   =     55607.27035150   -55297.07652609
  entropy T*S    EENTRO =        -0.01275845
  eigenvalues    EBANDS =     -2322.03035429
  atomic energy  EATOM  =     23299.82317458
  Solvation  Ediel_sol  =         0.00000000
  ---------------------------------------------------
  free energy    TOTEN  =      -562.39110465 eV

  energy without entropy =     -562.37834620  energy(sigma->0) =     -562.38472542


--------------------------------------------------------------------------------------------------------




--------------------------------------- Iteration      1(   9)  ---------------------------------------


    POTLOK:  cpu time      0.0120: real time      0.0123
    SETDIJ:  cpu time      0.0019: real time      0.0020
     EDDAV:  cpu time      4.3413: real time      4.3594
       DOS:  cpu time      0.0004: real time      0.0004
    CHARGE:  cpu time      0.0468: real time      0.0471
    MIXING:  cpu time      0.0006: real time      0.0006
    --------------------------------------------
      LOOP:  cpu time      4.4031: real time      4.4217

 eigenvalue-minimisations  :  3840
 total energy-change (2. order) : 0.1144391E+00  (-0.8495009E-01)
 number of electron     385.0000050 magnetization 
 augmentation part       27.9997070 magnetization 

 Broyden mixing:
  rms(total) = 0.20507E+00    rms(broyden)= 0.20505E+00
  rms(prec ) = 0.22497E+00
  weight for this iteration     100.00

 eigenvalues of (default mixing * dielectric matrix)
  average eigenvalue GAMMA=   2.4869
  4.9039  0.9889  2.0274  2.0274

 Free energy of the ion-electron system (eV)
  ---------------------------------------------------
  alpha Z        PSCENC =       561.29760740
  Ewald energy   TEWEN  =    -15179.19602506
  -Hartree energ DENC   =     -8523.92893127
  -exchange      EXHF   =         0.00000000
  -V(xc)+E(xc)   XCENC  =      1214.58011634
  PAW double counting   =     64979.53068543   -64670.52307301
  entropy T*S    EENTRO =        -0.01310476
  eigenvalues    EBANDS =     -2243.84711523
  atomic energy  EATOM  =     23299.82317458
  Solvation  Ediel_sol  =         0.00000000
  ---------------------------------------------------
  free energy    TOTEN  =      -562.27666559 eV

  energy without entropy =     -562.26356083  energy(sigma->0) =     -562.27011321


--------------------------------------------------------------------------------------------------------




--------------------------------------- Iteration      1(  10)  ---------------------------------------


    POTLOK:  cpu time      0.0124: real time      0.0126
    SETDIJ:  cpu time      0.0020: real time      0.0020
     EDDAV:  cpu time      4.0041: real time      4.0167
       DOS:  cpu time      0.0006: real time      0.0006
    CHARGE:  cpu time      0.0478: real time      0.0481
    MIXING:  cpu time      0.0006: real time      0.0006
    --------------------------------------------
      LOOP:  cpu time      4.0675: real time      4.0807

 eigenvalue-minimisations  :  3840
 total energy-change (2. order) :-0.4989732E-01  (-0.1026669E-01)
 number of electron     385.0000050 magnetization 
 augmentation part       27.9110298 magnetization 

 Broyden mixing:
  rms(total) = 0.21286E+00    rms(broyden)= 0.21285E+00
  rms(prec ) = 0.21718E+00
  weight for this iteration     100.00

 eigenvalues of (default mixing * dielectric matrix)
  average eigenvalue GAMMA=   2.9038
  5.3466  5.0313  1.9763  1.0025  1.1621

 Free energy of the ion-electron system (eV)
  ---------------------------------------------------
  alpha Z        PSCENC =       561.29760740
  Ewald energy   TEWEN  =    -15179.19602506
  -Hartree energ DENC   =     -8547.99091037
  -exchange      EXHF   =         0.00000000
  -V(xc)+E(xc)   XCENC  =      1216.30572572
  PAW double counting   =     66573.55672028   -66264.96256640
  entropy T*S    EENTRO =        -0.01319591
  eigenvalues    EBANDS =     -2221.14709315
  atomic energy  EATOM  =     23299.82317458
  Solvation  Ediel_sol  =         0.00000000
  ---------------------------------------------------
  free energy    TOTEN  =      -562.32656291 eV

  energy without entropy =     -562.31336701  energy(sigma->0) =     -562.31996496


--------------------------------------------------------------------------------------------------------




--------------------------------------- Iteration      1(  11)  ---------------------------------------


    POTLOK:  cpu time      0.0113: real time      0.0114
    SETDIJ:  cpu time      0.0019: real time      0.0019
     EDDAV:  cpu time      3.9994: real time      4.0131
       DOS:  cpu time      0.0006: real time      0.0006
    CHARGE:  cpu time      0.0474: real time      0.0476
    MIXING:  cpu time      0.0005: real time      0.0005
    --------------------------------------------
      LOOP:  cpu time      4.0610: real time      4.0753

 eigenvalue-minimisations  :  3840
 total energy-change (2. order) :-0.1567040E-01  (-0.5171835E-02)
 number of electron     385.0000050 magnetization 
 augmentation part       27.9974960 magnetization 

 Broyden mixing:
  rms(total) = 0.49772E-01    rms(broyden)= 0.49765E-01
  rms(prec ) = 0.51948E-01
  weight for this iteration     100.00

 eigenvalues of (default mixing * dielectric matrix)
  average eigenvalue GAMMA=   2.5715
  5.3171  4.6850  1.9941  1.4111  0.9661  1.0555

 Free energy of the ion-electron system (eV)
  ---------------------------------------------------
  alpha Z        PSCENC =       561.29760740
  Ewald energy   TEWEN  =    -15179.19602506
  -Hartree energ DENC   =     -8543.72988545
  -exchange      EXHF   =         0.00000000
  -V(xc)+E(xc)   XCENC  =      1215.95089786
  PAW double counting   =     63592.54760691   -63284.03955783
  entropy T*S    EENTRO =        -0.01317554
  eigenvalues    EBANDS =     -2224.98287617
  atomic energy  EATOM  =     23299.82317458
  Solvation  Ediel_sol  =         0.00000000
  ---------------------------------------------------
  free energy    TOTEN  =      -562.34223332 eV

  energy without entropy =     -562.32905777  energy(sigma->0) =     -562.33564555


--------------------------------------------------------------------------------------------------------




--------------------------------------- Iteration      1(  12)  ---------------------------------------


    POTLOK:  cpu time      0.0109: real time      0.0111
    SETDIJ:  cpu time      0.0019: real time      0.0019
     EDDAV:  cpu time      4.0053: real time      4.0179
       DOS:  cpu time      0.0006: real time      0.0006
    CHARGE:  cpu time      0.0476: real time      0.0478
    MIXING:  cpu time      0.0007: real time      0.0008
    --------------------------------------------
      LOOP:  cpu time      4.0671: real time      4.0801

 eigenvalue-minimisations  :  3840
 total energy-change (2. order) : 0.9284869E-03  (-0.3753247E-03)
 number of electron     385.0000050 magnetization 
 augmentation part       27.9784359 magnetization 

 Broyden mixing:
  rms(total) = 0.20295E-01    rms(broyden)= 0.20294E-01
  rms(prec ) = 0.20930E-01
  weight for this iteration     100.00

 eigenvalues of (default mixing * dielectric matrix)
  average eigenvalue GAMMA=   2.4215
  5.3444  4.5932  1.9876  1.9876  1.0666  0.9855  0.9855

 Free energy of the ion-electron system (eV)
  ---------------------------------------------------
  alpha Z        PSCENC =       561.29760740
  Ewald energy   TEWEN  =    -15179.19602506
  -Hartree energ DENC   =     -8546.31090342
  -exchange      EXHF   =         0.00000000
  -V(xc)+E(xc)   XCENC  =      1216.13260766
  PAW double counting   =     64002.14570535   -63693.64277464
  entropy T*S    EENTRO =        -0.01324604
  eigenvalues    EBANDS =     -2222.57745066
  atomic energy  EATOM  =     23299.82317458
  Solvation  Ediel_sol  =         0.00000000
  ---------------------------------------------------
  free energy    TOTEN  =      -562.34130483 eV

  energy without entropy =     -562.32805879  energy(sigma->0) =     -562.33468181


--------------------------------------------------------------------------------------------------------




--------------------------------------- Iteration      1(  13)  ---------------------------------------


    POTLOK:  cpu time      0.0110: real time      0.0112
    SETDIJ:  cpu time      0.0019: real time      0.0020
     EDDAV:  cpu time      4.0034: real time      4.0162
       DOS:  cpu time      0.0006: real time      0.0006
    CHARGE:  cpu time      0.0474: real time      0.0478
    MIXING:  cpu time      0.0007: real time      0.0007
    --------------------------------------------
      LOOP:  cpu time      4.0650: real time      4.0785

 eigenvalue-minimisations  :  3840
 total energy-change (2. order) :-0.3240679E-03  (-0.4374072E-04)
 number of electron     385.0000050 magnetization 
 augmentation part       27.9762235 magnetization 

 Broyden mixing:
  rms(total) = 0.11945E-01    rms(broyden)= 0.11945E-01
  rms(prec ) = 0.12331E-01
  weight for this iteration     100.00

 eigenvalues of (default mixing * dielectric matrix)
  average eigenvalue GAMMA=   2.3338
  5.3369  4.5560  1.9505  1.7896  1.7896  0.9541  1.1103  1.1832

 Free energy of the ion-electron system (eV)
  ---------------------------------------------------
  alpha Z        PSCENC =       561.29760740
  Ewald energy   TEWEN  =    -15179.19602506
  -Hartree energ DENC   =     -8546.67063511
  -exchange      EXHF   =         0.00000000
  -V(xc)+E(xc)   XCENC  =      1216.15701579
  PAW double counting   =     64097.49025576   -63788.96092031
  entropy T*S    EENTRO =        -0.01328216
  eigenvalues    EBANDS =     -2222.26881978
  atomic energy  EATOM  =     23299.82317458
  Solvation  Ediel_sol  =         0.00000000
  ---------------------------------------------------
  free energy    TOTEN  =      -562.34162890 eV

  energy without entropy =     -562.32834674  energy(sigma->0) =     -562.33498782


--------------------------------------------------------------------------------------------------------




--------------------------------------- Iteration      1(  14)  ---------------------------------------


    POTLOK:  cpu time      0.0114: real time      0.0115
    SETDIJ:  cpu time      0.0020: real time      0.0020
     EDDAV:  cpu time      4.0321: real time      4.0463
       DOS:  cpu time      0.0006: real time      0.0006
    CHARGE:  cpu time      0.0490: real time      0.0493
    MIXING:  cpu time      0.0007: real time      0.0007
    --------------------------------------------
      LOOP:  cpu time      4.0959: real time      4.1105

 eigenvalue-minimisations  :  3840
 total energy-change (2. order) :-0.1566747E-03  (-0.4699174E-05)
 number of electron     385.0000050 magnetization 
 augmentation part       27.9776357 magnetization 

 Broyden mixing:
  rms(total) = 0.90175E-02    rms(broyden)= 0.90175E-02
  rms(prec ) = 0.94557E-02
  weight for this iteration     100.00

 eigenvalues of (default mixing * dielectric matrix)
  average eigenvalue GAMMA=   2.5718
  5.5045  4.6734  4.6734  2.0417  2.0417  1.1120  1.1120  0.9662  1.0212

 Free energy of the ion-electron system (eV)
  ---------------------------------------------------
  alpha Z        PSCENC =       561.29760740
  Ewald energy   TEWEN  =    -15179.19602506
  -Hartree energ DENC   =     -8546.61951293
  -exchange      EXHF   =         0.00000000
  -V(xc)+E(xc)   XCENC  =      1216.15195162
  PAW double counting   =     64115.04234038   -63806.49887556
  entropy T*S    EENTRO =        -0.01327476
  eigenvalues    EBANDS =     -2222.32917124
  atomic energy  EATOM  =     23299.82317458
  Solvation  Ediel_sol  =         0.00000000
  ---------------------------------------------------
  free energy    TOTEN  =      -562.34178557 eV

  energy without entropy =     -562.32851081  energy(sigma->0) =     -562.33514819


--------------------------------------------------------------------------------------------------------




--------------------------------------- Iteration      1(  15)  ---------------------------------------


    POTLOK:  cpu time      0.0112: real time      0.0114
    SETDIJ:  cpu time      0.0020: real time      0.0020
     EDDAV:  cpu time      4.0314: real time      4.0442
       DOS:  cpu time      0.0006: real time      0.0006
    CHARGE:  cpu time      0.0479: real time      0.0480
    MIXING:  cpu time      0.0007: real time      0.0007
    --------------------------------------------
      LOOP:  cpu time      4.0938: real time      4.1070

 eigenvalue-minimisations  :  3840
 total energy-change (2. order) :-0.1885976E-03  (-0.2787751E-04)
 number of electron     385.0000050 magnetization 
 augmentation part       27.9739838 magnetization 

 Broyden mixing:
  rms(total) = 0.12063E-02    rms(broyden)= 0.12058E-02
  rms(prec ) = 0.13791E-02
  weight for this iteration     100.00

 eigenvalues of (default mixing * dielectric matrix)
  average eigenvalue GAMMA=   2.4257
  5.5161  4.8847  4.8847  1.9605  1.8188  1.1836  1.1836  1.0251  0.9551  0.8447

 Free energy of the ion-electron system (eV)
  ---------------------------------------------------
  alpha Z        PSCENC =       561.29760740
  Ewald energy   TEWEN  =    -15179.19602506
  -Hartree energ DENC   =     -8547.32890863
  -exchange      EXHF   =         0.00000000
  -V(xc)+E(xc)   XCENC  =      1216.19596034
  PAW double counting   =     64191.54634864   -63882.97902244
  entropy T*S    EENTRO =        -0.01328557
  eigenvalues    EBANDS =     -2221.68782343
  atomic energy  EATOM  =     23299.82317458
  Solvation  Ediel_sol  =         0.00000000
  ---------------------------------------------------
  free energy    TOTEN  =      -562.34197417 eV

  energy without entropy =     -562.32868860  energy(sigma->0) =     -562.33533139


--------------------------------------------------------------------------------------------------------




--------------------------------------- Iteration      1(  16)  ---------------------------------------


    POTLOK:  cpu time      0.0115: real time      0.0117
    SETDIJ:  cpu time      0.0020: real time      0.0020
     EDDAV:  cpu time      4.0457: real time      4.0586
       DOS:  cpu time      0.0007: real time      0.0007
    CHARGE:  cpu time      0.0471: real time      0.0475
    MIXING:  cpu time      0.0008: real time      0.0008
    --------------------------------------------
      LOOP:  cpu time      4.1077: real time      4.1212

 eigenvalue-minimisations  :  3840
 total energy-change (2. order) :-0.5568039E-05  (-0.8861506E-06)
 number of electron     385.0000050 magnetization 
 augmentation part       27.9736715 magnetization 

 Broyden mixing:
  rms(total) = 0.18671E-02    rms(broyden)= 0.18671E-02
  rms(prec ) = 0.19426E-02
  weight for this iteration     100.00

 eigenvalues of (default mixing * dielectric matrix)
  average eigenvalue GAMMA=   2.3449
  5.6288  4.8272  4.8272  1.9753  1.6521  1.6521  1.2629  0.9804  0.9804  1.0036
  1.0036

 Free energy of the ion-electron system (eV)
  ---------------------------------------------------
  alpha Z        PSCENC =       561.29760740
  Ewald energy   TEWEN  =    -15179.19602506
  -Hartree energ DENC   =     -8547.36226187
  -exchange      EXHF   =         0.00000000
  -V(xc)+E(xc)   XCENC  =      1216.19789024
  PAW double counting   =     64199.39111514   -63890.82170637
  entropy T*S    EENTRO =        -0.01328955
  eigenvalues    EBANDS =     -2221.65848425
  atomic energy  EATOM  =     23299.82317458
  Solvation  Ediel_sol  =         0.00000000
  ---------------------------------------------------
  free energy    TOTEN  =      -562.34197974 eV

  energy without entropy =     -562.32869019  energy(sigma->0) =     -562.33533497


--------------------------------------------------------------------------------------------------------




--------------------------------------- Iteration      1(  17)  ---------------------------------------


    POTLOK:  cpu time      0.0113: real time      0.0115
    SETDIJ:  cpu time      0.0020: real time      0.0020
     EDDAV:  cpu time      3.9350: real time      3.9483
       DOS:  cpu time      0.0006: real time      0.0006
    CHARGE:  cpu time      0.0490: real time      0.0493
    MIXING:  cpu time      0.0009: real time      0.0009
    --------------------------------------------
      LOOP:  cpu time      3.9988: real time      4.0126

 eigenvalue-minimisations  :  3712
 total energy-change (2. order) :-0.2098746E-05  (-0.2716148E-06)
 number of electron     385.0000050 magnetization 
 augmentation part       27.9739078 magnetization 

 Broyden mixing:
  rms(total) = 0.91164E-03    rms(broyden)= 0.91161E-03
  rms(prec ) = 0.97272E-03
  weight for this iteration     100.00

 eigenvalues of (default mixing * dielectric matrix)
  average eigenvalue GAMMA=   2.3830
  5.8437  5.0166  4.3946  3.3067  1.9806  1.9186  1.1240  1.1240  1.0178  1.0178
  0.9892  0.8622

 Free energy of the ion-electron system (eV)
  ---------------------------------------------------
  alpha Z        PSCENC =       561.29760740
  Ewald energy   TEWEN  =    -15179.19602506
  -Hartree energ DENC   =     -8547.36722191
  -exchange      EXHF   =         0.00000000
  -V(xc)+E(xc)   XCENC  =      1216.19757388
  PAW double counting   =     64187.97346292   -63879.40568582
  entropy T*S    EENTRO =        -0.01329057
  eigenvalues    EBANDS =     -2221.65157726
  atomic energy  EATOM  =     23299.82317458
  Solvation  Ediel_sol  =         0.00000000
  ---------------------------------------------------
  free energy    TOTEN  =      -562.34198184 eV

  energy without entropy =     -562.32869127  energy(sigma->0) =     -562.33533655


--------------------------------------------------------------------------------------------------------




--------------------------------------- Iteration      1(  18)  ---------------------------------------


    POTLOK:  cpu time      0.0131: real time      0.0133
    SETDIJ:  cpu time      0.0024: real time      0.0024
     EDDAV:  cpu time      3.7232: real time      3.7358
       DOS:  cpu time      0.0006: real time      0.0006
    CHARGE:  cpu time      0.0473: real time      0.0476
    MIXING:  cpu time      0.0010: real time      0.0010
    --------------------------------------------
      LOOP:  cpu time      3.7876: real time      3.8006

 eigenvalue-minimisations  :  3456
 total energy-change (2. order) :-0.1872533E-05  (-0.1773483E-06)
 number of electron     385.0000050 magnetization 
 augmentation part       27.9741765 magnetization 

 Broyden mixing:
  rms(total) = 0.29383E-03    rms(broyden)= 0.29381E-03
  rms(prec ) = 0.33586E-03
  weight for this iteration     100.00

 eigenvalues of (default mixing * dielectric matrix)
  average eigenvalue GAMMA=   2.3781
  5.9277  5.2315  4.4655  3.7871  1.9616  1.9616  1.2105  1.2105  1.1609  1.1609
  0.9661  0.9357  0.9357

[...]
   0.814E+00 0.302E+01 -.167E+01   -.556E+00 -.286E+01 0.185E+01   -.159E+00 -.207E+00 -.550E-01   0.190E-03 0.174E-03 -.222E-03
   0.971E-01 0.432E+01 0.206E+01   0.659E+00 -.561E+01 -.345E+01   -.598E+00 0.249E+00 0.286E+00   -.380E-04 0.521E-04 -.125E-03
   0.793E+00 0.171E+01 -.859E+00   -.491E+00 -.147E+01 0.101E+01   -.192E+00 -.219E+00 -.738E-01   -.356E-04 -.470E-04 -.103E-03
   -.435E-01 0.129E+01 0.120E+01   0.275E+00 -.103E+01 -.127E+01   -.145E+00 -.220E+00 0.144E-02   -.264E-03 -.110E-03 0.648E-04
   0.273E+01 -.146E+00 -.220E+01   -.350E+01 -.159E+01 0.345E+01   0.239E+00 0.506E+00 -.577E+00   -.927E-04 -.965E-04 -.644E-04
   0.169E+01 -.105E+01 0.164E+01   -.172E+01 0.835E+00 -.185E+01   -.649E-01 0.191E+00 0.577E-01   0.102E-03 0.101E-03 0.504E-04
   0.971E-01 -.432E+01 -.206E+01   0.659E+00 0.561E+01 0.345E+01   -.598E+00 -.249E+00 -.286E+00   -.380E-04 -.521E-04 0.125E-03
   0.814E+00 -.302E+01 0.167E+01   -.556E+00 0.286E+01 -.185E+01   -.159E+00 0.207E+00 0.550E-01   0.190E-03 -.174E-03 0.222E-03
   0.189E+01 -.243E+01 -.971E+00   -.180E+01 0.223E+01 0.103E+01   -.128E+00 0.220E+00 -.173E-01   0.295E-05 -.264E-04 -.115E-03
   0.139E+01 -.216E+01 0.762E+00   -.137E+01 0.198E+01 -.880E+00   -.905E-01 0.210E+00 0.188E-01   0.147E-03 -.287E-04 0.655E-04
   -.435E-01 -.129E+01 -.120E+01   0.275E+00 0.103E+01 0.127E+01   -.145E+00 0.220E+00 -.144E-02   -.264E-03 0.110E-03 -.648E-04
   0.793E+00 -.171E+01 0.859E+00   -.491E+00 0.147E+01 -.101E+01   -.192E+00 0.219E+00 0.738E-01   -.356E-04 0.470E-04 0.103E-03
   -.305E+01 -.747E-06 0.154E-07   0.257E+01 -.120E-12 0.169E-13   0.413E+00 -.473E-17 -.402E-17   0.667E-04 -.923E-13 0.341E-13
   0.433E+02 0.569E+02 0.297E+02   -.518E+02 -.731E+02 -.401E+02   0.838E+01 0.160E+02 0.102E+02   0.112E-03 -.866E-04 -.313E-04
   0.604E+02 0.456E+02 0.548E+02   -.697E+02 -.614E+02 -.665E+02   0.968E+01 0.144E+02 0.122E+02   0.484E-03 -.516E-04 0.351E-03
   0.427E+02 0.574E+02 0.314E+02   -.512E+02 -.736E+02 -.419E+02   0.837E+01 0.160E+02 0.104E+02   0.728E-04 -.702E-04 0.500E-04
   0.431E+02 0.573E+02 0.334E+02   -.516E+02 -.735E+02 -.439E+02   0.838E+01 0.160E+02 0.104E+02   0.103E-04 0.998E-05 -.561E-04
   0.423E+02 0.580E+02 0.312E+02   -.508E+02 -.742E+02 -.417E+02   0.835E+01 0.160E+02 0.103E+02   0.118E-03 0.238E-05 0.356E-04
   0.417E+02 0.600E+02 0.337E+02   -.501E+02 -.761E+02 -.443E+02   0.819E+01 0.159E+02 0.105E+02   -.235E-04 0.266E-03 -.354E-04
   0.420E+02 0.573E+02 0.312E+02   -.505E+02 -.735E+02 -.417E+02   0.835E+01 0.160E+02 0.103E+02   0.402E-04 -.514E-04 -.345E-04
   0.402E+02 0.569E+02 0.337E+02   -.486E+02 -.731E+02 -.443E+02   0.823E+01 0.160E+02 0.104E+02   0.128E-04 -.114E-03 0.931E-04
   -.888E+02 -.137E+02 0.196E+02   0.108E+03 0.157E+02 -.297E+02   -.192E+02 -.306E+01 0.893E+01   -.406E-03 -.380E-03 -.190E-03
   -.715E+02 0.752E+01 0.335E+02   0.898E+02 -.675E+01 -.441E+02   -.181E+02 -.788E+00 0.104E+02   -.663E-04 -.134E-04 0.872E-04
   -.691E+02 0.122E+02 0.311E+02   0.872E+02 -.118E+02 -.415E+02   -.177E+02 -.258E+00 0.103E+02   0.136E-03 0.310E-03 0.400E-04
   -.707E+02 0.877E+01 0.329E+02   0.890E+02 -.802E+01 -.435E+02   -.180E+02 -.748E+00 0.104E+02   -.799E-04 0.255E-04 -.214E-04
   -.722E+02 0.882E+01 0.316E+02   0.905E+02 -.806E+01 -.421E+02   -.181E+02 -.795E+00 0.103E+02   -.237E-04 0.124E-03 -.314E-04
   -.712E+02 0.827E+01 0.328E+02   0.896E+02 -.751E+01 -.433E+02   -.181E+02 -.781E+00 0.104E+02   -.904E-04 -.243E-04 -.146E-04
   -.687E+02 0.730E+01 0.315E+02   0.869E+02 -.649E+01 -.419E+02   -.179E+02 -.852E+00 0.103E+02   0.201E-04 0.104E-04 -.498E-04
   -.706E+02 0.796E+01 0.328E+02   0.889E+02 -.720E+01 -.434E+02   -.181E+02 -.774E+00 0.104E+02   -.298E-04 0.648E-04 0.300E-04
   0.291E+02 -.692E+02 0.281E+02   -.390E+02 0.849E+02 -.384E+02   0.986E+01 -.156E+02 0.995E+01   0.127E-03 -.169E-03 -.183E-03
   0.288E+02 -.682E+02 0.358E+02   -.387E+02 0.837E+02 -.465E+02   0.979E+01 -.153E+02 0.106E+02   0.508E-05 -.269E-03 0.229E-03
   0.307E+02 -.644E+02 0.297E+02   -.404E+02 0.797E+02 -.402E+02   0.974E+01 -.150E+02 0.102E+02   0.630E-04 0.610E-05 -.147E-03
   0.300E+02 -.646E+02 0.346E+02   -.399E+02 0.800E+02 -.452E+02   0.977E+01 -.152E+02 0.104E+02   0.318E-05 -.295E-04 0.996E-04
   0.258E+02 -.632E+02 0.283E+02   -.354E+02 0.786E+02 -.387E+02   0.952E+01 -.151E+02 0.102E+02   -.254E-03 0.130E-03 -.111E-03
   0.266E+02 -.640E+02 0.356E+02   -.363E+02 0.793E+02 -.462E+02   0.948E+01 -.150E+02 0.105E+02   -.246E-03 0.851E-05 0.186E-03
   0.281E+02 -.658E+02 0.308E+02   -.379E+02 0.813E+02 -.413E+02   0.968E+01 -.153E+02 0.104E+02   -.124E-04 -.685E-04 -.865E-04
   0.282E+02 -.657E+02 0.337E+02   -.380E+02 0.812E+02 -.442E+02   0.963E+01 -.153E+02 0.104E+02   0.467E-06 -.126E-03 0.375E-04
   0.604E+02 -.456E+02 -.548E+02   -.697E+02 0.614E+02 0.665E+02   0.968E+01 -.144E+02 -.122E+02   0.484E-03 0.516E-04 -.351E-03
   0.433E+02 -.569E+02 -.297E+02   -.518E+02 0.731E+02 0.401E+02   0.838E+01 -.160E+02 -.102E+02   0.112E-03 0.866E-04 0.313E-04
   0.417E+02 -.600E+02 -.337E+02   -.501E+02 0.761E+02 0.443E+02   0.819E+01 -.159E+02 -.105E+02   -.235E-04 -.266E-03 0.354E-04
   0.423E+02 -.580E+02 -.312E+02   -.508E+02 0.742E+02 0.417E+02   0.835E+01 -.160E+02 -.103E+02   0.118E-03 -.238E-05 -.356E-04
   0.431E+02 -.573E+02 -.334E+02   -.516E+02 0.735E+02 0.439E+02   0.838E+01 -.160E+02 -.104E+02   0.103E-04 -.998E-05 0.561E-04
   0.427E+02 -.574E+02 -.314E+02   -.512E+02 0.736E+02 0.419E+02   0.837E+01 -.160E+02 -.104E+02   0.728E-04 0.702E-04 -.500E-04
   0.402E+02 -.569E+02 -.337E+02   -.486E+02 0.731E+02 0.443E+02   0.823E+01 -.160E+02 -.104E+02   0.128E-04 0.114E-03 -.931E-04
   0.420E+02 -.573E+02 -.312E+02   -.505E+02 0.735E+02 0.417E+02   0.835E+01 -.160E+02 -.103E+02   0.402E-04 0.514E-04 0.345E-04
   0.288E+02 0.682E+02 -.358E+02   -.387E+02 -.837E+02 0.465E+02   0.979E+01 0.153E+02 -.106E+02   0.508E-05 0.269E-03 -.229E-03
   0.291E+02 0.692E+02 -.281E+02   -.390E+02 -.849E+02 0.384E+02   0.986E+01 0.156E+02 -.995E+01   0.127E-03 0.169E-03 0.183E-03
   0.266E+02 0.640E+02 -.356E+02   -.363E+02 -.793E+02 0.462E+02   0.948E+01 0.150E+02 -.105E+02   -.246E-03 -.851E-05 -.186E-03
   0.258E+02 0.632E+02 -.283E+02   -.354E+02 -.786E+02 0.387E+02   0.952E+01 0.151E+02 -.102E+02   -.254E-03 -.130E-03 0.111E-03
   0.300E+02 0.646E+02 -.346E+02   -.399E+02 -.800E+02 0.452E+02   0.977E+01 0.152E+02 -.104E+02   0.318E-05 0.295E-04 -.996E-04
   0.307E+02 0.644E+02 -.297E+02   -.404E+02 -.797E+02 0.402E+02   0.974E+01 0.150E+02 -.102E+02   0.630E-04 -.610E-05 0.147E-03
   0.282E+02 0.657E+02 -.337E+02   -.380E+02 -.812E+02 0.442E+02   0.963E+01 0.153E+02 -.104E+02   0.467E-06 0.126E-03 -.375E-04
   0.281E+02 0.658E+02 -.308E+02   -.379E+02 -.813E+02 0.413E+02   0.968E+01 0.153E+02 -.104E+02   -.124E-04 0.685E-04 0.865E-04
   -.715E+02 -.752E+01 -.335E+02   0.898E+02 0.675E+01 0.441E+02   -.181E+02 0.788E+00 -.104E+02   -.663E-04 0.134E-04 -.872E-04
   -.888E+02 0.137E+02 -.196E+02   0.108E+03 -.157E+02 0.297E+02   -.192E+02 0.306E+01 -.893E+01   -.406E-03 0.380E-03 0.190E-03
   -.712E+02 -.827E+01 -.328E+02   0.896E+02 0.751E+01 0.433E+02   -.181E+02 0.781E+00 -.104E+02   -.904E-04 0.243E-04 0.146E-04
   -.722E+02 -.882E+01 -.316E+02   0.905E+02 0.806E+01 0.421E+02   -.181E+02 0.795E+00 -.103E+02   -.237E-04 -.124E-03 0.314E-04
   -.707E+02 -.877E+01 -.329E+02   0.890E+02 0.802E+01 0.435E+02   -.180E+02 0.748E+00 -.104E+02   -.799E-04 -.255E-04 0.214E-04
   -.691E+02 -.122E+02 -.311E+02   0.872E+02 0.118E+02 0.415E+02   -.177E+02 0.258E+00 -.103E+02   0.136E-03 -.310E-03 -.400E-04
   -.706E+02 -.796E+01 -.328E+02   0.889E+02 0.720E+01 0.434E+02   -.181E+02 0.774E+00 -.104E+02   -.298E-04 -.648E-04 -.300E-04
   -.687E+02 -.730E+01 -.315E+02   0.869E+02 0.649E+01 0.419E+02   -.179E+02 0.852E+00 -.103E+02   0.201E-04 -.104E-04 0.498E-04
 -----------------------------------------------------------------------------------------------
   -.514E+00 -.240E-05 0.792E-05   0.369E-12 0.460E-12 -.639E-13   0.526E+00 -.413E-13 0.178E-14   -.262E-03 0.553E-12 0.138E-11
 
 
 POSITION                                       TOTAL-FORCE (eV/Angst)
 -----------------------------------------------------------------------------------
      2.61028     -0.00000      5.43130         0.020169      0.000000      0.000000
      5.06777      4.25649      0.00000        -0.029480     -0.022210     -0.121334
      5.06777      4.25649      5.43130        -0.010342     -0.009902     -0.004510
      5.06777     -4.25649      0.00000        -0.029480      0.022210      0.121334
      5.06777     -4.25649      5.43130        -0.010342      0.009902      0.004510
      7.52525      0.00000      0.00000        -0.017792      0.000000      0.000000
      7.52525      0.00000      5.43130        -0.004258      0.000000      0.000000
      1.15234      1.99591      3.62087        -0.101879      0.019104      0.157059
      1.15234      1.99591      9.05217        -0.535102      1.234764     -0.674011
      3.60982      6.25240      3.62087        -0.070806     -0.024236      0.099735
      3.60982      6.25240      9.05217        -0.036481     -0.015432     -0.038509
      3.60982     -2.26057      3.62087         0.098871     -0.042965      0.130163
      3.60982     -2.26057      9.05217         0.158570     -1.039967     -1.106066
      6.06731      1.99591      3.62087         0.109037      0.015633      0.080470
      6.06731      1.99591      9.05217         0.085802      0.044127     -0.059264
      1.15234     -1.99591      1.81043        -0.535102     -1.234764      0.674011
      1.15234     -1.99591      7.24173        -0.101879     -0.019104     -0.157059
      3.60982      2.26057      1.81043         0.158570      1.039967      1.106066
      3.60982      2.26057      7.24173         0.098871      0.042965     -0.130163
      3.60982     -6.25240      1.81043        -0.036481      0.015432      0.038509
      3.60982     -6.25240      7.24173        -0.070806      0.024236     -0.099735
      6.06731     -1.99591      1.81043         0.085802     -0.044127      0.059264
      6.06731     -1.99591      7.24173         0.109037     -0.015633     -0.080470
      2.61028     -0.00000      0.00000        -0.063236      0.000000      0.000000
      1.67752      0.61366      4.26298        -0.144632     -0.202781     -0.182696
      1.67752      0.61366      9.69428         0.363128     -1.365940      0.460350
      4.13500      4.87015      4.26298        -0.138455     -0.202174     -0.145463
      4.13500      4.87015      9.69428        -0.126912     -0.221226     -0.118454
      4.13500     -3.64282      4.26298        -0.151792     -0.188317     -0.157673
      4.13500     -3.64282      9.69428        -0.214712     -0.195085     -0.128421
      6.59249      0.61366      4.26298        -0.148588     -0.198975     -0.152744
      6.59249      0.61366      9.69428        -0.169446     -0.221576     -0.130940
      3.54476      1.14594      0.64211         0.083247     -1.107087     -1.126581
      3.54476      1.14594      6.07341         0.241876     -0.019632     -0.117835
      6.00224      5.40243      0.64211         0.381465      0.177252     -0.108078
      6.00224      5.40243      6.07341         0.264569      0.000644     -0.110675
      6.00224     -3.11054      0.64211         0.233374     -0.034514     -0.168542
      6.00224     -3.11054      6.07341         0.245598     -0.017862     -0.124458
      8.45972      1.14594      0.64211         0.281935     -0.040302     -0.155300
      8.45972      1.14594      6.07341         0.252812     -0.017166     -0.130354
      2.15017      2.49688      2.45255         0.005215      0.149447     -0.317630
      2.15017      2.49688      7.88385        -0.129726      0.185416     -0.022244
      4.60765      6.75336      2.45255        -0.047894      0.272149     -0.250800
      4.60765      6.75336      7.88385        -0.082788      0.238603     -0.125161
      4.60765     -1.75961      2.45255        -0.150640      0.260540     -0.180510
      4.60765     -1.75961      7.88385        -0.237018      0.293916     -0.077952
      7.06514      2.49688      2.45255        -0.111716      0.221059     -0.148580
      7.06514      2.49688      7.88385        -0.134530      0.220040     -0.122524
      1.67752     -0.61366      1.16832         0.363128      1.365940     -0.460350
      1.67752     -0.61366      6.59962        -0.144632      0.202781      0.182696
      4.13500      3.64282      1.16832        -0.214712      0.195085      0.128421
      4.13500      3.64282      6.59962        -0.151792      0.188317      0.157673
      4.13500     -4.87015      1.16832        -0.126912      0.221226      0.118454
      4.13500     -4.87015      6.59962        -0.138455      0.202174      0.145463
      6.59249     -0.61366      1.16832        -0.169446      0.221576      0.130940
      6.59249     -0.61366      6.59962        -0.148588      0.198975      0.152744
      2.15017     -2.49688      2.97876        -0.129726     -0.185416      0.022244
      2.15017     -2.49688      8.41006         0.005215     -0.149447      0.317630
      4.60765      1.75961      2.97876        -0.237018     -0.293916      0.077952
      4.60765      1.75961      8.41006        -0.150640     -0.260540      0.180510
      4.60765     -6.75336      2.97876        -0.082788     -0.238603      0.125161
      4.60765     -6.75336      8.41006        -0.047894     -0.272149      0.250800
      7.06514     -2.49688      2.97876        -0.134530     -0.220040      0.122524
      7.06514     -2.49688      8.41006        -0.111716     -0.221059      0.148580
      3.54476     -1.14594      4.78919         0.241876      0.019632      0.117835
      3.54476     -1.14594     10.22049         0.083247      1.107087      1.126581
      6.00224      3.11054      4.78919         0.245598      0.017862      0.124458
      6.00224      3.11054     10.22049         0.233374      0.034514      0.168542
      6.00224     -5.40243      4.78919         0.264569     -0.000644      0.110675
      6.00224     -5.40243     10.22049         0.381465     -0.177252      0.108078
      8.45972     -1.14594      4.78919         0.252812      0.017166      0.130354
      8.45972     -1.14594     10.22049         0.281935      0.040302      0.155300
 -----------------------------------------------------------------------------------
    total drift:                                0.011837     -0.000002      0.000008


--------------------------------------------------------------------------------------------------------



  FREE ENERGIE OF THE ION-ELECTRON SYSTEM (eV)
  ---------------------------------------------------
  free  energy   TOTEN  =      -562.34198429 eV

  energy  without entropy=     -562.32869528  energy(sigma->0) =     -562.33533978
 


--------------------------------------------------------------------------------------------------------


    POTLOK:  cpu time      0.0159: real time      0.0160


--------------------------------------------------------------------------------------------------------


 stress matrix after NEB project (eV)
     34.55919      0.00000      0.00000
      0.00000     37.92748      0.16766
      0.00000      0.16766     35.62584
  FORCES: max atom, RMS     1.581694    0.567149
  FORCE total and by dimension    4.812418    1.365940
  Stress total and by dimension   62.466696   37.927477
     LOOP+:  cpu time     83.6428: real time     83.9105
    4ORBIT:  cpu time      0.0000: real time      0.0000



 total charge

# of ion       s       p       d       tot
------------------------------------------
    1        0.647   1.006   0.000   1.654
    2        0.648   1.006   0.000   1.653
    3        0.647   1.006   0.000   1.654
    4        0.648   1.006   0.000   1.653
    5        0.647   1.006   0.000   1.654
    6        0.647   1.006   0.000   1.654
    7        0.647   1.006   0.000   1.653
    8        0.648   1.006   0.000   1.654
    9        0.653   1.003   0.000   1.656
   10        0.648   1.006   0.000   1.654
   11        0.647   1.006   0.000   1.654
   12        0.648   1.006   0.000   1.654
   13        0.654   1.003   0.000   1.657
   14        0.647   1.006   0.000   1.653
   15        0.647   1.006   0.000   1.654
   16        0.653   1.003   0.000   1.656
   17        0.648   1.006   0.000   1.654
   18        0.654   1.003   0.000   1.657
   19        0.648   1.006   0.000   1.654
   20        0.647   1.006   0.000   1.654
   21        0.648   1.006   0.000   1.654
   22        0.647   1.006   0.000   1.654
   23        0.647   1.006   0.000   1.653
   24        0.987   1.277   0.000   2.264
   25        1.550   3.703   0.000   5.253
   26        1.573   3.653   0.000   5.226
   27        1.549   3.704   0.000   5.253
   28        1.550   3.703   0.000   5.253
   29        1.549   3.704   0.000   5.253
   30        1.552   3.699   0.000   5.251
   31        1.549   3.704   0.000   5.253
   32        1.550   3.704   0.000   5.253
   33        1.574   3.651   0.000   5.225
   34        1.549   3.703   0.000   5.253
   35        1.550   3.702   0.000   5.253
   36        1.549   3.704   0.000   5.253
   37        1.550   3.703   0.000   5.253
   38        1.549   3.704   0.000   5.253
   39        1.549   3.704   0.000   5.253
   40        1.549   3.704   0.000   5.253
   41        1.551   3.702   0.000   5.252
   42        1.551   3.700   0.000   5.252
   43        1.551   3.701   0.000   5.252
   44        1.549   3.703   0.000   5.253
   45        1.550   3.704   0.000   5.254
   46        1.551   3.701   0.000   5.252
   47        1.549   3.704   0.000   5.253
   48        1.549   3.704   0.000   5.253
   49        1.573   3.653   0.000   5.226
   50        1.550   3.703   0.000   5.253
   51        1.552   3.699   0.000   5.251
   52        1.549   3.704   0.000   5.253
   53        1.550   3.703   0.000   5.253
   54        1.549   3.704   0.000   5.253
   55        1.550   3.704   0.000   5.253
   56        1.549   3.704   0.000   5.253
   57        1.551   3.700   0.000   5.252
   58        1.551   3.702   0.000   5.252
   59        1.551   3.701   0.000   5.252
   60        1.550   3.704   0.000   5.254
   61        1.549   3.703   0.000   5.253
   62        1.551   3.701   0.000   5.252
   63        1.549   3.704   0.000   5.253
   64        1.549   3.704   0.000   5.253
   65        1.549   3.703   0.000   5.253
   66        1.574   3.651   0.000   5.225
   67        1.549   3.704   0.000   5.253
   68        1.550   3.703   0.000   5.253
   69        1.549   3.704   0.000   5.253
   70        1.550   3.702   0.000   5.253
   71        1.549   3.704   0.000   5.253
   72        1.549   3.704   0.000   5.253
--------------------------------------------------
tot         90.388 201.944   0.000 292.332
 

 total amount of memory used by VASP MPI-rank0   114071. kBytes
=======================================================================

   base      :      30000. kBytes
   nonl-proj :      61636. kBytes
   fftplans  :       1787. kBytes
   grid      :       9934. kBytes
   one-center:        221. kBytes
   wavefun   :      10493. kBytes
 
  
  
 General timing and accounting informations for this job:
 ========================================================
  
                  Total CPU time used (sec):       90.000
                            User time (sec):       88.372
                          System time (sec):        1.628
                         Elapsed time (sec):       91.983
  
                   Maximum memory used (kb):      330488.
                   Average memory used (kb):          N/A
  
                          Minor page faults:       113417
                          Major page faults:          400
                 Voluntary context switches:         3741
