LAMMPS (8 Feb 2023)
  using 1 OpenMP thread(s) per MPI task

# Initialization

units        metal
dimension    3
boundary     p p p
atom_style   charge  # Charge needed for Coulomb interactions

# Atom definition

read_data  initial_structure.data
Reading data file ...
  orthogonal box = (0 0 0) to (11.83539 11.83539 11.83539)
  1 by 1 by 1 MPI processor grid
  reading atoms ...
  134 atoms
  read_data CPU = 0.003 seconds

# Define Interatomic Potential
include STO_Pedone2006.pot
pair_style              hybrid/overlay coul/long 12.0 morse 10.0
pair_modify             table 0

pair_coeff      * * coul/long
pair_coeff      1 3 morse 0.019623 1.886 3.32833 10.0
pair_coeff      2 3 morse 0.024235 2.254703 2.708943 8.0
pair_coeff      3 3 morse 0.042395 1.379316 3.618701 11.0


# Define Charges
set type 1 charge 1.2
Setting atom values ...
  26 settings made for charge
set type 2 charge 2.4
Setting atom values ...
  27 settings made for charge
set type 3 charge -1.2
Setting atom values ...
  81 settings made for charge

# Enable Long-Range Electrostatics
kspace_style pppm 1.0e-6


# Create velocities
velocity        all create 600 142857 mom yes rot yes dist gaussian

# Ensemble constraints
#fix             1 all nve
fix             1 all nvt temp 600 600 0.1
#fix             1 all npt temp 600 600 0.1 iso $pressure $pressure 1.0

# Output settings
#thermo_style    custom ...  # control the thermo data type to output
thermo          100  # output thermo data every N steps
dump            1 all atom 100 traj.*.gz  # dump a snapshot every 100 steps

# Actions
run             5000
PPPM initialization ...
WARNING: System is not charge neutral, net charge = -1.2 (src/kspace.cpp:327)
  using polynomial approximation for long-range coulomb (src/kspace.cpp:344)
  G vector (1/distance) = 0.30636159
  grid = 24 24 24
  stencil order = 5
  estimated absolute RMS force accuracy = 8.8637971e-06
  estimated relative force accuracy = 6.1555664e-07
  using double precision KISS FFT
  3d grid and FFT values/proc = 35937 13824
Generated 0 of 3 mixed pair_coeff terms from geometric mixing rule
Neighbor list info ...
  update: every = 1 steps, delay = 0 steps, check = yes
  max neighbors/atom: 2000, page size: 100000
  master list distance cutoff = 14
  ghost atom cutoff = 14
  binsize = 7, bins = 2 2 2
  3 neighbor lists, perpetual/occasional/extra = 3 0 0
  (1) pair coul/long, perpetual
      attributes: half, newton on
      pair build: half/bin/atomonly/newton
      stencil: half/bin/3d
      bin: standard
  (2) pair morse, perpetual, skip from (3)
      attributes: half, newton on, cut 13
      pair build: skip
      stencil: none
      bin: none

SIMULATING ERROR 