<?xml version="1.0" encoding="ISO-8859-1"?>
<modeling>
 <generator>
  <i name="program" type="string">vasp </i>
  <i name="version" type="string">5.4.4.18Apr17-6-g9f103f2a35  </i>
  <i name="subversion" type="string">(build Jun 19 2019 10:34:07) complex            parallel </i>
  <i name="platform" type="string">LB-5.4 </i>
  <i name="date" type="string">2023 05 15 </i>
  <i name="time" type="string">18:43:41 </i>
 </generator>
 <incar>
  <i type="string" name="SYSTEM"> Si</i>
  <i type="string" name="PREC">normal</i>
  <i type="string" name="ALGO"> Normal</i>
  <i type="int" name="ISPIN">     1</i>
  <i name="AMIX">      0.20000000</i>
  <i type="int" name="NELM">   200</i>
  <i type="int" name="IBRION">     2</i>
  <i name="EDIFF">      0.00001000</i>
  <i name="EDIFFG">     -0.05000000</i>
  <i type="int" name="NSW">   100</i>
  <i type="int" name="ISIF">     2</i>
  <i type="int" name="ISYM">     2</i>
  <i name="ENCUT">    550.00000000</i>
  <i name="NELECT">    215.00000000</i>
  <i type="logical" name="LREAL"> F  </i>
  <i type="int" name="ISMEAR">     0</i>
  <i name="SIGMA">      0.05000000</i>
  <i type="logical" name="LWAVE"> T  </i>
  <i type="logical" name="LCHARG"> T  </i>
  <i type="int" name="LORBIT">    10</i>
  <v type="int" name="KPOINT_BSE">    -1     0     0     0</v>
  <i type="int" name="NELM">   200</i>
 </incar>
 <structure name="primitive_cell" >
  <crystal>
   <varray name="basis" >
    <v>       9.97646553       0.00000000       5.75991507 </v>
    <v>       3.32548851       9.40590192       5.75991507 </v>
    <v>       0.00000000       0.00000000      11.51983014 </v>
   </varray>
   <i name="volume">   1080.99386112 </i>
   <varray name="rec_basis" >
    <v>       0.10023590      -0.03543874       0.00000000 </v>
    <v>       0.00000000       0.10631623       0.00000000 </v>
    <v>      -0.05011795      -0.03543874       0.08680684 </v>
   </varray>
  </crystal>
  <varray name="positions" >
   <v>       0.29166667       0.29166667       0.29166667 </v>
   <v>       0.04166667       0.37500000       0.37500000 </v>
   <v>       0.37500000       0.37500000       0.04166667 </v>
   <v>       0.37500000       0.37500000       0.37500000 </v>
   <v>       0.37500000       0.04166667       0.37500000 </v>
   <v>      -0.04166667       0.29166667       0.29166667 </v>
   <v>      -0.37500000       0.29166667      -0.04166667 </v>
   <v>      -0.04166667       0.29166667      -0.37500000 </v>
   <v>      -0.37500000       0.29166667       0.29166667 </v>
   <v>      -0.37500000      -0.04166667       0.29166667 </v>
   <v>      -0.04166667      -0.37500000       0.29166667 </v>
   <v>       0.29166667      -0.04166667       0.29166667 </v>
   <v>       0.29166667      -0.37500000      -0.04166667 </v>
   <v>       0.29166667      -0.04166667      -0.37500000 </v>
   <v>       0.29166667      -0.37500000       0.29166667 </v>
   <v>       0.29166667       0.29166667      -0.04166667 </v>
   <v>       0.29166667       0.29166667      -0.37500000 </v>
   <v>      -0.29166667       0.37500000       0.04166667 </v>
   <v>       0.04166667       0.04166667       0.37500000 </v>
   <v>      -0.29166667       0.04166667       0.04166667 </v>
   <v>       0.04166667       0.04166667      -0.29166667 </v>
   <v>      -0.29166667       0.04166667       0.37500000 </v>
   <v>       0.37500000      -0.29166667       0.04166667 </v>
   <v>       0.04166667       0.37500000       0.04166667 </v>
   <v>       0.04166667       0.37500000      -0.29166667 </v>
   <v>       0.04166667      -0.29166667       0.04166667 </v>
   <v>       0.04166667      -0.29166667       0.37500000 </v>
   <v>       0.37500000       0.04166667       0.04166667 </v>
   <v>       0.37500000       0.04166667      -0.29166667 </v>
   <v>      -0.04166667      -0.04166667      -0.37500000 </v>
   <v>      -0.37500000      -0.37500000      -0.04166667 </v>
   <v>      -0.37500000      -0.04166667      -0.04166667 </v>
   <v>      -0.04166667      -0.37500000      -0.04166667 </v>
   <v>      -0.37500000      -0.04166667      -0.37500000 </v>
   <v>      -0.04166667      -0.37500000      -0.37500000 </v>
   <v>      -0.29166667       0.37500000       0.37500000 </v>
   <v>      -0.29166667       0.37500000      -0.29166667 </v>
   <v>      -0.29166667      -0.29166667       0.37500000 </v>
   <v>       0.37500000      -0.29166667      -0.29166667 </v>
   <v>       0.37500000      -0.29166667       0.37500000 </v>
   <v>       0.37500000       0.37500000      -0.29166667 </v>
   <v>      -0.37500000       0.29166667      -0.37500000 </v>
   <v>      -0.04166667       0.29166667      -0.04166667 </v>
   <v>      -0.37500000      -0.37500000       0.29166667 </v>
   <v>      -0.04166667      -0.04166667      -0.04166667 </v>
   <v>      -0.37500000      -0.37500000      -0.37500000 </v>
   <v>      -0.04166667      -0.04166667       0.29166667 </v>
   <v>       0.29166667      -0.37500000      -0.37500000 </v>
   <v>       0.29166667      -0.04166667      -0.04166667 </v>
   <v>      -0.29166667       0.04166667      -0.29166667 </v>
   <v>       0.04166667       0.04166667       0.04166667 </v>
   <v>      -0.29166667      -0.29166667      -0.29166667 </v>
   <v>      -0.29166667      -0.29166667       0.04166667 </v>
   <v>       0.04166667      -0.29166667      -0.29166667 </v>
  </varray>
 </structure>
 <varray name="primitive_index" >
  <v type="int" >        1 </v>
  <v type="int" >       32 </v>
  <v type="int" >       40 </v>
  <v type="int" >       41 </v>
  <v type="int" >       38 </v>
  <v type="int" >       19 </v>
  <v type="int" >       12 </v>
  <v type="int" >       20 </v>
  <v type="int" >       10 </v>
  <v type="int" >       16 </v>
  <v type="int" >       22 </v>
  <v type="int" >        7 </v>
  <v type="int" >        6 </v>
  <v type="int" >        8 </v>
  <v type="int" >        4 </v>
  <v type="int" >        3 </v>
  <v type="int" >        2 </v>
  <v type="int" >       49 </v>
  <v type="int" >       29 </v>
  <v type="int" >       46 </v>
  <v type="int" >       30 </v>
  <v type="int" >       47 </v>
  <v type="int" >       43 </v>
  <v type="int" >       31 </v>
  <v type="int" >       33 </v>
  <v type="int" >       34 </v>
  <v type="int" >       35 </v>
  <v type="int" >       37 </v>
  <v type="int" >       39 </v>
  <v type="int" >       26 </v>
  <v type="int" >       15 </v>
  <v type="int" >       18 </v>
  <v type="int" >       24 </v>
  <v type="int" >       17 </v>
  <v type="int" >       23 </v>
  <v type="int" >       50 </v>
  <v type="int" >       51 </v>
  <v type="int" >       53 </v>
  <v type="int" >       45 </v>
  <v type="int" >       44 </v>
  <v type="int" >       42 </v>
  <v type="int" >       11 </v>
  <v type="int" >       21 </v>
  <v type="int" >       13 </v>
  <v type="int" >       27 </v>
  <v type="int" >       14 </v>
  <v type="int" >       25 </v>
  <v type="int" >        5 </v>
  <v type="int" >        9 </v>
  <v type="int" >       48 </v>
  <v type="int" >       28 </v>
  <v type="int" >       54 </v>
  <v type="int" >       52 </v>
  <v type="int" >       36 </v>
 </varray>
 <kpoints>
  <generation param="Gamma">
   <v type="int" name="divisions">       4        4        4 </v>
   <v name="usershift">      0.00000000       0.00000000       0.00000000 </v>
   <v name="genvec1">      0.25000000       0.00000000       0.00000000 </v>
   <v name="genvec2">      0.00000000       0.25000000       0.00000000 </v>
   <v name="genvec3">     -0.00000000      -0.00000000       0.25000000 </v>
   <v name="shift">      0.00000000       0.00000000       0.00000000 </v>
  </generation>
  <varray name="kpointlist" >
   <v>       0.00000000       0.00000000       0.00000000 </v>
   <v>       0.25000000       0.00000000       0.00000000 </v>
   <v>       0.50000000       0.00000000       0.00000000 </v>
   <v>       0.25000000       0.25000000       0.00000000 </v>
   <v>       0.50000000       0.25000000       0.00000000 </v>
   <v>      -0.25000000       0.25000000       0.00000000 </v>
   <v>       0.50000000       0.50000000       0.00000000 </v>
   <v>      -0.25000000       0.50000000       0.25000000 </v>
  </varray>
  <varray name="weights" >
   <v>       0.01562500 </v>
   <v>       0.12500000 </v>
   <v>       0.06250000 </v>
   <v>       0.09375000 </v>
   <v>       0.37500000 </v>
   <v>       0.18750000 </v>
   <v>       0.04687500 </v>
   <v>       0.09375000 </v>
  </varray>
 </kpoints>
 <parameters>
  <separator name="general" >
   <i type="string" name="SYSTEM">Si</i>
   <i type="logical" name="LCOMPAT"> F  </i>
  </separator>
  <separator name="electronic" >
   <i type="string" name="PREC">normal</i>
   <i name="ENMAX">    550.00000000</i>
   <i name="ENAUG">    342.92400000</i>
   <i name="EDIFF">      0.00001000</i>
   <i type="int" name="IALGO">    38</i>
   <i type="int" name="IWAVPR">    11</i>
   <i type="int" name="NBANDS">   144</i>
   <i name="NELECT">    215.00000000</i>
   <i type="int" name="TURBO">     0</i>
   <i type="int" name="IRESTART">     0</i>
   <i type="int" name="NREBOOT">     0</i>
   <i type="int" name="NMIN">     0</i>
   <i name="EREF">      0.00000000</i>
   <separator name="electronic smearing" >
    <i type="int" name="ISMEAR">     0</i>
    <i name="SIGMA">      0.05000000</i>
    <i name="KSPACING">      0.50000000</i>
    <i type="logical" name="KGAMMA"> T  </i>
   </separator>
   <separator name="electronic projectors" >
    <i type="logical" name="LREAL"> F  </i>
    <v name="ROPT">      0.00000000      0.00000000</v>
    <i type="int" name="LMAXPAW">  -100</i>
    <i type="int" name="LMAXMIX">     2</i>
    <i type="logical" name="NLSPLINE"> F  </i>
   </separator>
   <separator name="electronic startup" >
    <i type="int" name="ISTART">     1</i>
    <i type="int" name="ICHARG">     0</i>
    <i type="int" name="INIWAV">     1</i>
   </separator>
   <separator name="electronic spin" >
    <i type="int" name="ISPIN">     1</i>
    <i type="logical" name="LNONCOLLINEAR"> F  </i>
    <v name="MAGMOM">      1.00000000      1.00000000      1.00000000      1.00000000      1.00000000      1.00000000      1.00000000      1.00000000      1.00000000      1.00000000      1.00000000      1.00000000      1.00000000      1.00000000      1.00000000      1.00000000      1.00000000      1.00000000      1.00000000      1.00000000
      1.00000000      1.00000000      1.00000000      1.00000000      1.00000000      1.00000000      1.00000000      1.00000000      1.00000000      1.00000000      1.00000000      1.00000000      1.00000000      1.00000000      1.00000000      1.00000000      1.00000000      1.00000000      1.00000000      1.00000000
      1.00000000      1.00000000      1.00000000      1.00000000      1.00000000      1.00000000      1.00000000      1.00000000      1.00000000      1.00000000      1.00000000      1.00000000      1.00000000      1.00000000</v>
    <i name="NUPDOWN">     -1.00000000</i>
    <i type="logical" name="LSORBIT"> F  </i>
    <v name="SAXIS">      0.00000000      0.00000000      1.00000000</v>
    <i type="logical" name="LSPIRAL"> F  </i>
    <v name="QSPIRAL">      0.00000000      0.00000000      0.00000000</v>
    <i type="logical" name="LZEROZ"> F  </i>
   </separator>
   <separator name="electronic exchange-correlation" >
    <i type="logical" name="LASPH"> F  </i>
    <i type="logical" name="LMETAGGA"> F  </i>
   </separator>
   <separator name="electronic convergence" >
    <i type="int" name="NELM">   200</i>
    <i type="int" name="NELMDL">     0</i>
    <i type="int" name="NELMIN">     2</i>
    <i name="ENINI">    550.00000000</i>
    <separator name="electronic convergence detail" >
     <i type="logical" name="LDIAG"> T  </i>
     <i type="logical" name="LSUBROT"> F  </i>
     <i name="WEIMIN">      0.00100000</i>
     <i name="EBREAK">      0.00000002</i>
     <i name="DEPER">      0.30000000</i>
     <i type="int" name="NRMM">     4</i>
     <i name="TIME">      0.40000000</i>
    </separator>
   </separator>
   <separator name="electronic mixer" >
    <i name="AMIX">      0.20000000</i>
    <i name="BMIX">      1.00000000</i>
    <i name="AMIN">      0.10000000</i>
    <i name="AMIX_MAG">      0.80000000</i>
    <i name="BMIX_MAG">      1.00000000</i>
    <separator name="electronic mixer details" >
     <i type="int" name="IMIX">     4</i>
     <i type="logical" name="MIXFIRST"> F  </i>
     <i type="int" name="MAXMIX">   -45</i>
     <i name="WC">    100.00000000</i>
     <i type="int" name="INIMIX">     1</i>
     <i type="int" name="MIXPRE">     1</i>
     <i type="int" name="MREMOVE">     5</i>
    </separator>
   </separator>
   <separator name="electronic dipolcorrection" >
    <i type="logical" name="LDIPOL"> F  </i>
    <i type="logical" name="LMONO"> F  </i>
    <i type="int" name="IDIPOL">     0</i>
    <i name="EPSILON">      1.00000000</i>
    <v name="DIPOL">   -100.00000000   -100.00000000   -100.00000000</v>
    <i name="EFIELD">      0.00000000</i>
   </separator>
  </separator>
  <separator name="grids" >
   <i type="int" name="NGX">    70</i>
   <i type="int" name="NGY">    70</i>
   <i type="int" name="NGZ">    70</i>
   <i type="int" name="NGXF">   140</i>
   <i type="int" name="NGYF">   140</i>
   <i type="int" name="NGZF">   140</i>
   <i type="logical" name="ADDGRID"> F  </i>
  </separator>
  <separator name="ionic" >
   <i type="int" name="NSW">   100</i>
   <i type="int" name="IBRION">     2</i>
   <i type="int" name="MDALGO">     0</i>
   <i type="int" name="ISIF">     2</i>
   <i name="PSTRESS">      0.00000000</i>
   <i name="EDIFFG">     -0.05000000</i>
   <i type="int" name="NFREE">     1</i>
   <i name="POTIM">      0.50000000</i>
   <i name="SMASS">     -3.00000000</i>
   <i name="SCALEE">      1.00000000</i>
  </separator>
  <separator name="ionic md" >
   <i name="TEBEG">      0.00010000</i>
   <i name="TEEND">      0.00010000</i>
   <i type="int" name="NBLOCK">     1</i>
   <i type="int" name="KBLOCK">   100</i>
   <i type="int" name="NPACO">   256</i>
   <i name="APACO">     16.00000000</i>
  </separator>
  <separator name="symmetry" >
   <i type="int" name="ISYM">     2</i>
   <i name="SYMPREC">      0.00001000</i>
  </separator>
  <separator name="dos" >
   <i type="int" name="LORBIT">    10</i>
   <v name="RWIGS">     -1.00000000     -1.00000000</v>
   <i type="int" name="NEDOS">   301</i>
   <i name="EMIN">     10.00000000</i>
   <i name="EMAX">    -10.00000000</i>
   <i name="EFERMI">      0.00000000</i>
  </separator>
  <separator name="writing" >
   <i type="int" name="NWRITE">     2</i>
   <i type="logical" name="LWAVE"> T  </i>
   <i type="logical" name="LDOWNSAMPLE"> F  </i>
   <i type="logical" name="LCHARG"> T  </i>
   <i type="logical" name="LPARD"> F  </i>
   <i type="logical" name="LVTOT"> F  </i>
   <i type="logical" name="LVHAR"> F  </i>
   <i type="logical" name="LELF"> F  </i>
   <i type="logical" name="LOPTICS"> F  </i>
   <v name="STM">      0.00000000      0.00000000      0.00000000      0.00000000      0.00000000      0.00000000      0.00000000</v>
  </separator>
  <separator name="performance" >
   <i type="int" name="NPAR">    24</i>
   <i type="int" name="NSIM">     4</i>
   <i type="int" name="NBLK">    -1</i>
   <i type="logical" name="LPLANE"> T  </i>
   <i type="logical" name="LSCALAPACK"> T  </i>
   <i type="logical" name="LSCAAWARE"> F  </i>
   <i type="logical" name="LSCALU"> F  </i>
   <i type="logical" name="LASYNC"> F  </i>
   <i type="logical" name="LORBITALREAL"> F  </i>
  </separator>
  <separator name="miscellaneous" >
   <i type="int" name="IDIOT">     3</i>
   <i type="int" name="ISPECIAL">     0</i>
   <i type="logical" name="LMUSIC"> F  </i>
   <v name="POMASS">     30.97400000     28.08500000</v>
   <v name="DARWINR">      0.00000000      0.00000000</v>
   <v name="DARWINV">      1.00000000      1.00000000</v>
   <i type="logical" name="LCORR"> T  </i>
  </separator>
  <i type="logical" name="GGA_COMPAT"> T  </i>
  <i type="logical" name="LBERRY"> F  </i>
  <i type="int" name="ICORELEVEL">     0</i>
  <i type="logical" name="LDAU"> F  </i>
  <i type="int" name="I_CONSTRAINED_M">     0</i>
  <separator name="electronic exchange-correlation" >
   <i type="string" name="GGA">--</i>
   <i type="int" name="VOSKOWN">     0</i>
   <i type="logical" name="LHFCALC"> F  </i>
   <i type="string" name="PRECFOCK"></i>
   <i type="logical" name="LSYMGRAD"> F  </i>
   <i type="logical" name="LHFONE"> F  </i>
   <i type="logical" name="LRHFCALC"> F  </i>
   <i type="logical" name="LTHOMAS"> F  </i>
   <i type="logical" name="LMODELHF"> F  </i>
   <i name="ENCUT4O">     -1.00000000</i>
   <i type="int" name="EXXOEP">     0</i>
   <i type="int" name="FOURORBIT">     0</i>
   <i name="AEXX">      0.00000000</i>
   <i name="HFALPHA">      0.00000000</i>
   <i name="MCALPHA">      0.00000000</i>
   <i name="ALDAX">      1.00000000</i>
   <i name="AGGAX">      1.00000000</i>
   <i name="ALDAC">      1.00000000</i>
   <i name="AGGAC">      1.00000000</i>
   <i type="int" name="NKREDX">     1</i>
   <i type="int" name="NKREDY">     1</i>
   <i type="int" name="NKREDZ">     1</i>
   <i type="logical" name="SHIFTRED"> F  </i>
   <i type="logical" name="ODDONLY"> F  </i>
   <i type="logical" name="EVENONLY"> F  </i>
   <i type="int" name="LMAXFOCK">     0</i>
   <i type="int" name="NMAXFOCKAE">     0</i>
   <i type="logical" name="LFOCKAEDFT"> F  </i>
   <i name="HFSCREEN">      0.00000000</i>
   <i name="HFSCREENC">      0.00000000</i>
   <i type="int" name="NBANDSGWLOW">     0</i>
  </separator>
  <separator name="vdW DFT" >
   <i type="logical" name="LUSE_VDW"> F  </i>
   <i name="Zab_VDW">     -0.84910000</i>
   <i name="PARAM1">      0.12340000</i>
   <i name="PARAM2">      1.00000000</i>
   <i name="PARAM3">      0.00000000</i>
  </separator>
  <separator name="model GW" >
   <i type="int" name="MODEL_GW">     0</i>
   <i name="MODEL_EPS0">     12.01104290</i>
   <i name="MODEL_ALPHA">      1.00000000</i>
  </separator>
  <separator name="linear response parameters" >
   <i type="logical" name="LEPSILON"> F  </i>
   <i type="logical" name="LRPA"> F  </i>
   <i type="logical" name="LNABLA"> F  </i>
   <i type="logical" name="LVEL"> F  </i>
   <i type="int" name="KINTER">     0</i>
   <i name="CSHIFT">      0.10000000</i>
   <i name="OMEGAMAX">     -1.00000000</i>
   <i name="DEG_THRESHOLD">      0.00200000</i>
   <i name="RTIME">     -0.10000000</i>
   <i name="WPLASMAI">      0.00000000</i>
   <v name="DFIELD">      0.00000000      0.00000000      0.00000000</v>
   <v name="WPLASMA">      0.00000000      0.00000000      0.00000000      0.00000000      0.00000000      0.00000000      0.00000000      0.00000000      0.00000000</v>
  </separator>
  <separator name="orbital magnetization" >
   <i type="logical" name="NUCIND"> F  </i>
   <v name="MAGPOS">      0.00000000      0.00000000      0.00000000</v>
   <i type="logical" name="LNICSALL"> T  </i>
   <i type="logical" name="ORBITALMAG"> F  </i>
   <i type="logical" name="LMAGBLOCH"> F  </i>
   <i type="logical" name="LCHIMAG"> F  </i>
   <i type="logical" name="LGAUGE"> T  </i>
   <i type="int" name="MAGATOM">     0</i>
   <v name="MAGDIPOL">      0.00000000      0.00000000      0.00000000</v>
   <v name="AVECCONST">      0.00000000      0.00000000      0.00000000</v>
  </separator>
  <separator name="response functions" >
   <i type="logical" name="LADDER"> F  </i>
   <i type="logical" name="LRPAFORCE"> F  </i>
   <i type="logical" name="LFXC"> F  </i>
   <i type="logical" name="LHARTREE"> T  </i>
   <i type="int" name="IBSE">     0</i>
   <v type="int" name="KPOINT">    -1     0     0     0</v>
   <i type="logical" name="LTCTE"> F  </i>
   <i type="logical" name="LTETE"> F  </i>
   <i type="logical" name="LTRIPLET"> F  </i>
   <i type="logical" name="LFXCEPS"> F  </i>
   <i type="logical" name="LFXHEG"> F  </i>
   <i type="int" name="NATURALO">     2</i>
   <i type="logical" name="L2ORDER"> F  </i>
   <i type="logical" name="LMP2LT"> F  </i>
   <i type="logical" name="LUSEW"> F  </i>
   <i name="ENCUTGW">     -2.00000000</i>
   <i name="ENCUTGWSOFT">     -2.00000000</i>
   <i name="ENCUTLF">     -1.00000000</i>
   <i type="int" name="LMAXMP2">    -1</i>
   <i name="SCISSOR">      0.00000000</i>
   <i type="int" name="NOMEGA">     0</i>
   <i type="int" name="NOMEGAR">     0</i>
   <i type="int" name="NBANDSGW">    -1</i>
   <i type="int" name="NBANDSO">    -1</i>
   <i type="int" name="NBANDSV">    -1</i>
   <i type="int" name="NELM">   200</i>
   <i type="int" name="NELMHF">     1</i>
   <i type="int" name="DIM">     3</i>
   <i type="int" name="ANTIRES">     0</i>
   <i name="OMEGAMAX">    -30.00000000</i>
   <i name="OMEGAMIN">    -30.00000000</i>
   <i name="OMEGATL">   -200.00000000</i>
   <i type="int" name="OMEGAGRID">   140</i>
   <i name="CSHIFT">     -0.10000000</i>
   <i type="logical" name="SELFENERGY"> F  </i>
   <i type="logical" name="LSPECTRAL"> F  </i>
   <i type="logical" name="LSPECTRALGW"> F  </i>
   <i type="logical" name="LSINGLES"> F  </i>
   <i type="logical" name="LFERMIGW"> F  </i>
   <i type="logical" name="ODDONLYGW"> F  </i>
   <i type="logical" name="EVENONLYGW"> F  </i>
   <i type="int" name="NKREDLFX">     1</i>
   <i type="int" name="NKREDLFY">     1</i>
   <i type="int" name="NKREDLFZ">     1</i>
   <i type="int" name="MAXMEM">  2800</i>
   <i type="int" name="TELESCOPE">     0</i>
   <i type="int" name="TAUPAR">     1</i>
   <i type="int" name="OMEGAPAR">    -1</i>
   <i name="LAMBDA">      1.00000000</i>
  </separator>
  <separator name="External order field" >
   <i name="OFIELD_KAPPA">      0.00000000</i>
   <v name="OFIELD_K">      0.00000000      0.00000000      0.00000000</v>
   <i name="OFIELD_Q6_NEAR">      0.00000000</i>
   <i name="OFIELD_Q6_FAR">      0.00000000</i>
   <i name="OFIELD_A">      0.00000000</i>
  </separator>
 </parameters>
 <atominfo>
  <atoms>      54 </atoms>
  <types>       2 </types>
  <array name="atoms" >
   <dimension dim="1">ion</dimension>
   <field type="string">element</field>
   <field type="int">atomtype</field>
   <set>
    <rc><c>P </c><c>   1</c></rc>
    <rc><c>Si</c><c>   2</c></rc>
    <rc><c>Si</c><c>   2</c></rc>
    <rc><c>Si</c><c>   2</c></rc>
    <rc><c>Si</c><c>   2</c></rc>
    <rc><c>Si</c><c>   2</c></rc>
    <rc><c>Si</c><c>   2</c></rc>
    <rc><c>Si</c><c>   2</c></rc>
    <rc><c>Si</c><c>   2</c></rc>
    <rc><c>Si</c><c>   2</c></rc>
    <rc><c>Si</c><c>   2</c></rc>
    <rc><c>Si</c><c>   2</c></rc>
    <rc><c>Si</c><c>   2</c></rc>
    <rc><c>Si</c><c>   2</c></rc>
    <rc><c>Si</c><c>   2</c></rc>
    <rc><c>Si</c><c>   2</c></rc>
    <rc><c>Si</c><c>   2</c></rc>
    <rc><c>Si</c><c>   2</c></rc>
    <rc><c>Si</c><c>   2</c></rc>
    <rc><c>Si</c><c>   2</c></rc>
    <rc><c>Si</c><c>   2</c></rc>
    <rc><c>Si</c><c>   2</c></rc>
    <rc><c>Si</c><c>   2</c></rc>
    <rc><c>Si</c><c>   2</c></rc>
    <rc><c>Si</c><c>   2</c></rc>
    <rc><c>Si</c><c>   2</c></rc>
    <rc><c>Si</c><c>   2</c></rc>
    <rc><c>Si</c><c>   2</c></rc>
    <rc><c>Si</c><c>   2</c></rc>
    <rc><c>Si</c><c>   2</c></rc>
    <rc><c>Si</c><c>   2</c></rc>
    <rc><c>Si</c><c>   2</c></rc>
    <rc><c>Si</c><c>   2</c></rc>
    <rc><c>Si</c><c>   2</c></rc>
    <rc><c>Si</c><c>   2</c></rc>
    <rc><c>Si</c><c>   2</c></rc>
    <rc><c>Si</c><c>   2</c></rc>
    <rc><c>Si</c><c>   2</c></rc>
    <rc><c>Si</c><c>   2</c></rc>
    <rc><c>Si</c><c>   2</c></rc>
    <rc><c>Si</c><c>   2</c></rc>
    <rc><c>Si</c><c>   2</c></rc>
    <rc><c>Si</c><c>   2</c></rc>
    <rc><c>Si</c><c>   2</c></rc>
    <rc><c>Si</c><c>   2</c></rc>
    <rc><c>Si</c><c>   2</c></rc>
    <rc><c>Si</c><c>   2</c></rc>
    <rc><c>Si</c><c>   2</c></rc>
    <rc><c>Si</c><c>   2</c></rc>
    <rc><c>Si</c><c>   2</c></rc>
    <rc><c>Si</c><c>   2</c></rc>
    <rc><c>Si</c><c>   2</c></rc>
    <rc><c>Si</c><c>   2</c></rc>
    <rc><c>Si</c><c>   2</c></rc>
   </set>
  </array>
  <array name="atomtypes" >
   <dimension dim="1">type</dimension>
   <field type="int">atomspertype</field>
   <field type="string">element</field>
   <field>mass</field>
   <field>valence</field>
   <field type="string">pseudopotential</field>
   <set>
    <rc><c>   1</c><c>P </c><c>     30.97400000</c><c>      5.00000000</c><c>  PAW_PBE P 06Sep2000                   </c></rc>
    <rc><c>  53</c><c>Si</c><c>     28.08500000</c><c>      4.00000000</c><c>  PAW_PBE Si 05Jan2001                  </c></rc>
   </set>
  </array>
 </atominfo>
 <structure name="initialpos" >
  <crystal>
   <varray name="basis" >
    <v>       9.97646553       0.00000000       5.75991507 </v>
    <v>       3.32548851       9.40590192       5.75991507 </v>
    <v>       0.00000000       0.00000000      11.51983014 </v>
   </varray>
   <i name="volume">   1080.99386112 </i>
   <varray name="rec_basis" >
    <v>       0.10023590      -0.03543874       0.00000000 </v>
    <v>       0.00000000       0.10631623       0.00000000 </v>
    <v>      -0.05011795      -0.03543874       0.08680684 </v>
   </varray>
  </crystal>
  <varray name="positions" >
   <v>       0.29166667       0.29166667       0.29166667 </v>
   <v>       0.29166667       0.29166667       0.62500000 </v>
   <v>       0.29166667       0.29166667       0.95833333 </v>
   <v>       0.29166667       0.62500000       0.29166667 </v>
   <v>       0.29166667       0.62500000       0.62500000 </v>
   <v>       0.29166667       0.62500000       0.95833333 </v>
   <v>       0.29166667       0.95833333       0.29166667 </v>
   <v>       0.29166667       0.95833333       0.62500000 </v>
   <v>       0.29166667       0.95833333       0.95833333 </v>
   <v>       0.62500000       0.29166667       0.29166667 </v>
   <v>       0.62500000       0.29166667       0.62500000 </v>
   <v>       0.62500000       0.29166667       0.95833333 </v>
   <v>       0.62500000       0.62500000       0.29166667 </v>
   <v>       0.62500000       0.62500000       0.62500000 </v>
   <v>       0.62500000       0.62500000       0.95833333 </v>
   <v>       0.62500000       0.95833333       0.29166667 </v>
   <v>       0.62500000       0.95833333       0.62500000 </v>
   <v>       0.62500000       0.95833333       0.95833333 </v>
   <v>       0.95833333       0.29166667       0.29166667 </v>
   <v>       0.95833333       0.29166667       0.62500000 </v>
   <v>       0.95833333       0.29166667       0.95833333 </v>
   <v>       0.95833333       0.62500000       0.29166667 </v>
   <v>       0.95833333       0.62500000       0.62500000 </v>
   <v>       0.95833333       0.62500000       0.95833333 </v>
   <v>       0.95833333       0.95833333       0.29166667 </v>
   <v>       0.95833333       0.95833333       0.62500000 </v>
   <v>       0.95833333       0.95833333       0.95833333 </v>
   <v>       0.04166667       0.04166667       0.04166667 </v>
   <v>       0.04166667       0.04166667       0.37500000 </v>
   <v>       0.04166667       0.04166667       0.70833333 </v>
   <v>       0.04166667       0.37500000       0.04166667 </v>
   <v>       0.04166667       0.37500000       0.37500000 </v>
   <v>       0.04166667       0.37500000       0.70833333 </v>
   <v>       0.04166667       0.70833333       0.04166667 </v>
   <v>       0.04166667       0.70833333       0.37500000 </v>
   <v>       0.04166667       0.70833333       0.70833333 </v>
   <v>       0.37500000       0.04166667       0.04166667 </v>
   <v>       0.37500000       0.04166667       0.37500000 </v>
   <v>       0.37500000       0.04166667       0.70833333 </v>
   <v>       0.37500000       0.37500000       0.04166667 </v>
   <v>       0.37500000       0.37500000       0.37500000 </v>
   <v>       0.37500000       0.37500000       0.70833333 </v>
   <v>       0.37500000       0.70833333       0.04166667 </v>
   <v>       0.37500000       0.70833333       0.37500000 </v>
   <v>       0.37500000       0.70833333       0.70833333 </v>
   <v>       0.70833333       0.04166667       0.04166667 </v>
   <v>       0.70833333       0.04166667       0.37500000 </v>
   <v>       0.70833333       0.04166667       0.70833333 </v>
   <v>       0.70833333       0.37500000       0.04166667 </v>
   <v>       0.70833333       0.37500000       0.37500000 </v>
   <v>       0.70833333       0.37500000       0.70833333 </v>
   <v>       0.70833333       0.70833333       0.04166667 </v>
   <v>       0.70833333       0.70833333       0.37500000 </v>
   <v>       0.70833333       0.70833333       0.70833333 </v>
  </varray>
 </structure>
 <calculation>
  <scstep>
   <time name="dav">    4.51    4.56</time>
   <time name="total">    5.30    5.37</time>
   <energy>
    <i name="alphaZ">     93.56316191 </i>
    <i name="ewald">  -6229.80980546 </i>
    <i name="hartreedc">   -412.13972503 </i>
    <i name="XCdc">   -478.62536091 </i>
    <i name="pawpsdc">  23023.57562172 </i>
    <i name="pawaedc"> -22088.52014354 </i>
    <i name="eentropy">     -0.00239518 </i>
    <i name="bandstr">    148.72099852 </i>
    <i name="atom">   5638.56506835 </i>
    <i name="e_fr_energy">   -304.67257961 </i>
    <i name="e_wo_entrp">   -304.67018443 </i>
    <i name="e_0_energy">   -304.67138202 </i>
   </energy>
  </scstep>
  <scstep>
   <time name="dav">    3.71    3.75</time>
   <time name="total">    5.05    5.12</time>
   <energy>
    <i name="alphaZ">     93.56316191 </i>
    <i name="ewald">  -6229.80980546 </i>
    <i name="hartreedc">   -412.13510236 </i>
    <i name="XCdc">   -478.62571956 </i>
    <i name="pawpsdc">  23024.04665572 </i>
    <i name="pawaedc"> -22088.99088173 </i>
    <i name="eentropy">     -0.00239518 </i>
    <i name="bandstr">    148.71643946 </i>
    <i name="atom">   5638.56506835 </i>
    <i name="e_fr_energy">   -304.67257885 </i>
    <i name="e_wo_entrp">   -304.67018367 </i>
    <i name="e_0_energy">   -304.67138126 </i>
   </energy>
  </scstep>
  <structure>
   <crystal>
    <varray name="basis" >
     <v>       9.97646553       0.00000000       5.75991507 </v>
     <v>       3.32548851       9.40590192       5.75991507 </v>
     <v>       0.00000000       0.00000000      11.51983014 </v>
    </varray>
    <i name="volume">   1080.99386112 </i>
    <varray name="rec_basis" >
     <v>       0.10023590      -0.03543874       0.00000000 </v>
     <v>       0.00000000       0.10631623       0.00000000 </v>
     <v>      -0.05011795      -0.03543874       0.08680684 </v>
    </varray>
   </crystal>
   <varray name="positions" >
    <v>       0.29166667       0.29166667       0.29166667 </v>
    <v>       0.29166667       0.29166667       0.62500000 </v>
    <v>       0.29166667       0.29166667       0.95833333 </v>
    <v>       0.29166667       0.62500000       0.29166667 </v>
    <v>       0.29166667       0.62500000       0.62500000 </v>
    <v>       0.29166667       0.62500000       0.95833333 </v>
    <v>       0.29166667       0.95833333       0.29166667 </v>
    <v>       0.29166667       0.95833333       0.62500000 </v>
    <v>       0.29166667       0.95833333       0.95833333 </v>
    <v>       0.62500000       0.29166667       0.29166667 </v>
    <v>       0.62500000       0.29166667       0.62500000 </v>
    <v>       0.62500000       0.29166667       0.95833333 </v>
    <v>       0.62500000       0.62500000       0.29166667 </v>
    <v>       0.62500000       0.62500000       0.62500000 </v>
    <v>       0.62500000       0.62500000       0.95833333 </v>
    <v>       0.62500000       0.95833333       0.29166667 </v>
    <v>       0.62500000       0.95833333       0.62500000 </v>
    <v>       0.62500000       0.95833333       0.95833333 </v>
    <v>       0.95833333       0.29166667       0.29166667 </v>
    <v>       0.95833333       0.29166667       0.62500000 </v>
    <v>       0.95833333       0.29166667       0.95833333 </v>
    <v>       0.95833333       0.62500000       0.29166667 </v>
    <v>       0.95833333       0.62500000       0.62500000 </v>
    <v>       0.95833333       0.62500000       0.95833333 </v>
    <v>       0.95833333       0.95833333       0.29166667 </v>
    <v>       0.95833333       0.95833333       0.62500000 </v>
    <v>       0.95833333       0.95833333       0.95833333 </v>
    <v>       0.04166667       0.04166667       0.04166667 </v>
    <v>       0.04166667       0.04166667       0.37500000 </v>
    <v>       0.04166667       0.04166667       0.70833333 </v>
    <v>       0.04166667       0.37500000       0.04166667 </v>
    <v>       0.04166667       0.37500000       0.37500000 </v>
    <v>       0.04166667       0.37500000       0.70833333 </v>
    <v>       0.04166667       0.70833333       0.04166667 </v>
    <v>       0.04166667       0.70833333       0.37500000 </v>
    <v>       0.04166667       0.70833333       0.70833333 </v>
    <v>       0.37500000       0.04166667       0.04166667 </v>
    <v>       0.37500000       0.04166667       0.37500000 </v>
    <v>       0.37500000       0.04166667       0.70833333 </v>
    <v>       0.37500000       0.37500000       0.04166667 </v>
    <v>       0.37500000       0.37500000       0.37500000 </v>
    <v>       0.37500000       0.37500000       0.70833333 </v>
    <v>       0.37500000       0.70833333       0.04166667 </v>
    <v>       0.37500000       0.70833333       0.37500000 </v>
    <v>       0.37500000       0.70833333       0.70833333 </v>
    <v>       0.70833333       0.04166667       0.04166667 </v>
    <v>       0.70833333       0.04166667       0.37500000 </v>
    <v>       0.70833333       0.04166667       0.70833333 </v>
    <v>       0.70833333       0.37500000       0.04166667 </v>
    <v>       0.70833333       0.37500000       0.37500000 </v>
    <v>       0.70833333       0.37500000       0.70833333 </v>
    <v>       0.70833333       0.70833333       0.04166667 </v>
    <v>       0.70833333       0.70833333       0.37500000 </v>
    <v>       0.70833333       0.70833333       0.70833333 </v>
   </varray>
  </structure>
  <varray name="forces" >
   <v>      -0.00000000      -0.00000000      -0.00000000 </v>
   <v>      -0.20136062      -0.14238346      -0.02354289 </v>
   <v>      -0.20136062      -0.14238346       0.02354289 </v>
   <v>      -0.10747656       0.12316077      -0.18615486 </v>
   <v>      -0.03774104       0.01334347      -0.00000000 </v>
   <v>      -0.10747656       0.12316077       0.18615486 </v>
   <v>      -0.09388407       0.16160615      -0.16261197 </v>
   <v>      -0.09388407       0.16160615       0.16261197 </v>
   <v>      -0.04138508       0.01463184      -0.00000000 </v>
   <v>       0.08029157      -0.14238346      -0.18615486 </v>
   <v>      -0.00000000      -0.04003042      -0.00000000 </v>
   <v>       0.08029157      -0.14238346       0.18615486 </v>
   <v>       0.01887052       0.01334347      -0.03268470 </v>
   <v>       0.01887052       0.01334347       0.03268470 </v>
   <v>       0.00641926       0.00453911      -0.00000000 </v>
   <v>       0.18776813       0.16160615      -0.00000000 </v>
   <v>       0.00320963      -0.00453911       0.00555925 </v>
   <v>       0.00320963      -0.00453911      -0.00555925 </v>
   <v>       0.12106905      -0.14238346      -0.16261197 </v>
   <v>       0.12106905      -0.14238346       0.16261197 </v>
   <v>      -0.00000000      -0.04389551      -0.00000000 </v>
   <v>       0.21495312       0.12316077      -0.00000000 </v>
   <v>      -0.00320963       0.00453911       0.00555925 </v>
   <v>      -0.00320963       0.00453911      -0.00555925 </v>
   <v>       0.02069254       0.01463184      -0.03584053 </v>
   <v>      -0.00641926      -0.00453911      -0.00000000 </v>
   <v>       0.02069254       0.01463184       0.03584053 </v>
   <v>      -0.00000000      -0.00000000      -0.00000000 </v>
   <v>      -0.03175098      -0.02245133       0.03217727 </v>
   <v>      -0.03175098      -0.02245133      -0.03217727 </v>
   <v>      -0.00658671       0.04872396      -0.01140852 </v>
   <v>       0.05199922      -0.01838450      -0.00000000 </v>
   <v>      -0.00658671       0.04872396       0.01140852 </v>
   <v>      -0.02516427      -0.00382130      -0.04358579 </v>
   <v>      -0.02516427      -0.00382130       0.04358579 </v>
   <v>       0.00147480      -0.00052142      -0.00000000 </v>
   <v>       0.04374182      -0.02245133      -0.01140852 </v>
   <v>      -0.00000000       0.05515351      -0.00000000 </v>
   <v>       0.04374182      -0.02245133       0.01140852 </v>
   <v>      -0.02599961      -0.01838450       0.04503265 </v>
   <v>      -0.02599961      -0.01838450      -0.04503265 </v>
   <v>       0.17663038       0.12489654       0.00000000 </v>
   <v>       0.05032854      -0.00382130      -0.00000000 </v>
   <v>       0.08831519      -0.12489654       0.15296639 </v>
   <v>       0.08831519      -0.12489654      -0.15296639 </v>
   <v>      -0.01199084      -0.02245133      -0.04358579 </v>
   <v>      -0.01199084      -0.02245133       0.04358579 </v>
   <v>      -0.00000000       0.00156426      -0.00000000 </v>
   <v>       0.01317343       0.04872396      -0.00000000 </v>
   <v>      -0.08831519       0.12489654       0.15296639 </v>
   <v>      -0.08831519       0.12489654      -0.15296639 </v>
   <v>      -0.00073740      -0.00052142       0.00127722 </v>
   <v>      -0.17663038      -0.12489654      -0.00000000 </v>
   <v>      -0.00073740      -0.00052142      -0.00127722 </v>
  </varray>
  <varray name="stress" >
   <v>     -12.61980504       0.00000000       0.00000000 </v>
   <v>       0.00000000     -12.61980508       0.00000000 </v>
   <v>      -0.00000000       0.00000000     -12.61980509 </v>
  </varray>
  <energy>
   <i name="e_fr_energy">   -304.67257885 </i>
   <i name="e_wo_entrp">   -304.67138126 </i>
   <i name="e_0_energy">     -0.00239518 </i>
  </energy>
  <time name="totalsc">   24.11   24.42</time>
 </calculation>
 <calculation>
  <scstep>
   <time name="dav">    5.00    5.04</time>
   <time name="total">    5.98    6.04</time>
   <energy>
    <i name="alphaZ">     93.56316191 </i>
    <i name="ewald">  -6229.63592304 </i>
    <i name="hartreedc">   -412.29582768 </i>
    <i name="XCdc">   -478.62425130 </i>
    <i name="pawpsdc">  23024.86685218 </i>
    <i name="pawaedc"> -22089.81068826 </i>
    <i name="eentropy">     -0.00238429 </i>
    <i name="bandstr">    148.67485872 </i>
    <i name="atom">   5638.56506835 </i>
    <i name="e_fr_energy">   -304.69913341 </i>
    <i name="e_wo_entrp">   -304.69674911 </i>
    <i name="e_0_energy">   -304.69794126 </i>
   </energy>
  </scstep>
  <scstep>
   <time name="dav">    6.04    6.09</time>
   <time name="total">    7.23    7.30</time>
   <energy>
    <i name="e_fr_energy">   -304.70224037 </i>
    <i name="e_wo_entrp">   -304.69985699 </i>
    <i name="e_0_energy">   -304.70104868 </i>
   </energy>
  </scstep>
  <scstep>
   <time name="dav">    6.37    6.43</time>
   <time name="total">    7.32    7.39</time>
   <energy>
    <i name="e_fr_energy">   -304.70176816 </i>
    <i name="e_wo_entrp">   -304.69938512 </i>
    <i name="e_0_energy">   -304.70057664 </i>
   </energy>
  </scstep>
  <scstep>
   <time name="dav">    4.78    4.82</time>
   <time name="total">    5.72    5.77</time>
   <energy>
    <i name="e_fr_energy">   -304.70162428 </i>
    <i name="e_wo_entrp">   -304.69924140 </i>
    <i name="e_0_energy">   -304.70043284 </i>
   </energy>
  </scstep>
  <scstep>
   <time name="dav">    7.83    7.89</time>
   <time name="total">    9.21    9.29</time>
   <energy>
    <i name="e_fr_energy">   -304.70163265 </i>
    <i name="e_wo_entrp">   -304.69924976 </i>
    <i name="e_0_energy">   -304.70044120 </i>
   </energy>
  </scstep>
  <scstep>
   <time name="dav">    5.57    5.62</time>
   <time name="total">    6.36    6.42</time>
   <energy>
    <i name="alphaZ">     93.56316191 </i>
    <i name="ewald">  -6229.63592304 </i>
    <i name="hartreedc">   -412.34044833 </i>
    <i name="XCdc">   -478.62366526 </i>
    <i name="pawpsdc">  23031.01408959 </i>
    <i name="pawaedc"> -22095.95855006 </i>
    <i name="eentropy">     -0.00238290 </i>
    <i name="bandstr">    148.71701717 </i>
    <i name="atom">   5638.56506835 </i>
    <i name="e_fr_energy">   -304.70163257 </i>
    <i name="e_wo_entrp">   -304.69924967 </i>
    <i name="e_0_energy">   -304.70044112 </i>
   </energy>
  </scstep>
  <structure>
   <crystal>
    <varray name="basis" >
     <v>       9.97646553       0.00000000       5.75991507 </v>
     <v>       3.32548851       9.40590192       5.75991507 </v>
     <v>       0.00000000       0.00000000      11.51983014 </v>
    </varray>
    <i name="volume">   1080.99386112 </i>
    <varray name="rec_basis" >
     <v>       0.10023590      -0.03543874       0.00000000 </v>
     <v>       0.00000000       0.10631623       0.00000000 </v>
     <v>      -0.05011795      -0.03543874       0.08680684 </v>
    </varray>
   </crystal>
   <varray name="positions" >
    <v>       0.29166667       0.29166667       0.29166667 </v>
    <v>       0.29093639       0.29093639       0.62563169 </v>
    <v>       0.29093639       0.29093639       0.95916221 </v>
    <v>       0.29093639       0.62563169       0.29093639 </v>
    <v>       0.29146135       0.62506844       0.62506844 </v>
    <v>       0.29093639       0.62563169       0.95916221 </v>
    <v>       0.29093639       0.95916221       0.29093639 </v>
    <v>       0.29093639       0.95916221       0.62563169 </v>
    <v>       0.29144153       0.95840838       0.95840838 </v>
    <v>       0.62563169       0.29093639       0.29093639 </v>
    <v>       0.62506844       0.29146135       0.62506844 </v>
    <v>       0.62563169       0.29093639       0.95916221 </v>
    <v>       0.62506844       0.62506844       0.29146135 </v>
    <v>       0.62506844       0.62506844       0.62506844 </v>
    <v>       0.62502328       0.62502328       0.95831005 </v>
    <v>       0.62563169       0.95916221       0.29093639 </v>
    <v>       0.62502328       0.95831005       0.62502328 </v>
    <v>       0.62502328       0.95831005       0.95831005 </v>
    <v>       0.95916221       0.29093639       0.29093639 </v>
    <v>       0.95916221       0.29093639       0.62563169 </v>
    <v>       0.95840838       0.29144153       0.95840838 </v>
    <v>       0.95916221       0.62563169       0.29093639 </v>
    <v>       0.95831005       0.62502328       0.62502328 </v>
    <v>       0.95831005       0.62502328       0.95831005 </v>
    <v>       0.95840838       0.95840838       0.29144153 </v>
    <v>       0.95831005       0.95831005       0.62502328 </v>
    <v>       0.95840838       0.95840838       0.95840838 </v>
    <v>       0.04166667       0.04166667       0.04166667 </v>
    <v>       0.04155151       0.04155151       0.37524990 </v>
    <v>       0.04155151       0.04155151       0.70831373 </v>
    <v>       0.04155151       0.37524990       0.04155151 </v>
    <v>       0.04194955       0.37490571       0.37490571 </v>
    <v>       0.04155151       0.37524990       0.70831373 </v>
    <v>       0.04155151       0.70831373       0.04155151 </v>
    <v>       0.04155151       0.70831373       0.37524990 </v>
    <v>       0.04167469       0.70833066       0.70833066 </v>
    <v>       0.37524990       0.04155151       0.04155151 </v>
    <v>       0.37490571       0.04194955       0.37490571 </v>
    <v>       0.37524990       0.04155151       0.70831373 </v>
    <v>       0.37490571       0.37490571       0.04194955 </v>
    <v>       0.37490571       0.37490571       0.37490571 </v>
    <v>       0.37564059       0.37564059       0.70769274 </v>
    <v>       0.37524990       0.70831373       0.04155151 </v>
    <v>       0.37564059       0.70769274       0.37564059 </v>
    <v>       0.37564059       0.70769274       0.70769274 </v>
    <v>       0.70831373       0.04155151       0.04155151 </v>
    <v>       0.70831373       0.04155151       0.37524990 </v>
    <v>       0.70833066       0.04167469       0.70833066 </v>
    <v>       0.70831373       0.37524990       0.04155151 </v>
    <v>       0.70769274       0.37564059       0.37564059 </v>
    <v>       0.70769274       0.37564059       0.70769274 </v>
    <v>       0.70833066       0.70833066       0.04167469 </v>
    <v>       0.70769274       0.70769274       0.37564059 </v>
    <v>       0.70833066       0.70833066       0.70833066 </v>
   </varray>
  </structure>
  <varray name="forces" >
   <v>       0.00000000      -0.00000000       0.00000000 </v>
   <v>      -0.03135363      -0.02217036       0.01999529 </v>
   <v>      -0.03135363      -0.02217036      -0.01999529 </v>
   <v>      -0.00990467       0.03849645      -0.01715539 </v>
   <v>      -0.03221487       0.01138968       0.00000000 </v>
   <v>      -0.00990467       0.03849645       0.01715539 </v>
   <v>      -0.02144896       0.00584427      -0.03715068 </v>
   <v>      -0.02144896       0.00584427       0.03715068 </v>
   <v>      -0.00027811       0.00009833       0.00000000 </v>
   <v>       0.03299325      -0.02217036      -0.01715539 </v>
   <v>       0.00000000      -0.03416903       0.00000000 </v>
   <v>       0.03299325      -0.02217036       0.01715539 </v>
   <v>       0.01610743       0.01138968      -0.02789889 </v>
   <v>       0.01610743       0.01138968       0.02789889 </v>
   <v>       0.01431896       0.01012503       0.00000000 </v>
   <v>       0.04289791       0.00584427       0.00000000 </v>
   <v>       0.00715948      -0.01012503       0.01240058 </v>
   <v>       0.00715948      -0.01012503      -0.01240058 </v>
   <v>      -0.00163962      -0.02217036      -0.03715068 </v>
   <v>      -0.00163962      -0.02217036       0.03715068 </v>
   <v>       0.00000000      -0.00029498       0.00000000 </v>
   <v>       0.01980934       0.03849645       0.00000000 </v>
   <v>      -0.00715948       0.01012503       0.01240058 </v>
   <v>      -0.00715948       0.01012503      -0.01240058 </v>
   <v>       0.00013906       0.00009833      -0.00024085 </v>
   <v>      -0.01431896      -0.01012503       0.00000000 </v>
   <v>       0.00013906       0.00009833       0.00024085 </v>
   <v>       0.00000000      -0.00000000       0.00000000 </v>
   <v>      -0.05296477      -0.03745175      -0.01220705 </v>
   <v>      -0.05296477      -0.03745175       0.01220705 </v>
   <v>      -0.03000626       0.02748474      -0.05197237 </v>
   <v>       0.02730153      -0.00965255       0.00000000 </v>
   <v>      -0.03000626       0.02748474       0.05197237 </v>
   <v>      -0.02295852       0.04741877      -0.03976532 </v>
   <v>      -0.02295852       0.04741877       0.03976532 </v>
   <v>      -0.01068068       0.00377619       0.00000000 </v>
   <v>       0.01591077      -0.03745175      -0.05197237 </v>
   <v>       0.00000000       0.02895764       0.00000000 </v>
   <v>       0.01591077      -0.03745175       0.05197237 </v>
   <v>      -0.01365076      -0.00965255       0.02364381 </v>
   <v>      -0.01365076      -0.00965255      -0.02364381 </v>
   <v>      -0.01037407      -0.00733557       0.00000000 </v>
   <v>       0.04591703       0.04741877       0.00000000 </v>
   <v>      -0.00518703       0.00733557      -0.00898421 </v>
   <v>      -0.00518703       0.00733557       0.00898421 </v>
   <v>       0.03705400      -0.03745175      -0.03976532 </v>
   <v>       0.03705400      -0.03745175       0.03976532 </v>
   <v>       0.00000000      -0.01132857       0.00000000 </v>
   <v>       0.06001252       0.02748474       0.00000000 </v>
   <v>       0.00518703      -0.00733557      -0.00898421 </v>
   <v>       0.00518703      -0.00733557       0.00898421 </v>
   <v>       0.00534034       0.00377619      -0.00924974 </v>
   <v>       0.01037407       0.00733557       0.00000000 </v>
   <v>       0.00534034       0.00377619       0.00924974 </v>
  </varray>
  <varray name="stress" >
   <v>     -12.56457927       0.00000000      -0.00000000 </v>
   <v>       0.00000000     -12.56457931      -0.00000000 </v>
   <v>      -0.00000000      -0.00000000     -12.56457932 </v>
  </varray>
  <energy>
   <i name="e_fr_energy">   -304.70163257 </i>
   <i name="e_wo_entrp">   -304.70044112 </i>
   <i name="e_0_energy">     -0.00238290 </i>
  </energy>
  <time name="totalsc">   51.92   52.41</time>
 </calculation>
 <calculation>
  <scstep>
   <time name="dav">    5.31    5.36</time>
   <time name="total">    6.66    6.73</time>
   <energy>
    <i name="alphaZ">     93.56316191 </i>
    <i name="ewald">  -6229.60066049 </i>
    <i name="hartreedc">   -412.36794068 </i>
    <i name="XCdc">   -478.62338519 </i>
    <i name="pawpsdc">  23030.75070052 </i>
    <i name="pawaedc"> -22095.69513851 </i>
    <i name="eentropy">     -0.00238174 </i>
    <i name="bandstr">    148.70856249 </i>
    <i name="atom">   5638.56506835 </i>
    <i name="e_fr_energy">   -304.70201333 </i>
    <i name="e_wo_entrp">   -304.69963159 </i>
    <i name="e_0_energy">   -304.70082246 </i>
   </energy>
  </scstep>
  <scstep>
   <time name="dav">    6.30    6.36</time>
   <time name="total">    7.29    7.36</time>
   <energy>
    <i name="e_fr_energy">   -304.70208064 </i>
    <i name="e_wo_entrp">   -304.69969901 </i>
    <i name="e_0_energy">   -304.70088983 </i>
   </energy>
  </scstep>
  <scstep>
   <time name="dav">    4.24    4.27</time>
   <time name="total">    4.47    4.52</time>
   <energy>
    <i name="alphaZ">     93.56316191 </i>
    <i name="ewald">  -6229.60066049 </i>
    <i name="hartreedc">   -412.37427263 </i>
    <i name="XCdc">   -478.62317332 </i>
    <i name="pawpsdc">  23031.17482770 </i>
    <i name="pawaedc"> -22096.11938410 </i>
    <i name="eentropy">     -0.00238158 </i>
    <i name="bandstr">    148.71473953 </i>
    <i name="atom">   5638.56506835 </i>
    <i name="e_fr_energy">   -304.70207463 </i>
    <i name="e_wo_entrp">   -304.69969305 </i>
    <i name="e_0_energy">   -304.70088384 </i>
   </energy>
  </scstep>
  <structure>
   <crystal>
    <varray name="basis" >
     <v>       9.97646553       0.00000000       5.75991507 </v>
     <v>       3.32548851       9.40590192       5.75991507 </v>
     <v>       0.00000000       0.00000000      11.51983014 </v>
    </varray>
    <i name="volume">   1080.99386112 </i>
    <varray name="rec_basis" >
     <v>       0.10023590      -0.03543874       0.00000000 </v>
     <v>       0.00000000       0.10631623       0.00000000 </v>
     <v>      -0.05011795      -0.03543874       0.08680684 </v>
    </varray>
   </crystal>
   <varray name="positions" >
    <v>       0.29166667       0.29166667       0.29166667 </v>
    <v>       0.29083611       0.29083611       0.62571842 </v>
    <v>       0.29083611       0.29083611       0.95927602 </v>
    <v>       0.29083611       0.62571842       0.29083611 </v>
    <v>       0.29143316       0.62507784       0.62507784 </v>
    <v>       0.29083611       0.62571842       0.95927602 </v>
    <v>       0.29083611       0.95927602       0.29083611 </v>
    <v>       0.29083611       0.95927602       0.62571842 </v>
    <v>       0.29141061       0.95841868       0.95841868 </v>
    <v>       0.62571842       0.29083611       0.29083611 </v>
    <v>       0.62507784       0.29143316       0.62507784 </v>
    <v>       0.62571842       0.29083611       0.95927602 </v>
    <v>       0.62507784       0.62507784       0.29143316 </v>
    <v>       0.62507784       0.62507784       0.62507784 </v>
    <v>       0.62502648       0.62502648       0.95830686 </v>
    <v>       0.62571842       0.95927602       0.29083611 </v>
    <v>       0.62502648       0.95830686       0.62502648 </v>
    <v>       0.62502648       0.95830686       0.95830686 </v>
    <v>       0.95927602       0.29083611       0.29083611 </v>
    <v>       0.95927602       0.29083611       0.62571842 </v>
    <v>       0.95841868       0.29141061       0.95841868 </v>
    <v>       0.95927602       0.62571842       0.29083611 </v>
    <v>       0.95830686       0.62502648       0.62502648 </v>
    <v>       0.95830686       0.62502648       0.95830686 </v>
    <v>       0.95841868       0.95841868       0.29141061 </v>
    <v>       0.95830686       0.95830686       0.62502648 </v>
    <v>       0.95841868       0.95841868       0.95841868 </v>
    <v>       0.04166667       0.04166667       0.04166667 </v>
    <v>       0.04153570       0.04153570       0.37528422 </v>
    <v>       0.04153570       0.04153570       0.70831104 </v>
    <v>       0.04153570       0.37528422       0.04153570 </v>
    <v>       0.04198839       0.37489276       0.37489276 </v>
    <v>       0.04153570       0.37528422       0.70831104 </v>
    <v>       0.04153570       0.70831104       0.04153570 </v>
    <v>       0.04153570       0.70831104       0.37528422 </v>
    <v>       0.04167579       0.70833029       0.70833029 </v>
    <v>       0.37528422       0.04153570       0.04153570 </v>
    <v>       0.37489276       0.04198839       0.37489276 </v>
    <v>       0.37528422       0.04153570       0.70831104 </v>
    <v>       0.37489276       0.37489276       0.04198839 </v>
    <v>       0.37489276       0.37489276       0.37489276 </v>
    <v>       0.37572855       0.37572855       0.70760478 </v>
    <v>       0.37528422       0.70831104       0.04153570 </v>
    <v>       0.37572855       0.70760478       0.37572855 </v>
    <v>       0.37572855       0.70760478       0.70760478 </v>
    <v>       0.70831104       0.04153570       0.04153570 </v>
    <v>       0.70831104       0.04153570       0.37528422 </v>
    <v>       0.70833029       0.04167579       0.70833029 </v>
    <v>       0.70831104       0.37528422       0.04153570 </v>
    <v>       0.70760478       0.37572855       0.37572855 </v>
    <v>       0.70760478       0.37572855       0.70760478 </v>
    <v>       0.70833029       0.70833029       0.04167579 </v>
    <v>       0.70760478       0.70760478       0.37572855 </v>
    <v>       0.70833029       0.70833029       0.70833029 </v>
   </varray>
  </structure>
  <varray name="forces" >
   <v>       0.00000000       0.00000000       0.00000000 </v>
   <v>      -0.00888866      -0.00628523       0.02546085 </v>
   <v>      -0.00888866      -0.00628523      -0.02546085 </v>
   <v>       0.00290559       0.02707393       0.00503263 </v>
   <v>      -0.03086513       0.01091247       0.00000000 </v>
   <v>       0.00290559       0.02707393      -0.00503263 </v>
   <v>      -0.01179424      -0.01450347      -0.02042823 </v>
   <v>      -0.01179424      -0.01450347       0.02042823 </v>
   <v>       0.00563011      -0.00199054       0.00000000 </v>
   <v>       0.02649407      -0.00628523       0.00503263 </v>
   <v>       0.00000000      -0.03273742       0.00000000 </v>
   <v>       0.02649407      -0.00628523      -0.00503263 </v>
   <v>       0.01543257       0.01091247      -0.02672999 </v>
   <v>       0.01543257       0.01091247       0.02672999 </v>
   <v>       0.01549244       0.01095481       0.00000000 </v>
   <v>       0.02358849      -0.01450347       0.00000000 </v>
   <v>       0.00774622      -0.01095481       0.01341685 </v>
   <v>       0.00774622      -0.01095481      -0.01341685 </v>
   <v>      -0.01760542      -0.00628523      -0.02042823 </v>
   <v>      -0.01760542      -0.00628523       0.02042823 </v>
   <v>       0.00000000       0.00597163       0.00000000 </v>
   <v>      -0.00581117       0.02707393       0.00000000 </v>
   <v>      -0.00774622       0.01095481       0.01341685 </v>
   <v>      -0.00774622       0.01095481      -0.01341685 </v>
   <v>      -0.00281505      -0.00199054       0.00487582 </v>
   <v>      -0.01549244      -0.01095481       0.00000000 </v>
   <v>      -0.00281505      -0.00199054      -0.00487582 </v>
   <v>       0.00000000       0.00000000       0.00000000 </v>
   <v>      -0.05599718      -0.03959599      -0.01855247 </v>
   <v>      -0.05599718      -0.03959599       0.01855247 </v>
   <v>      -0.03335423       0.02444796      -0.05777122 </v>
   <v>       0.02441233      -0.00863106       0.00000000 </v>
   <v>      -0.03335423       0.02444796       0.05777122 </v>
   <v>      -0.02264296       0.05474402      -0.03921875 </v>
   <v>      -0.02264296       0.05474402       0.03921875 </v>
   <v>      -0.01262499       0.00446361       0.00000000 </v>
   <v>       0.01193168      -0.03959599      -0.05777122 </v>
   <v>       0.00000000       0.02589319       0.00000000 </v>
   <v>       0.01193168      -0.03959599       0.05777122 </v>
   <v>      -0.01220617      -0.00863106       0.02114170 </v>
   <v>      -0.01220617      -0.00863106      -0.02114170 </v>
   <v>      -0.03488083      -0.02466447       0.00000000 </v>
   <v>       0.04528591       0.05474402       0.00000000 </v>
   <v>      -0.01744041       0.02466447      -0.03020768 </v>
   <v>      -0.01744041       0.02466447       0.03020768 </v>
   <v>       0.04406550      -0.03959599      -0.03921875 </v>
   <v>       0.04406550      -0.03959599       0.03921875 </v>
   <v>       0.00000000      -0.01339082       0.00000000 </v>
   <v>       0.06670846       0.02444796      -0.00000000 </v>
   <v>       0.01744041      -0.02466447      -0.03020768 </v>
   <v>       0.01744041      -0.02466447       0.03020768 </v>
   <v>       0.00631249       0.00446361      -0.01093356 </v>
   <v>       0.03488083       0.02466447       0.00000000 </v>
   <v>       0.00631249       0.00446361       0.01093356 </v>
  </varray>
  <varray name="stress" >
   <v>     -12.54018600       0.00000000       0.00000000 </v>
   <v>       0.00000000     -12.54018604       0.00000000 </v>
   <v>       0.00000000       0.00000000     -12.54018604 </v>
  </varray>
  <energy>
   <i name="e_fr_energy">   -304.70207463 </i>
   <i name="e_wo_entrp">   -304.70088384 </i>
   <i name="e_0_energy">     -0.00238158 </i>
  </energy>
  <time name="totalsc">   28.59   28.87</time>
 </calculation>
 <calculation>
  <scstep>
   <time name="dav">    3.91    3.95</time>
   <time name="total">    4.41    4.45</time>
   <energy>
    <i name="alphaZ">     93.56316191 </i>
    <i name="ewald">  -6229.66118399 </i>
    <i name="hartreedc">   -412.32308792 </i>
    <i name="XCdc">   -478.62297458 </i>
    <i name="pawpsdc">  23030.97031857 </i>
    <i name="pawaedc"> -22095.91503661 </i>
    <i name="eentropy">     -0.00238083 </i>
    <i name="bandstr">    148.72113402 </i>
    <i name="atom">   5638.56506835 </i>
    <i name="e_fr_energy">   -304.70498108 </i>
    <i name="e_wo_entrp">   -304.70260025 </i>
    <i name="e_0_energy">   -304.70379066 </i>
   </energy>
  </scstep>
  <scstep>
   <time name="dav">    6.16    6.22</time>
   <time name="total">    7.13    7.20</time>
   <energy>
    <i name="e_fr_energy">   -304.70534048 </i>
    <i name="e_wo_entrp">   -304.70295969 </i>
    <i name="e_0_energy">   -304.70415008 </i>
   </energy>
  </scstep>
  <scstep>
   <time name="dav">    5.03    5.07</time>
   <time name="total">    5.96    6.02</time>
   <energy>
    <i name="e_fr_energy">   -304.70528756 </i>
    <i name="e_wo_entrp">   -304.70290677 </i>
    <i name="e_0_energy">   -304.70409717 </i>
   </energy>
  </scstep>
  <scstep>
   <time name="dav">    4.43    4.48</time>
   <time name="total">    4.83    4.88</time>
   <energy>
    <i name="e_fr_energy">   -304.70526267 </i>
    <i name="e_wo_entrp">   -304.70288196 </i>
    <i name="e_0_energy">   -304.70407231 </i>
   </energy>
  </scstep>
  <scstep>
   <time name="dav">    4.26    4.30</time>
   <time name="total">    4.35    4.39</time>
   <energy>
    <i name="alphaZ">     93.56316191 </i>
    <i name="ewald">  -6229.66118399 </i>
    <i name="hartreedc">   -412.32689615 </i>
    <i name="XCdc">   -478.62311247 </i>
    <i name="pawpsdc">  23030.74217830 </i>
    <i name="pawaedc"> -22095.68656450 </i>
    <i name="eentropy">     -0.00238058 </i>
    <i name="bandstr">    148.72446710 </i>
    <i name="atom">   5638.56506835 </i>
    <i name="e_fr_energy">   -304.70526204 </i>
    <i name="e_wo_entrp">   -304.70288145 </i>
    <i name="e_0_energy">   -304.70407175 </i>
   </energy>
  </scstep>
  <structure>
   <crystal>
    <varray name="basis" >
     <v>       9.97646553       0.00000000       5.75991507 </v>
     <v>       3.32548851       9.40590192       5.75991507 </v>
     <v>       0.00000000       0.00000000      11.51983014 </v>
    </varray>
    <i name="volume">   1080.99386112 </i>
    <varray name="rec_basis" >
     <v>       0.10023590      -0.03543874       0.00000000 </v>
     <v>       0.00000000       0.10631623       0.00000000 </v>
     <v>      -0.05011795      -0.03543874       0.08680684 </v>
    </varray>
   </crystal>
   <varray name="positions" >
    <v>       0.29166667       0.29166667       0.29166667 </v>
    <v>       0.29074323       0.29074323       0.62591279 </v>
    <v>       0.29074323       0.29074323       0.95926742 </v>
    <v>       0.29074323       0.62591279       0.29074323 </v>
    <v>       0.29124384       0.62514094       0.62514094 </v>
    <v>       0.29074323       0.62591279       0.95926742 </v>
    <v>       0.29074323       0.95926742       0.29074323 </v>
    <v>       0.29074323       0.95926742       0.62591279 </v>
    <v>       0.29142366       0.95841434       0.95841434 </v>
    <v>       0.62591279       0.29074323       0.29074323 </v>
    <v>       0.62514094       0.29124384       0.62514094 </v>
    <v>       0.62591279       0.29074323       0.95926742 </v>
    <v>       0.62514094       0.62514094       0.29124384 </v>
    <v>       0.62514094       0.62514094       0.62514094 </v>
    <v>       0.62508611       0.62508611       0.95824722 </v>
    <v>       0.62591279       0.95926742       0.29074323 </v>
    <v>       0.62508611       0.95824722       0.62508611 </v>
    <v>       0.62508611       0.95824722       0.95824722 </v>
    <v>       0.95926742       0.29074323       0.29074323 </v>
    <v>       0.95926742       0.29074323       0.62591279 </v>
    <v>       0.95841434       0.29142366       0.95841434 </v>
    <v>       0.95926742       0.62591279       0.29074323 </v>
    <v>       0.95824722       0.62508611       0.62508611 </v>
    <v>       0.95824722       0.62508611       0.95824722 </v>
    <v>       0.95841434       0.95841434       0.29142366 </v>
    <v>       0.95824722       0.95824722       0.62508611 </v>
    <v>       0.95841434       0.95841434       0.95841434 </v>
    <v>       0.04166667       0.04166667       0.04166667 </v>
    <v>       0.04131762       0.04131762       0.37543351 </v>
    <v>       0.04131762       0.04131762       0.70859793 </v>
    <v>       0.04131762       0.37543351       0.04131762 </v>
    <v>       0.04214799       0.37483956       0.37483956 </v>
    <v>       0.04131762       0.37543351       0.70859793 </v>
    <v>       0.04131762       0.70859793       0.04131762 </v>
    <v>       0.04131762       0.70859793       0.37543351 </v>
    <v>       0.04160588       0.70835360       0.70835360 </v>
    <v>       0.37543351       0.04131762       0.04131762 </v>
    <v>       0.37483956       0.04214799       0.37483956 </v>
    <v>       0.37543351       0.04131762       0.70859793 </v>
    <v>       0.37483956       0.37483956       0.04214799 </v>
    <v>       0.37483956       0.37483956       0.37483956 </v>
    <v>       0.37565099       0.37565099       0.70768234 </v>
    <v>       0.37543351       0.70859793       0.04131762 </v>
    <v>       0.37565099       0.70768234       0.37565099 </v>
    <v>       0.37565099       0.70768234       0.70768234 </v>
    <v>       0.70859793       0.04131762       0.04131762 </v>
    <v>       0.70859793       0.04131762       0.37543351 </v>
    <v>       0.70835360       0.04160588       0.70835360 </v>
    <v>       0.70859793       0.37543351       0.04131762 </v>
    <v>       0.70768234       0.37565099       0.37565099 </v>
    <v>       0.70768234       0.37565099       0.70768234 </v>
    <v>       0.70835360       0.70835360       0.04160588 </v>
    <v>       0.70768234       0.70768234       0.37565099 </v>
    <v>       0.70835360       0.70835360       0.70835360 </v>
   </varray>
  </structure>
  <varray name="forces" >
   <v>      -0.00000000       0.00000000      -0.00000000 </v>
   <v>      -0.00660231      -0.00466854       0.00751027 </v>
   <v>      -0.00660231      -0.00466854      -0.00751027 </v>
   <v>      -0.00113313       0.01080065      -0.00196264 </v>
   <v>      -0.00589217       0.00208320      -0.00000000 </v>
   <v>      -0.00113313       0.01080065       0.00196264 </v>
   <v>      -0.00546918      -0.00146357      -0.00947291 </v>
   <v>      -0.00546918      -0.00146357       0.00947291 </v>
   <v>      -0.00638907       0.00225888      -0.00000000 </v>
   <v>       0.00980524      -0.00466854      -0.00196264 </v>
   <v>      -0.00000000      -0.00624959      -0.00000000 </v>
   <v>       0.00980524      -0.00466854       0.00196264 </v>
   <v>       0.00294608       0.00208320      -0.00510277 </v>
   <v>       0.00294608       0.00208320       0.00510277 </v>
   <v>       0.01674811       0.01184270      -0.00000000 </v>
   <v>       0.01093837      -0.00146357      -0.00000000 </v>
   <v>       0.00837406      -0.01184270       0.01450429 </v>
   <v>       0.00837406      -0.01184270      -0.01450429 </v>
   <v>      -0.00320293      -0.00466854      -0.00947291 </v>
   <v>      -0.00320293      -0.00466854       0.00947291 </v>
   <v>      -0.00000000      -0.00677663      -0.00000000 </v>
   <v>       0.00226626       0.01080065      -0.00000000 </v>
   <v>      -0.00837406       0.01184270       0.01450429 </v>
   <v>      -0.00837406       0.01184270      -0.01450429 </v>
   <v>       0.00319454       0.00225888      -0.00553310 </v>
   <v>      -0.01674811      -0.01184270      -0.00000000 </v>
   <v>       0.00319454       0.00225888       0.00553310 </v>
   <v>      -0.00000000       0.00000000      -0.00000000 </v>
   <v>      -0.02170677      -0.01534900      -0.00804692 </v>
   <v>      -0.02170677      -0.01534900       0.00804692 </v>
   <v>      -0.01317633       0.00877872      -0.02282207 </v>
   <v>      -0.00197978       0.00069996      -0.00000000 </v>
   <v>      -0.01317633       0.00877872       0.02282207 </v>
   <v>      -0.00853044       0.02191928      -0.01477515 </v>
   <v>      -0.00853044       0.02191928       0.01477515 </v>
   <v>      -0.01410138       0.00498559      -0.00000000 </v>
   <v>       0.00388455      -0.01534900      -0.02282207 </v>
   <v>      -0.00000000      -0.00209988      -0.00000000 </v>
   <v>       0.00388455      -0.01534900       0.02282207 </v>
   <v>       0.00098989       0.00069996      -0.00171454 </v>
   <v>       0.00098989       0.00069996       0.00171454 </v>
   <v>      -0.01945992      -0.01376024      -0.00000000 </v>
   <v>       0.01706087       0.02191928      -0.00000000 </v>
   <v>      -0.00972996       0.01376024      -0.01685279 </v>
   <v>      -0.00972996       0.01376024       0.01685279 </v>
   <v>       0.01782222      -0.01534900      -0.01477515 </v>
   <v>       0.01782222      -0.01534900       0.01477515 </v>
   <v>      -0.00000000      -0.01495677      -0.00000000 </v>
   <v>       0.02635266       0.00877872      -0.00000000 </v>
   <v>       0.00972996      -0.01376024      -0.01685279 </v>
   <v>       0.00972996      -0.01376024       0.01685279 </v>
   <v>       0.00705069       0.00498559      -0.01221215 </v>
   <v>       0.01945992       0.01376024      -0.00000000 </v>
   <v>       0.00705069       0.00498559       0.01221215 </v>
  </varray>
  <varray name="stress" >
   <v>     -12.56201324       0.00000000       0.00000000 </v>
   <v>       0.00000000     -12.56201328       0.00000000 </v>
   <v>       0.00000000       0.00000000     -12.56201328 </v>
  </varray>
  <energy>
   <i name="e_fr_energy">   -304.70526204 </i>
   <i name="e_wo_entrp">   -304.70407175 </i>
   <i name="e_0_energy">     -0.00238058 </i>
  </energy>
  <time name="totalsc">   36.54   36.96</time>
  <eigenvalues>
   <array>
    <dimension dim="1">band</dimension>
    <dimension dim="2">kpoint</dimension>
    <dimension dim="3">spin</dimension>
    <field>eigene</field>
    <field>occ</field>
    <set>
     <set comment="spin 1">
      <set comment="kpoint 1">
       <r>   -6.7021    1.0000 </r>
       <r>   -5.8267    1.0000 </r>
       <r>   -4.7637    1.0000 </r>
       <r>   -4.7637    1.0000 </r>
       <r>   -4.7637    1.0000 </r>
       <r>   -4.7258    1.0000 </r>
       <r>   -4.7258    1.0000 </r>
       <r>   -4.7258    1.0000 </r>
       <r>   -4.7112    1.0000 </r>
       <r>   -4.3806    1.0000 </r>
       <r>   -4.2303    1.0000 </r>
       <r>   -4.2303    1.0000 </r>
       <r>   -4.2303    1.0000 </r>
       <r>   -4.1954    1.0000 </r>
       <r>   -4.1954    1.0000 </r>
       <r>   -3.4222    1.0000 </r>
       <r>   -2.9477    1.0000 </r>
       <r>   -2.9477    1.0000 </r>
       <r>   -2.9477    1.0000 </r>
       <r>   -2.8610    1.0000 </r>
       <r>   -2.8610    1.0000 </r>
       <r>   -2.8610    1.0000 </r>
       <r>   -2.8219    1.0000 </r>
       <r>   -2.8219    1.0000 </r>
       <r>   -2.8182    1.0000 </r>
       <r>   -2.8182    1.0000 </r>
       <r>   -2.8182    1.0000 </r>
       <r>   -1.4175    1.0000 </r>
       <r>   -1.0722    1.0000 </r>
       <r>   -1.0722    1.0000 </r>
       <r>   -1.0722    1.0000 </r>
       <r>   -0.9240    1.0000 </r>
       <r>   -0.9240    1.0000 </r>
       <r>   -0.9240    1.0000 </r>
       <r>   -0.9224    1.0000 </r>
       <r>   -0.9224    1.0000 </r>
       <r>   -0.9026    1.0000 </r>
       <r>   -0.9026    1.0000 </r>
       <r>   -0.9026    1.0000 </r>
       <r>    0.2767    1.0000 </r>
       <r>    0.3506    1.0000 </r>
       <r>    0.3506    1.0000 </r>
       <r>    0.3506    1.0000 </r>
       <r>    0.5159    1.0000 </r>
       <r>    0.5159    1.0000 </r>
       <r>    0.5159    1.0000 </r>
       <r>    0.5321    1.0000 </r>
       <r>    0.7441    1.0000 </r>
       <r>    0.7811    1.0000 </r>
       <r>    0.7811    1.0000 </r>
       <r>    0.7811    1.0000 </r>
       <r>    0.8244    1.0000 </r>
       <r>    0.8244    1.0000 </r>
       <r>    1.2208    1.0000 </r>
       <r>    1.2208    1.0000 </r>
       <r>    1.2208    1.0000 </r>
       <r>    1.4210    1.0000 </r>
       <r>    1.4210    1.0000 </r>
       <r>    1.4633    1.0000 </r>
       <r>    1.4657    1.0000 </r>
       <r>    1.4657    1.0000 </r>
       <r>    1.4657    1.0000 </r>
       <r>    1.4726    1.0000 </r>
       <r>    1.4726    1.0000 </r>
       <r>    1.4726    1.0000 </r>
       <r>    2.9932    1.0000 </r>
       <r>    2.9932    1.0000 </r>
       <r>    2.9932    1.0000 </r>
       <r>    3.4102    1.0000 </r>
       <r>    3.4102    1.0000 </r>
       <r>    3.4102    1.0000 </r>
       <r>    3.4301    1.0000 </r>
       <r>    3.4301    1.0000 </r>
       <r>    3.4301    1.0000 </r>
       <r>    3.4449    1.0000 </r>
       <r>    3.4449    1.0000 </r>
       <r>    3.4449    1.0000 </r>
       <r>    3.6372    1.0000 </r>
       <r>    3.6372    1.0000 </r>
       <r>    3.6372    1.0000 </r>
       <r>    3.7112    1.0000 </r>
       <r>    3.7112    1.0000 </r>
       <r>    3.7112    1.0000 </r>
       <r>    3.7306    1.0000 </r>
       <r>    3.7382    1.0000 </r>
       <r>    3.7382    1.0000 </r>
       <r>    3.7650    1.0000 </r>
       <r>    3.7650    1.0000 </r>
       <r>    3.7650    1.0000 </r>
       <r>    4.5906    1.0000 </r>
       <r>    4.5906    1.0000 </r>
       <r>    4.5906    1.0000 </r>
       <r>    4.8183    1.0000 </r>
       <r>    4.8183    1.0000 </r>
       <r>    4.8230    1.0000 </r>
       <r>    4.8230    1.0000 </r>
       <r>    4.8230    1.0000 </r>
       <r>    4.8534    1.0000 </r>
       <r>    4.8534    1.0000 </r>
       <r>    4.8534    1.0000 </r>
       <r>    4.8576    1.0000 </r>
       <r>    4.8576    1.0000 </r>
       <r>    4.8595    1.0000 </r>
       <r>    4.8595    1.0000 </r>
       <r>    4.8595    1.0000 </r>
       <r>    5.7942    0.0000 </r>
       <r>    5.7942    0.0000 </r>
       <r>    5.7942    0.0000 </r>
       <r>    6.3242    0.0000 </r>
       <r>    6.5353    0.0000 </r>
       <r>    6.5353    0.0000 </r>
       <r>    6.5353    0.0000 </r>
       <r>    6.5882    0.0000 </r>
       <r>    6.5882    0.0000 </r>
       <r>    6.9396    0.0000 </r>
       <r>    7.3200    0.0000 </r>
       <r>    7.3200    0.0000 </r>
       <r>    7.3200    0.0000 </r>
       <r>    7.3928    0.0000 </r>
       <r>    7.3928    0.0000 </r>
       <r>    7.4169    0.0000 </r>
       <r>    7.4169    0.0000 </r>
       <r>    7.4169    0.0000 </r>
       <r>    7.4571    0.0000 </r>
       <r>    7.4571    0.0000 </r>
       <r>    7.4571    0.0000 </r>
       <r>    7.5262    0.0000 </r>
       <r>    7.5950    0.0000 </r>
       <r>    7.5950    0.0000 </r>
       <r>    7.5950    0.0000 </r>
       <r>    7.6265    0.0000 </r>
       <r>    7.6347    0.0000 </r>
       <r>    7.6347    0.0000 </r>
       <r>    7.6347    0.0000 </r>
       <r>    7.8390    0.0000 </r>
       <r>    7.8456    0.0000 </r>
       <r>    7.8456    0.0000 </r>
       <r>    7.8456    0.0000 </r>
       <r>    7.8532    0.0000 </r>
       <r>    7.8532    0.0000 </r>
       <r>    8.3552    0.0000 </r>
       <r>    8.3552    0.0000 </r>
       <r>    8.3552    0.0000 </r>
       <r>    9.1251    0.0000 </r>
      </set>
      <set comment="kpoint 2">
       <r>   -6.6832    1.0000 </r>
       <r>   -5.7979    1.0000 </r>
       <r>   -5.2263    1.0000 </r>
       <r>   -4.8706    1.0000 </r>
       <r>   -4.8706    1.0000 </r>
       <r>   -4.7207    1.0000 </r>
       <r>   -4.6026    1.0000 </r>
       <r>   -4.6026    1.0000 </r>
       <r>   -4.5243    1.0000 </r>
       <r>   -4.4486    1.0000 </r>
       <r>   -4.4486    1.0000 </r>
       <r>   -4.1882    1.0000 </r>
       <r>   -3.8785    1.0000 </r>
       <r>   -3.6829    1.0000 </r>
       <r>   -3.6829    1.0000 </r>
       <r>   -3.5933    1.0000 </r>
       <r>   -3.4569    1.0000 </r>
       <r>   -3.4569    1.0000 </r>
       <r>   -3.1129    1.0000 </r>
       <r>   -2.8999    1.0000 </r>
       <r>   -2.8999    1.0000 </r>
       <r>   -2.8563    1.0000 </r>
       <r>   -2.8190    1.0000 </r>
       <r>   -2.8190    1.0000 </r>
       <r>   -2.6798    1.0000 </r>
       <r>   -2.5850    1.0000 </r>
       <r>   -2.5850    1.0000 </r>
       <r>   -1.4999    1.0000 </r>
       <r>   -1.2397    1.0000 </r>
       <r>   -1.2397    1.0000 </r>
       <r>   -1.1938    1.0000 </r>
       <r>   -1.0441    1.0000 </r>
       <r>   -1.0441    1.0000 </r>
       <r>   -0.9598    1.0000 </r>
       <r>   -0.9501    1.0000 </r>
       <r>   -0.9501    1.0000 </r>
       <r>   -0.6766    1.0000 </r>
       <r>   -0.5309    1.0000 </r>
       <r>   -0.4973    1.0000 </r>
       <r>   -0.4973    1.0000 </r>
       <r>   -0.1077    1.0000 </r>
       <r>    0.0010    1.0000 </r>
       <r>    0.0010    1.0000 </r>
       <r>    0.0999    1.0000 </r>
       <r>    0.0999    1.0000 </r>
       <r>    0.1205    1.0000 </r>
       <r>    0.8693    1.0000 </r>
       <r>    0.8904    1.0000 </r>
       <r>    0.8904    1.0000 </r>
       <r>    1.2716    1.0000 </r>
       <r>    1.2991    1.0000 </r>
       <r>    1.2991    1.0000 </r>
       <r>    1.4318    1.0000 </r>
       <r>    1.4728    1.0000 </r>
       <r>    1.4728    1.0000 </r>
       <r>    1.6171    1.0000 </r>
       <r>    1.6171    1.0000 </r>
       <r>    1.6436    1.0000 </r>
       <r>    1.6468    1.0000 </r>
       <r>    1.6568    1.0000 </r>
       <r>    1.6568    1.0000 </r>
       <r>    1.7622    1.0000 </r>
       <r>    1.8323    1.0000 </r>
       <r>    1.8323    1.0000 </r>
       <r>    1.9143    1.0000 </r>
       <r>    2.7104    1.0000 </r>
       <r>    2.8320    1.0000 </r>
       <r>    2.8320    1.0000 </r>
       <r>    3.0809    1.0000 </r>
       <r>    3.0809    1.0000 </r>
       <r>    3.1532    1.0000 </r>
       <r>    3.2836    1.0000 </r>
       <r>    3.3589    1.0000 </r>
       <r>    3.3589    1.0000 </r>
       <r>    3.4180    1.0000 </r>
       <r>    3.4180    1.0000 </r>
       <r>    3.4204    1.0000 </r>
       <r>    3.4514    1.0000 </r>
       <r>    3.4514    1.0000 </r>
       <r>    3.4538    1.0000 </r>
       <r>    3.4867    1.0000 </r>
       <r>    3.4986    1.0000 </r>
       <r>    3.4986    1.0000 </r>
       <r>    3.6541    1.0000 </r>
       <r>    3.6541    1.0000 </r>
       <r>    3.7114    1.0000 </r>
       <r>    3.8842    1.0000 </r>
       <r>    3.9850    1.0000 </r>
       <r>    3.9850    1.0000 </r>
       <r>    4.0566    1.0000 </r>
       <r>    4.0566    1.0000 </r>
       <r>    4.1260    1.0000 </r>
       <r>    4.4295    1.0000 </r>
       <r>    4.4295    1.0000 </r>
       <r>    4.4659    1.0000 </r>
       <r>    4.5267    1.0000 </r>
       <r>    4.5575    1.0000 </r>
       <r>    4.5575    1.0000 </r>
       <r>    4.6517    1.0000 </r>
       <r>    4.6517    1.0000 </r>
       <r>    4.8071    1.0000 </r>
       <r>    4.8071    1.0000 </r>
       <r>    4.8493    1.0000 </r>
       <r>    4.9489    1.0000 </r>
       <r>    5.0505    1.0000 </r>
       <r>    5.0505    1.0000 </r>
       <r>    5.6544    0.0000 </r>
       <r>    5.6544    0.0000 </r>
       <r>    6.5766    0.0000 </r>
       <r>    6.7125    0.0000 </r>
       <r>    6.7125    0.0000 </r>
       <r>    6.8399    0.0000 </r>
       <r>    7.0305    0.0000 </r>
       <r>    7.0305    0.0000 </r>
       <r>    7.0760    0.0000 </r>
       <r>    7.1127    0.0000 </r>
       <r>    7.1127    0.0000 </r>
       <r>    7.3346    0.0000 </r>
       <r>    7.5271    0.0000 </r>
       <r>    7.6954    0.0000 </r>
       <r>    7.6954    0.0000 </r>
       <r>    7.7589    0.0000 </r>
       <r>    7.8401    0.0000 </r>
       <r>    7.8401    0.0000 </r>
       <r>    7.8568    0.0000 </r>
       <r>    7.9065    0.0000 </r>
       <r>    7.9325    0.0000 </r>
       <r>    7.9325    0.0000 </r>
       <r>    7.9947    0.0000 </r>
       <r>    7.9947    0.0000 </r>
       <r>    8.0221    0.0000 </r>
       <r>    8.0389    0.0000 </r>
       <r>    8.0552    0.0000 </r>
       <r>    8.0552    0.0000 </r>
       <r>    8.1223    0.0000 </r>
       <r>    8.1464    0.0000 </r>
       <r>    8.1464    0.0000 </r>
       <r>    8.3976    0.0000 </r>
       <r>    8.5554    0.0000 </r>
       <r>    8.5554    0.0000 </r>
       <r>    8.5977    0.0000 </r>
       <r>    8.6349    0.0000 </r>
       <r>    8.6349    0.0000 </r>
       <r>    8.9829    0.0000 </r>
      </set>
      <set comment="kpoint 3">
       <r>   -6.6631    1.0000 </r>
       <r>   -5.7352    1.0000 </r>
       <r>   -5.4690    1.0000 </r>
       <r>   -4.8496    1.0000 </r>
       <r>   -4.8496    1.0000 </r>
       <r>   -4.7910    1.0000 </r>
       <r>   -4.7910    1.0000 </r>
       <r>   -4.7837    1.0000 </r>
       <r>   -4.3969    1.0000 </r>
       <r>   -4.0436    1.0000 </r>
       <r>   -4.0305    1.0000 </r>
       <r>   -4.0305    1.0000 </r>
       <r>   -3.9991    1.0000 </r>
       <r>   -3.9991    1.0000 </r>
       <r>   -3.8171    1.0000 </r>
       <r>   -3.3998    1.0000 </r>
       <r>   -3.0961    1.0000 </r>
       <r>   -3.0824    1.0000 </r>
       <r>   -3.0824    1.0000 </r>
       <r>   -3.0359    1.0000 </r>
       <r>   -3.0359    1.0000 </r>
       <r>   -2.9500    1.0000 </r>
       <r>   -2.8830    1.0000 </r>
       <r>   -2.8830    1.0000 </r>
       <r>   -2.8515    1.0000 </r>
       <r>   -2.8135    1.0000 </r>
       <r>   -2.8135    1.0000 </r>
       <r>   -1.4371    1.0000 </r>
       <r>   -1.1963    1.0000 </r>
       <r>   -1.1020    1.0000 </r>
       <r>   -1.1020    1.0000 </r>
       <r>   -0.9939    1.0000 </r>
       <r>   -0.9882    1.0000 </r>
[...]
        <r>  0.0000  0.0049  0.0000 </r>
       </set>
       <set comment="band 138">
        <r>  0.0000  0.0003  0.0000 </r>
        <r>  0.0011  0.0017  0.0000 </r>
        <r>  0.0011  0.0017  0.0000 </r>
        <r>  0.0014  0.0010  0.0000 </r>
        <r>  0.0026  0.0031  0.0000 </r>
        <r>  0.0011  0.0017  0.0000 </r>
        <r>  0.0014  0.0010  0.0000 </r>
        <r>  0.0011  0.0017  0.0000 </r>
        <r>  0.0000  0.0026  0.0000 </r>
        <r>  0.0011  0.0017  0.0000 </r>
        <r>  0.0026  0.0031  0.0000 </r>
        <r>  0.0014  0.0010  0.0000 </r>
        <r>  0.0026  0.0031  0.0000 </r>
        <r>  0.0026  0.0031  0.0000 </r>
        <r>  0.0004  0.0055  0.0000 </r>
        <r>  0.0011  0.0017  0.0000 </r>
        <r>  0.0000  0.0045  0.0000 </r>
        <r>  0.0004  0.0055  0.0000 </r>
        <r>  0.0011  0.0017  0.0000 </r>
        <r>  0.0014  0.0010  0.0000 </r>
        <r>  0.0000  0.0026  0.0000 </r>
        <r>  0.0011  0.0017  0.0000 </r>
        <r>  0.0004  0.0055  0.0000 </r>
        <r>  0.0000  0.0045  0.0000 </r>
        <r>  0.0000  0.0026  0.0000 </r>
        <r>  0.0004  0.0055  0.0000 </r>
        <r>  0.0000  0.0026  0.0000 </r>
        <r>  0.0009  0.0000  0.0000 </r>
        <r>  0.0020  0.0026  0.0000 </r>
        <r>  0.0020  0.0026  0.0000 </r>
        <r>  0.0007  0.0049  0.0000 </r>
        <r>  0.0001  0.0014  0.0000 </r>
        <r>  0.0020  0.0026  0.0000 </r>
        <r>  0.0007  0.0049  0.0000 </r>
        <r>  0.0020  0.0026  0.0000 </r>
        <r>  0.0001  0.0032  0.0000 </r>
        <r>  0.0020  0.0026  0.0000 </r>
        <r>  0.0001  0.0014  0.0000 </r>
        <r>  0.0007  0.0049  0.0000 </r>
        <r>  0.0001  0.0014  0.0000 </r>
        <r>  0.0001  0.0014  0.0000 </r>
        <r>  0.0005  0.0021  0.0000 </r>
        <r>  0.0020  0.0026  0.0000 </r>
        <r>  0.0022  0.0011  0.0000 </r>
        <r>  0.0005  0.0021  0.0000 </r>
        <r>  0.0020  0.0026  0.0000 </r>
        <r>  0.0007  0.0049  0.0000 </r>
        <r>  0.0001  0.0032  0.0000 </r>
        <r>  0.0020  0.0026  0.0000 </r>
        <r>  0.0005  0.0021  0.0000 </r>
        <r>  0.0022  0.0011  0.0000 </r>
        <r>  0.0001  0.0032  0.0000 </r>
        <r>  0.0005  0.0021  0.0000 </r>
        <r>  0.0001  0.0032  0.0000 </r>
       </set>
       <set comment="band 139">
        <r>  0.0000  0.0006  0.0000 </r>
        <r>  0.0007  0.0026  0.0000 </r>
        <r>  0.0007  0.0026  0.0000 </r>
        <r>  0.0015  0.0031  0.0000 </r>
        <r>  0.0018  0.0009  0.0000 </r>
        <r>  0.0007  0.0026  0.0000 </r>
        <r>  0.0015  0.0031  0.0000 </r>
        <r>  0.0007  0.0026  0.0000 </r>
        <r>  0.0002  0.0018  0.0000 </r>
        <r>  0.0007  0.0026  0.0000 </r>
        <r>  0.0018  0.0009  0.0000 </r>
        <r>  0.0015  0.0031  0.0000 </r>
        <r>  0.0018  0.0009  0.0000 </r>
        <r>  0.0018  0.0009  0.0000 </r>
        <r>  0.0000  0.0019  0.0000 </r>
        <r>  0.0007  0.0026  0.0000 </r>
        <r>  0.0000  0.0101  0.0000 </r>
        <r>  0.0000  0.0019  0.0000 </r>
        <r>  0.0007  0.0026  0.0000 </r>
        <r>  0.0015  0.0031  0.0000 </r>
        <r>  0.0002  0.0018  0.0000 </r>
        <r>  0.0007  0.0026  0.0000 </r>
        <r>  0.0000  0.0019  0.0000 </r>
        <r>  0.0000  0.0101  0.0000 </r>
        <r>  0.0002  0.0018  0.0000 </r>
        <r>  0.0000  0.0019  0.0000 </r>
        <r>  0.0002  0.0018  0.0000 </r>
        <r>  0.0000  0.0044  0.0000 </r>
        <r>  0.0001  0.0026  0.0000 </r>
        <r>  0.0001  0.0026  0.0000 </r>
        <r>  0.0003  0.0009  0.0000 </r>
        <r>  0.0000  0.0068  0.0000 </r>
        <r>  0.0001  0.0026  0.0000 </r>
        <r>  0.0003  0.0009  0.0000 </r>
        <r>  0.0001  0.0026  0.0000 </r>
        <r>  0.0007  0.0023  0.0000 </r>
        <r>  0.0001  0.0026  0.0000 </r>
        <r>  0.0000  0.0068  0.0000 </r>
        <r>  0.0003  0.0009  0.0000 </r>
        <r>  0.0000  0.0068  0.0000 </r>
        <r>  0.0000  0.0068  0.0000 </r>
        <r>  0.0018  0.0047  0.0000 </r>
        <r>  0.0001  0.0026  0.0000 </r>
        <r>  0.0009  0.0011  0.0000 </r>
        <r>  0.0018  0.0047  0.0000 </r>
        <r>  0.0001  0.0026  0.0000 </r>
        <r>  0.0003  0.0009  0.0000 </r>
        <r>  0.0007  0.0023  0.0000 </r>
        <r>  0.0001  0.0026  0.0000 </r>
        <r>  0.0018  0.0047  0.0000 </r>
        <r>  0.0009  0.0011  0.0000 </r>
        <r>  0.0007  0.0023  0.0000 </r>
        <r>  0.0018  0.0047  0.0000 </r>
        <r>  0.0007  0.0023  0.0000 </r>
       </set>
       <set comment="band 140">
        <r>  0.0002  0.0000  0.0000 </r>
        <r>  0.0002  0.0037  0.0000 </r>
        <r>  0.0002  0.0037  0.0000 </r>
        <r>  0.0001  0.0044  0.0000 </r>
        <r>  0.0000  0.0031  0.0000 </r>
        <r>  0.0002  0.0037  0.0000 </r>
        <r>  0.0001  0.0044  0.0000 </r>
        <r>  0.0002  0.0037  0.0000 </r>
        <r>  0.0000  0.0048  0.0000 </r>
        <r>  0.0002  0.0037  0.0000 </r>
        <r>  0.0000  0.0031  0.0000 </r>
        <r>  0.0001  0.0044  0.0000 </r>
        <r>  0.0000  0.0031  0.0000 </r>
        <r>  0.0000  0.0031  0.0000 </r>
        <r>  0.0001  0.0030  0.0000 </r>
        <r>  0.0002  0.0037  0.0000 </r>
        <r>  0.0008  0.0001  0.0000 </r>
        <r>  0.0001  0.0030  0.0000 </r>
        <r>  0.0002  0.0037  0.0000 </r>
        <r>  0.0001  0.0044  0.0000 </r>
        <r>  0.0000  0.0048  0.0000 </r>
        <r>  0.0002  0.0037  0.0000 </r>
        <r>  0.0001  0.0030  0.0000 </r>
        <r>  0.0008  0.0001  0.0000 </r>
        <r>  0.0000  0.0048  0.0000 </r>
        <r>  0.0001  0.0030  0.0000 </r>
        <r>  0.0000  0.0048  0.0000 </r>
        <r>  0.0000  0.0024  0.0000 </r>
        <r>  0.0007  0.0019  0.0000 </r>
        <r>  0.0007  0.0019  0.0000 </r>
        <r>  0.0010  0.0033  0.0000 </r>
        <r>  0.0001  0.0030  0.0000 </r>
        <r>  0.0007  0.0019  0.0000 </r>
        <r>  0.0010  0.0033  0.0000 </r>
        <r>  0.0007  0.0019  0.0000 </r>
        <r>  0.0000  0.0040  0.0000 </r>
        <r>  0.0007  0.0019  0.0000 </r>
        <r>  0.0001  0.0030  0.0000 </r>
        <r>  0.0010  0.0033  0.0000 </r>
        <r>  0.0001  0.0030  0.0000 </r>
        <r>  0.0001  0.0030  0.0000 </r>
        <r>  0.0002  0.0027  0.0000 </r>
        <r>  0.0007  0.0019  0.0000 </r>
        <r>  0.0000  0.0032  0.0000 </r>
        <r>  0.0002  0.0027  0.0000 </r>
        <r>  0.0007  0.0019  0.0000 </r>
        <r>  0.0010  0.0033  0.0000 </r>
        <r>  0.0000  0.0040  0.0000 </r>
        <r>  0.0007  0.0019  0.0000 </r>
        <r>  0.0002  0.0027  0.0000 </r>
        <r>  0.0000  0.0032  0.0000 </r>
        <r>  0.0000  0.0040  0.0000 </r>
        <r>  0.0002  0.0027  0.0000 </r>
        <r>  0.0000  0.0040  0.0000 </r>
       </set>
       <set comment="band 141">
        <r>  0.0000  0.0035  0.0000 </r>
        <r>  0.0018  0.0032  0.0000 </r>
        <r>  0.0018  0.0032  0.0000 </r>
        <r>  0.0000  0.0022  0.0000 </r>
        <r>  0.0003  0.0035  0.0000 </r>
        <r>  0.0018  0.0032  0.0000 </r>
        <r>  0.0000  0.0022  0.0000 </r>
        <r>  0.0018  0.0032  0.0000 </r>
        <r>  0.0000  0.0109  0.0000 </r>
        <r>  0.0018  0.0032  0.0000 </r>
        <r>  0.0003  0.0035  0.0000 </r>
        <r>  0.0000  0.0022  0.0000 </r>
        <r>  0.0003  0.0035  0.0000 </r>
        <r>  0.0003  0.0035  0.0000 </r>
        <r>  0.0000  0.0003  0.0000 </r>
        <r>  0.0018  0.0032  0.0000 </r>
        <r>  0.0005  0.0042  0.0000 </r>
        <r>  0.0000  0.0003  0.0000 </r>
        <r>  0.0018  0.0032  0.0000 </r>
        <r>  0.0000  0.0022  0.0000 </r>
        <r>  0.0000  0.0109  0.0000 </r>
        <r>  0.0018  0.0032  0.0000 </r>
        <r>  0.0000  0.0003  0.0000 </r>
        <r>  0.0005  0.0042  0.0000 </r>
        <r>  0.0000  0.0109  0.0000 </r>
        <r>  0.0000  0.0003  0.0000 </r>
        <r>  0.0000  0.0109  0.0000 </r>
        <r>  0.0000  0.0071  0.0000 </r>
        <r>  0.0004  0.0022  0.0000 </r>
        <r>  0.0004  0.0022  0.0000 </r>
        <r>  0.0033  0.0071  0.0000 </r>
        <r>  0.0000  0.0067  0.0000 </r>
        <r>  0.0004  0.0022  0.0000 </r>
        <r>  0.0033  0.0071  0.0000 </r>
        <r>  0.0004  0.0022  0.0000 </r>
        <r>  0.0015  0.0016  0.0000 </r>
        <r>  0.0004  0.0022  0.0000 </r>
        <r>  0.0000  0.0067  0.0000 </r>
        <r>  0.0033  0.0071  0.0000 </r>
        <r>  0.0000  0.0067  0.0000 </r>
        <r>  0.0000  0.0067  0.0000 </r>
        <r>  0.0012  0.0027  0.0000 </r>
        <r>  0.0004  0.0023  0.0000 </r>
        <r>  0.0000  0.0014  0.0000 </r>
        <r>  0.0012  0.0027  0.0000 </r>
        <r>  0.0004  0.0022  0.0000 </r>
        <r>  0.0033  0.0071  0.0000 </r>
        <r>  0.0015  0.0016  0.0000 </r>
        <r>  0.0004  0.0022  0.0000 </r>
        <r>  0.0012  0.0027  0.0000 </r>
        <r>  0.0000  0.0014  0.0000 </r>
        <r>  0.0015  0.0016  0.0000 </r>
        <r>  0.0012  0.0027  0.0000 </r>
        <r>  0.0015  0.0016  0.0000 </r>
       </set>
       <set comment="band 142">
        <r>  0.0000  0.0014  0.0000 </r>
        <r>  0.0006  0.0032  0.0000 </r>
        <r>  0.0006  0.0033  0.0000 </r>
        <r>  0.0003  0.0036  0.0000 </r>
        <r>  0.0000  0.0089  0.0000 </r>
        <r>  0.0006  0.0033  0.0000 </r>
        <r>  0.0003  0.0036  0.0000 </r>
        <r>  0.0006  0.0032  0.0000 </r>
        <r>  0.0030  0.0065  0.0000 </r>
        <r>  0.0006  0.0033  0.0000 </r>
        <r>  0.0000  0.0089  0.0000 </r>
        <r>  0.0003  0.0036  0.0000 </r>
        <r>  0.0000  0.0089  0.0000 </r>
        <r>  0.0000  0.0089  0.0000 </r>
        <r>  0.0000  0.0012  0.0000 </r>
        <r>  0.0006  0.0033  0.0000 </r>
        <r>  0.0000  0.0052  0.0000 </r>
        <r>  0.0000  0.0012  0.0000 </r>
        <r>  0.0006  0.0032  0.0000 </r>
        <r>  0.0003  0.0037  0.0000 </r>
        <r>  0.0030  0.0065  0.0000 </r>
        <r>  0.0006  0.0032  0.0000 </r>
        <r>  0.0000  0.0012  0.0000 </r>
        <r>  0.0000  0.0052  0.0000 </r>
        <r>  0.0030  0.0065  0.0000 </r>
        <r>  0.0000  0.0012  0.0000 </r>
        <r>  0.0030  0.0065  0.0000 </r>
        <r>  0.0000  0.0041  0.0000 </r>
        <r>  0.0008  0.0014  0.0000 </r>
        <r>  0.0008  0.0014  0.0000 </r>
        <r>  0.0001  0.0087  0.0000 </r>
        <r>  0.0004  0.0027  0.0000 </r>
        <r>  0.0008  0.0014  0.0000 </r>
        <r>  0.0001  0.0087  0.0000 </r>
        <r>  0.0008  0.0014  0.0000 </r>
        <r>  0.0000  0.0035  0.0000 </r>
        <r>  0.0008  0.0014  0.0000 </r>
        <r>  0.0004  0.0027  0.0000 </r>
        <r>  0.0001  0.0087  0.0000 </r>
        <r>  0.0004  0.0027  0.0000 </r>
        <r>  0.0004  0.0027  0.0000 </r>
        <r>  0.0050  0.0025  0.0000 </r>
        <r>  0.0008  0.0014  0.0000 </r>
        <r>  0.0001  0.0022  0.0000 </r>
        <r>  0.0050  0.0025  0.0000 </r>
        <r>  0.0008  0.0014  0.0000 </r>
        <r>  0.0001  0.0087  0.0000 </r>
        <r>  0.0000  0.0035  0.0000 </r>
        <r>  0.0008  0.0014  0.0000 </r>
        <r>  0.0050  0.0025  0.0000 </r>
        <r>  0.0001  0.0022  0.0000 </r>
        <r>  0.0000  0.0035  0.0000 </r>
        <r>  0.0050  0.0025  0.0000 </r>
        <r>  0.0000  0.0035  0.0000 </r>
       </set>
       <set comment="band 143">
        <r>  0.0020  0.0000  0.0000 </r>
        <r>  0.0020  0.0048  0.0000 </r>
        <r>  0.0020  0.0048  0.0000 </r>
        <r>  0.0009  0.0009  0.0000 </r>
        <r>  0.0020  0.0044  0.0000 </r>
        <r>  0.0020  0.0048  0.0000 </r>
        <r>  0.0009  0.0009  0.0000 </r>
        <r>  0.0020  0.0048  0.0000 </r>
        <r>  0.0018  0.0005  0.0000 </r>
        <r>  0.0020  0.0048  0.0000 </r>
        <r>  0.0020  0.0044  0.0000 </r>
        <r>  0.0009  0.0009  0.0000 </r>
        <r>  0.0020  0.0044  0.0000 </r>
        <r>  0.0020  0.0044  0.0000 </r>
        <r>  0.0004  0.0014  0.0000 </r>
        <r>  0.0020  0.0048  0.0000 </r>
        <r>  0.0048  0.0000  0.0000 </r>
        <r>  0.0004  0.0014  0.0000 </r>
        <r>  0.0020  0.0048  0.0000 </r>
        <r>  0.0009  0.0009  0.0000 </r>
        <r>  0.0018  0.0005  0.0000 </r>
        <r>  0.0020  0.0048  0.0000 </r>
        <r>  0.0004  0.0014  0.0000 </r>
        <r>  0.0048  0.0000  0.0000 </r>
        <r>  0.0018  0.0005  0.0000 </r>
        <r>  0.0004  0.0014  0.0000 </r>
        <r>  0.0018  0.0005  0.0000 </r>
        <r>  0.0000  0.0001  0.0000 </r>
        <r>  0.0000  0.0047  0.0000 </r>
        <r>  0.0000  0.0047  0.0000 </r>
        <r>  0.0020  0.0051  0.0000 </r>
        <r>  0.0000  0.0023  0.0000 </r>
        <r>  0.0000  0.0047  0.0000 </r>
        <r>  0.0020  0.0051  0.0000 </r>
        <r>  0.0000  0.0047  0.0000 </r>
        <r>  0.0000  0.0040  0.0000 </r>
        <r>  0.0000  0.0047  0.0000 </r>
        <r>  0.0000  0.0023  0.0000 </r>
        <r>  0.0020  0.0051  0.0000 </r>
        <r>  0.0000  0.0023  0.0000 </r>
        <r>  0.0000  0.0023  0.0000 </r>
        <r>  0.0002  0.0156  0.0000 </r>
        <r>  0.0000  0.0047  0.0000 </r>
        <r>  0.0000  0.0002  0.0000 </r>
        <r>  0.0002  0.0156  0.0000 </r>
        <r>  0.0000  0.0047  0.0000 </r>
        <r>  0.0020  0.0051  0.0000 </r>
        <r>  0.0000  0.0040  0.0000 </r>
        <r>  0.0000  0.0047  0.0000 </r>
        <r>  0.0002  0.0156  0.0000 </r>
        <r>  0.0000  0.0002  0.0000 </r>
        <r>  0.0000  0.0040  0.0000 </r>
        <r>  0.0002  0.0156  0.0000 </r>
        <r>  0.0000  0.0040  0.0000 </r>
       </set>
       <set comment="band 144">
        <r>  0.0000  0.0000  0.0000 </r>
        <r>  0.0005  0.0071  0.0000 </r>
        <r>  0.0005  0.0071  0.0000 </r>
        <r>  0.0012  0.0035  0.0000 </r>
        <r>  0.0010  0.0023  0.0000 </r>
        <r>  0.0005  0.0071  0.0000 </r>
        <r>  0.0012  0.0035  0.0000 </r>
        <r>  0.0005  0.0071  0.0000 </r>
        <r>  0.0020  0.0030  0.0000 </r>
        <r>  0.0005  0.0070  0.0000 </r>
        <r>  0.0011  0.0023  0.0000 </r>
        <r>  0.0011  0.0035  0.0000 </r>
        <r>  0.0010  0.0023  0.0000 </r>
        <r>  0.0011  0.0023  0.0000 </r>
        <r>  0.0004  0.0061  0.0000 </r>
        <r>  0.0005  0.0071  0.0000 </r>
        <r>  0.0000  0.0002  0.0000 </r>
        <r>  0.0005  0.0061  0.0000 </r>
        <r>  0.0005  0.0071  0.0000 </r>
        <r>  0.0012  0.0035  0.0000 </r>
        <r>  0.0020  0.0030  0.0000 </r>
        <r>  0.0005  0.0071  0.0000 </r>
        <r>  0.0005  0.0061  0.0000 </r>
        <r>  0.0000  0.0002  0.0000 </r>
        <r>  0.0019  0.0030  0.0000 </r>
        <r>  0.0005  0.0061  0.0000 </r>
        <r>  0.0020  0.0030  0.0000 </r>
        <r>  0.0020  0.0000  0.0000 </r>
        <r>  0.0002  0.0070  0.0000 </r>
        <r>  0.0003  0.0070  0.0000 </r>
        <r>  0.0005  0.0025  0.0000 </r>
        <r>  0.0009  0.0038  0.0000 </r>
        <r>  0.0003  0.0070  0.0000 </r>
        <r>  0.0005  0.0025  0.0000 </r>
        <r>  0.0002  0.0070  0.0000 </r>
        <r>  0.0008  0.0032  0.0000 </r>
        <r>  0.0003  0.0070  0.0000 </r>
        <r>  0.0009  0.0037  0.0000 </r>
        <r>  0.0005  0.0026  0.0000 </r>
        <r>  0.0010  0.0038  0.0000 </r>
        <r>  0.0010  0.0037  0.0000 </r>
        <r>  0.0001  0.0068  0.0000 </r>
        <r>  0.0003  0.0070  0.0000 </r>
        <r>  0.0037  0.0000  0.0000 </r>
        <r>  0.0001  0.0067  0.0000 </r>
        <r>  0.0002  0.0070  0.0000 </r>
        <r>  0.0005  0.0026  0.0000 </r>
        <r>  0.0008  0.0031  0.0000 </r>
        <r>  0.0003  0.0070  0.0000 </r>
        <r>  0.0001  0.0067  0.0000 </r>
        <r>  0.0036  0.0000  0.0000 </r>
        <r>  0.0008  0.0032  0.0000 </r>
        <r>  0.0001  0.0067  0.0000 </r>
        <r>  0.0008  0.0031  0.0000 </r>
       </set>
      </set>
     </set>
    </set>
   </array>
  </projected>
 </calculation>
 <structure name="finalpos" >
  <crystal>
   <varray name="basis" >
    <v>       9.97646553       0.00000000       5.75991507 </v>
    <v>       3.32548851       9.40590192       5.75991507 </v>
    <v>       0.00000000       0.00000000      11.51983014 </v>
   </varray>
   <i name="volume">   1080.99386112 </i>
   <varray name="rec_basis" >
    <v>       0.10023590      -0.03543874       0.00000000 </v>
    <v>       0.00000000       0.10631623       0.00000000 </v>
    <v>      -0.05011795      -0.03543874       0.08680684 </v>
   </varray>
  </crystal>
  <varray name="positions" >
   <v>       0.29166667       0.29166667       0.29166667 </v>
   <v>       0.29074323       0.29074323       0.62591279 </v>
   <v>       0.29074323       0.29074323       0.95926742 </v>
   <v>       0.29074323       0.62591279       0.29074323 </v>
   <v>       0.29124384       0.62514094       0.62514094 </v>
   <v>       0.29074323       0.62591279       0.95926742 </v>
   <v>       0.29074323       0.95926742       0.29074323 </v>
   <v>       0.29074323       0.95926742       0.62591279 </v>
   <v>       0.29142366       0.95841434       0.95841434 </v>
   <v>       0.62591279       0.29074323       0.29074323 </v>
   <v>       0.62514094       0.29124384       0.62514094 </v>
   <v>       0.62591279       0.29074323       0.95926742 </v>
   <v>       0.62514094       0.62514094       0.29124384 </v>
   <v>       0.62514094       0.62514094       0.62514094 </v>
   <v>       0.62508611       0.62508611       0.95824722 </v>
   <v>       0.62591279       0.95926742       0.29074323 </v>
   <v>       0.62508611       0.95824722       0.62508611 </v>
   <v>       0.62508611       0.95824722       0.95824722 </v>
   <v>       0.95926742       0.29074323       0.29074323 </v>
   <v>       0.95926742       0.29074323       0.62591279 </v>
   <v>       0.95841434       0.29142366       0.95841434 </v>
   <v>       0.95926742       0.62591279       0.29074323 </v>
   <v>       0.95824722       0.62508611       0.62508611 </v>
   <v>       0.95824722       0.62508611       0.95824722 </v>
   <v>       0.95841434       0.95841434       0.29142366 </v>
   <v>       0.95824722       0.95824722       0.62508611 </v>
   <v>       0.95841434       0.95841434       0.95841434 </v>
   <v>       0.04166667       0.04166667       0.04166667 </v>
   <v>       0.04131762       0.04131762       0.37543351 </v>
   <v>       0.04131762       0.04131762       0.70859793 </v>
   <v>       0.04131762       0.37543351       0.04131762 </v>
   <v>       0.04214799       0.37483956       0.37483956 </v>
   <v>       0.04131762       0.37543351       0.70859793 </v>
   <v>       0.04131762       0.70859793       0.04131762 </v>
   <v>       0.04131762       0.70859793       0.37543351 </v>
   <v>       0.04160588       0.70835360       0.70835360 </v>
   <v>       0.37543351       0.04131762       0.04131762 </v>
   <v>       0.37483956       0.04214799       0.37483956 </v>
   <v>       0.37543351       0.04131762       0.70859793 </v>
   <v>       0.37483956       0.37483956       0.04214799 </v>
   <v>       0.37483956       0.37483956       0.37483956 </v>
   <v>       0.37565099       0.37565099       0.70768234 </v>
   <v>       0.37543351       0.70859793       0.04131762 </v>
   <v>       0.37565099       0.70768234       0.37565099 </v>
   <v>       0.37565099       0.70768234       0.70768234 </v>
   <v>       0.70859793       0.04131762       0.04131762 </v>
   <v>       0.70859793       0.04131762       0.37543351 </v>
   <v>       0.70835360       0.04160588       0.70835360 </v>
   <v>       0.70859793       0.37543351       0.04131762 </v>
   <v>       0.70768234       0.37565099       0.37565099 </v>
   <v>       0.70768234       0.37565099       0.70768234 </v>
   <v>       0.70835360       0.70835360       0.04160588 </v>
   <v>       0.70768234       0.70768234       0.37565099 </v>
   <v>       0.70835360       0.70835360       0.70835360 </v>
  </varray>
 </structure>
</modeling>
