 vasp.6.3.0 20Jan22 (build Mar 07 2022 09:35:52) complex                        
  
 executed on             LinuxIFC date 2025.09.11  13:30:46
 running on   64 total cores
 distrk:  each k-point on   64 cores,    1 groups
 distr:  one band on NCORE=   1 cores,   64 groups


--------------------------------------------------------------------------------------------------------


 INCAR:
   ALGO = Normal
   AMIX = 0.2
   EDIFF = 1e-05
   EDIFFG = -0.05
   ENCUT = 550
   IBRION = 2
   ISIF = 2
   ISMEAR = 0
   ISPIN = 1
   ISYM = 2
   LCHARG = .FALSE.
   LORBIT = 11
   LREAL = .FALSE.
   LVTOT = True
   LWAVE = .FALSE.
   NELECT = 390.0
   NELM = 200
   NSW = 100
   SIGMA = 0.05
   SYSTEM = SiO2

 POTCAR:    PAW_PBE Si 05Jan2001                  
 POTCAR:    PAW_PBE O 08Apr2002                   
 WARNING: For LVTOT=.TRUE., VASP.5.x writes the TOTAL local potential to the
     file LOCPOT. If you want only the Hartree contributions, use LVHAR=.TRUE.
     instead. 

 -----------------------------------------------------------------------------
|                                                                             |
|           W    W    AA    RRRRR   N    N  II  N    N   GGGG   !!!           |
|           W    W   A  A   R    R  NN   N  II  NN   N  G    G  !!!           |
|           W    W  A    A  R    R  N N  N  II  N N  N  G       !!!           |
|           W WW W  AAAAAA  RRRRR   N  N N  II  N  N N  G  GGG   !            |
|           WW  WW  A    A  R   R   N   NN  II  N   NN  G    G                |
|           W    W  A    A  R    R  N    N  II  N    N   GGGG   !!!           |
|                                                                             |
|     For optimal performance we recommend to set                             |
|       NCORE = 2 up to number-of-cores-per-socket                            |
|     NCORE specifies how many cores store one orbital (NPAR=cpu/NCORE).      |
|     This setting can greatly improve the performance of VASP for DFT.       |
|     The default, NCORE=1 might be grossly inefficient on modern             |
|     multi-core architectures or massively parallel machines. Do your        |
|     own testing! More info at https://www.vasp.at/wiki/index.php/NCORE      |
|     Unfortunately you need to use the default for GW and RPA                |
|     calculations (for HF NCORE is supported but not extensively tested      |
|     yet).                                                                   |
|                                                                             |
 -----------------------------------------------------------------------------

 POTCAR:    PAW_PBE Si 05Jan2001                  
   VRHFIN =Si: s2p2                                                                                 
   LEXCH  = PE                                                                                      
   EATOM  =   103.0669 eV,    7.5752 Ry                                                             
                                                                                                    
   TITEL  = PAW_PBE Si 05Jan2001                                                                    
   LULTRA =        F    use ultrasoft PP ?                                                          
   IUNSCR =        1    unscreen: 0-lin 1-nonlin 2-no                                               
   RPACOR =    1.500    partial core radius                                                         
   POMASS =   28.085; ZVAL   =    4.000    mass and valenz                                          
   RCORE  =    1.900    outmost cutoff radius                                                       
   RWIGS  =    2.480; RWIGS  =    1.312    wigner-seitz radius (au A)                               
   ENMAX  =  245.345; ENMIN  =  184.009 eV                                                          
   ICORE  =        2    local potential                                                             
   LCOR   =        T    correct aug charges                                                         
   LPAW   =        T    paw PP                                                                      
   EAUG   =  322.069                                                                                
   DEXC   =    0.000                                                                                
   RMAX   =    1.950    core radius for proj-oper                                                   
   RAUG   =    1.300    factor for augmentation sphere                                              
   RDEP   =    1.993    radius for radial grids                                                     
   RDEPT  =    1.837    core radius for aug-charge                                                  
                                                                                                    
   Atomic configuration                                                                             
    6 entries                                                                                       
     n  l   j            E        occ.                                                              
     1  0  0.50     -1785.8828   2.0000                                                             
     2  0  0.50      -139.4969   2.0000                                                             
     2  1  1.50       -95.5546   6.0000                                                             
     3  0  0.50       -10.8127   2.0000                                                             
     3  1  0.50        -4.0811   2.0000                                                             
     3  2  1.50        -4.0817   0.0000                                                             
   Description                                                                                      
     l       E           TYP  RCUT    TYP  RCUT                                                     
     0    -10.8127223     23  1.900                                                                 
     0     -7.6451159     23  1.900                                                                 
     1     -4.0811372     23  1.900                                                                 
     1      2.4879257     23  1.900                                                                 
     2     -4.0817478      7  1.900                                                                 
  local pseudopotential read in
  partial core-charges read in
  partial kinetic energy density read in
  atomic valenz-charges read in
  non local Contribution for L=           0  read in
    real space projection operators read in
  non local Contribution for L=           0  read in
    real space projection operators read in
  non local Contribution for L=           1  read in
    real space projection operators read in
  non local Contribution for L=           1  read in
    real space projection operators read in
    PAW grid and wavefunctions read in
 
   number of l-projection  operators is LMAX  =           4
   number of lm-projection operators is LMMAX =           8
 
 POTCAR:    PAW_PBE O 08Apr2002                   
   VRHFIN =O: s2p4                                                                                  
   LEXCH  = PE                                                                                      
   EATOM  =   432.3788 eV,   31.7789 Ry                                                             
                                                                                                    
   TITEL  = PAW_PBE O 08Apr2002                                                                     
   LULTRA =        F    use ultrasoft PP ?                                                          
   IUNSCR =        1    unscreen: 0-lin 1-nonlin 2-no                                               
   RPACOR =    1.200    partial core radius                                                         
   POMASS =   16.000; ZVAL   =    6.000    mass and valenz                                          
   RCORE  =    1.520    outmost cutoff radius                                                       
   RWIGS  =    1.550; RWIGS  =    0.820    wigner-seitz radius (au A)                               
   ENMAX  =  400.000; ENMIN  =  300.000 eV                                                          
   ICORE  =        2    local potential                                                             
   LCOR   =        T    correct aug charges                                                         
   LPAW   =        T    paw PP                                                                      
   EAUG   =  605.392                                                                                
   DEXC   =    0.000                                                                                
   RMAX   =    1.553    core radius for proj-oper                                                   
   RAUG   =    1.300    factor for augmentation sphere                                              
   RDEP   =    1.550    radius for radial grids                                                     
   RDEPT  =    1.329    core radius for aug-charge                                                  
                                                                                                    
   Atomic configuration                                                                             
    4 entries                                                                                       
     n  l   j            E        occ.                                                              
     1  0  0.50      -514.6923   2.0000                                                             
     2  0  0.50       -23.9615   2.0000                                                             
     2  1  0.50        -9.0305   4.0000                                                             
     3  2  1.50        -9.5241   0.0000                                                             
   Description                                                                                      
     l       E           TYP  RCUT    TYP  RCUT                                                     
     0    -23.9615318     23  1.200                                                                 
     0     -9.5240782     23  1.200                                                                 
     1     -9.0304911     23  1.520                                                                 
     1      8.1634956     23  1.520                                                                 
     2     -9.5240782      7  1.500                                                                 
  local pseudopotential read in
  partial core-charges read in
  partial kinetic energy density read in
  kinetic energy density of atom read in
  atomic valenz-charges read in
  non local Contribution for L=           0  read in
    real space projection operators read in
  non local Contribution for L=           0  read in
    real space projection operators read in
  non local Contribution for L=           1  read in
    real space projection operators read in
  non local Contribution for L=           1  read in
    real space projection operators read in
    PAW grid and wavefunctions read in
 
   number of l-projection  operators is LMAX  =           4
   number of lm-projection operators is LMMAX =           8
 
 -----------------------------------------------------------------------------
|                                                                             |
|               ----> ADVICE to this user running VASP <----                  |
|                                                                             |
|     You have a (more or less) 'large supercell' and for larger cells it     |
|     might be more efficient to use real-space projection operators.         |
|     Therefore, try LREAL= Auto in the INCAR file.                           |
|     Mind: For very accurate calculation, you might also keep the            |
|     reciprocal projection scheme (i.e. LREAL=.FALSE.).                      |
|                                                                             |
 -----------------------------------------------------------------------------

  PAW_PBE Si 05Jan2001                  :
 energy of atom  1       EATOM= -103.0669
 kinetic energy error for atom=    0.0004 (will be added to EATOM!!)
  PAW_PBE O 08Apr2002                   :
 energy of atom  2       EATOM= -432.3788
 kinetic energy error for atom=    0.0194 (will be added to EATOM!!)
 
 
 POSCAR: Si24 O49
  positions in direct lattice
  velocities in cartesian coordinates
 exchange correlation table for  LEXCH =        8
   RHO(1)=    0.500       N(1)  =     2000
   RHO(2)=  100.500       N(2)  =     4000

 VTST: version 4.2, (08/11/21)

 CHAIN: initializing optimizer
 
 OPT: Using VASP Conjugate-Gradient optimizer
 CHAIN: Read ICHAIN            0
 
 POSCAR: Si24 O49
  positions in direct lattice
  velocities in cartesian coordinates
 


--------------------------------------------------------------------------------------------------------


 ion  position               nearest neighbor table
   1  0.266  0.266  0.000-  66 1.61  33 1.61  49 1.62  26 1.62  14 3.06  19 3.06  17 3.06  10 3.06

   2  0.266  0.266  0.500-  65 1.61  34 1.61  50 1.62  25 1.62  13 3.06  20 3.06  18 3.06   9 3.06

   3  0.266  0.766  0.000-  68 1.61  35 1.61  51 1.62  28 1.62  16 3.06  17 3.06  12 3.06  19 3.06

   4  0.266  0.766  0.500-  67 1.61  36 1.61  52 1.62  27 1.62  15 3.06  18 3.06  11 3.06  20 3.06

   5  0.766  0.266  0.000-  70 1.61  37 1.61  53 1.62  30 1.62  10 3.06  23 3.06  21 3.06  14 3.06

   6  0.766  0.266  0.500-  69 1.61  38 1.61  54 1.62  29 1.62   9 3.06  24 3.06  22 3.06  13 3.06

   7  0.766  0.766  0.000-  72 1.61  39 1.61  55 1.62  32 1.62  73 2.52  21 3.06  12 3.06  23 3.06
                            16 3.06
   8  0.766  0.766  0.500-  71 1.61  40 1.61  56 1.62  31 1.62  11 3.06  22 3.06  15 3.06  24 3.06

   9  0.000  0.234  0.333-  25 1.61  61 1.61  41 1.62  69 1.62   6 3.06   2 3.06  19 3.06  21 3.06

  10  0.000  0.234  0.833-  26 1.61  62 1.61  42 1.62  70 1.62   5 3.06   1 3.06  20 3.06  22 3.06

  11  0.000  0.734  0.333-  27 1.61  63 1.61  43 1.62  71 1.62   8 3.06   4 3.06  17 3.06  23 3.06

  12  0.000  0.734  0.833-  28 1.61  64 1.61  44 1.62  72 1.62   7 3.06   3 3.06  18 3.06  24 3.06

  13  0.500  0.234  0.333-  29 1.61  57 1.61  45 1.62  65 1.62   2 3.06   6 3.06  17 3.06  23 3.06

  14  0.500  0.234  0.833-  30 1.61  58 1.61  46 1.62  66 1.62   1 3.06   5 3.06  18 3.06  24 3.06

  15  0.500  0.734  0.333-  31 1.61  59 1.61  47 1.62  67 1.62   4 3.06   8 3.06  19 3.06  21 3.06

  16  0.500  0.734  0.833-  32 1.61  60 1.61  48 1.62  68 1.62   3 3.06   7 3.06  20 3.06  22 3.06

  17  0.234  0.000  0.167-  49 1.61  43 1.61  35 1.62  57 1.62   3 3.06   1 3.06  11 3.06  13 3.06

  18  0.234  0.000  0.667-  50 1.61  44 1.61  36 1.62  58 1.62   4 3.06   2 3.06  12 3.06  14 3.06

  19  0.234  0.500  0.167-  51 1.61  41 1.61  33 1.62  59 1.62  73 2.52   1 3.06   3 3.06  15 3.06
                             9 3.06
  20  0.234  0.500  0.667-  52 1.61  42 1.61  34 1.62  60 1.62   2 3.06   4 3.06  10 3.06  16 3.06

  21  0.734  0.000  0.167-  53 1.61  47 1.61  39 1.62  61 1.62   7 3.06   5 3.06   9 3.06  15 3.06

  22  0.734  0.000  0.667-  54 1.61  48 1.61  40 1.62  62 1.62   8 3.06   6 3.06  10 3.06  16 3.06

  23  0.734  0.500  0.167-  55 1.61  45 1.61  37 1.62  63 1.62   5 3.06   7 3.06  11 3.06  13 3.06

  24  0.734  0.500  0.667-  56 1.61  46 1.61  38 1.62  64 1.62   6 3.06   8 3.06  12 3.06  14 3.06

  25  0.135  0.207  0.392-   9 1.61   2 1.62
  26  0.135  0.207  0.892-  10 1.61   1 1.62
  27  0.135  0.707  0.392-  11 1.61   4 1.62
  28  0.135  0.707  0.892-  12 1.61   3 1.62
  29  0.635  0.207  0.392-  13 1.61   6 1.62
  30  0.635  0.207  0.892-  14 1.61   5 1.62
  31  0.635  0.707  0.392-  15 1.61   8 1.62
  32  0.635  0.707  0.892-  16 1.61   7 1.62
  33  0.293  0.428  0.059-   1 1.61  19 1.62
  34  0.293  0.428  0.559-   2 1.61  20 1.62
  35  0.293  0.928  0.059-   3 1.61  17 1.62
  36  0.293  0.928  0.559-   4 1.61  18 1.62
  37  0.793  0.428  0.059-   5 1.61  23 1.62
  38  0.793  0.428  0.559-   6 1.61  24 1.62
  39  0.793  0.928  0.059-   7 1.61  21 1.62
  40  0.793  0.928  0.559-   8 1.61  22 1.62
  41  0.072  0.365  0.226-  19 1.61   9 1.62
  42  0.072  0.365  0.726-  20 1.61  10 1.62
  43  0.072  0.865  0.226-  17 1.61  11 1.62
  44  0.072  0.865  0.726-  18 1.61  12 1.62
  45  0.572  0.365  0.226-  23 1.61  13 1.62
  46  0.572  0.365  0.726-  24 1.61  14 1.62
  47  0.572  0.865  0.226-  21 1.61  15 1.62
  48  0.572  0.865  0.726-  22 1.61  16 1.62
  49  0.207  0.135  0.108-  17 1.61   1 1.62
  50  0.207  0.135  0.608-  18 1.61   2 1.62
  51  0.207  0.635  0.108-  19 1.61   3 1.62
  52  0.207  0.635  0.608-  20 1.61   4 1.62
  53  0.707  0.135  0.108-  21 1.61   5 1.62
  54  0.707  0.135  0.608-  22 1.61   6 1.62
  55  0.707  0.635  0.108-  23 1.61   7 1.62
  56  0.707  0.635  0.608-  24 1.61   8 1.62
  57  0.365  0.072  0.274-  13 1.61  17 1.62
  58  0.365  0.072  0.774-  14 1.61  18 1.62
  59  0.365  0.572  0.274-  15 1.61  19 1.62
  60  0.365  0.572  0.774-  16 1.61  20 1.62
  61  0.865  0.072  0.274-   9 1.61  21 1.62
  62  0.865  0.072  0.774-  10 1.61  22 1.62
  63  0.865  0.572  0.274-  11 1.61  23 1.62
  64  0.865  0.572  0.774-  12 1.61  24 1.62
  65  0.428  0.293  0.441-   2 1.61  13 1.62
  66  0.428  0.293  0.941-   1 1.61  14 1.62
  67  0.428  0.793  0.441-   4 1.61  15 1.62
  68  0.428  0.793  0.941-   3 1.61  16 1.62
  69  0.928  0.293  0.441-   6 1.61   9 1.62
  70  0.928  0.293  0.941-   5 1.61  10 1.62
  71  0.928  0.793  0.441-   8 1.61  11 1.62
  72  0.928  0.793  0.941-   7 1.61  12 1.62
  73  0.500  0.697  0.083-  19 2.52   7 2.52
 
  LATTYP: Found a hexagonal cell.
 ALAT       =     9.8299323535
 C/A-ratio  =     1.1050536148
  
  Lattice vectors:
  
 A1 = (   4.9149661767,  -8.5129711356,   0.0000000000)
 A2 = (   4.9149661767,   8.5129711356,   0.0000000000)
 A3 = (   0.0000000000,   0.0000000000,  10.8626022800)


Analysis of symmetry for initial positions (statically):
=====================================================================
 Subroutine PRICEL returns:
 Original cell was already a primitive cell.
 

 Routine SETGRP: Setting up the symmetry group for a 
 hexagonal supercell.


 Subroutine GETGRP returns: Found  2 space group operations
 (whereof  1 operations were pure point group operations)
 out of a pool of 24 trial point group operations.


The static configuration has the point symmetry C_1 .
 The point group associated with its full space group is C_2 .


Analysis of symmetry for dynamics (positions and initial velocities):
=====================================================================
 Subroutine PRICEL returns:
 Original cell was already a primitive cell.
 

 Routine SETGRP: Setting up the symmetry group for a 
 hexagonal supercell.


 Subroutine GETGRP returns: Found  2 space group operations
 (whereof  1 operations were pure point group operations)
 out of a pool of 24 trial point group operations.


The dynamic configuration has the point symmetry C_1 .
 The point group associated with its full space group is C_2 .


 Subroutine INISYM returns: Found  2 space group operations
 (whereof  1 operations are pure point group operations),
 and found     1 'primitive' translations


----------------------------------------------------------------------------------------

                                     Primitive cell                                     

  volume of cell :     909.0035

  direct lattice vectors                    reciprocal lattice vectors
     4.914966177 -8.512971136  0.000000000     0.101730100 -0.058733901  0.000000000
     4.914966177  8.512971136  0.000000000     0.101730100  0.058733901  0.000000000
     0.000000000  0.000000000 10.862602280     0.000000000  0.000000000  0.092058972

  length of vectors
     9.829932353  9.829932353 10.862602280     0.117467801  0.117467801  0.092058972

  position of ions in fractional coordinates (direct lattice)
     0.265544295  0.265544295  0.000000000
     0.265544295  0.265544295  0.500000000
     0.265544295  0.765544295  0.000000000
     0.265544295  0.765544295  0.500000000
     0.765544295  0.265544295  0.000000000
     0.765544295  0.265544295  0.500000000
     0.765544295  0.765544295  0.000000000
     0.765544295  0.765544295  0.500000000
     1.000000000  0.234455705  0.333333333
     1.000000000  0.234455705  0.833333333
     1.000000000  0.734455705  0.333333333
     1.000000000  0.734455705  0.833333333
     0.500000000  0.234455705  0.333333333
     0.500000000  0.234455705  0.833333333
     0.500000000  0.734455705  0.333333333
     0.500000000  0.734455705  0.833333333
     0.234455705  1.000000000  0.166666667
     0.234455705  1.000000000  0.666666667
     0.234455705  0.500000000  0.166666667
     0.234455705  0.500000000  0.666666667
     0.734455705  1.000000000  0.166666667
     0.734455705  1.000000000  0.666666667
     0.734455705  0.500000000  0.166666667
     0.734455705  0.500000000  0.666666667
     0.134611555  0.206697145  0.392445490
     0.134611555  0.206697145  0.892445490
     0.134611555  0.706697145  0.392445490
     0.134611555  0.706697145  0.892445490
     0.634611555  0.206697145  0.392445490
     0.634611555  0.206697145  0.892445490
     0.634611555  0.706697145  0.392445490
     0.634611555  0.706697145  0.892445490
     0.293302855  0.427914410  0.059112157
     0.293302855  0.427914410  0.559112157
     0.293302855  0.927914410  0.059112157
     0.293302855  0.927914410  0.559112157
     0.793302855  0.427914410  0.059112157
     0.793302855  0.427914410  0.559112157
     0.793302855  0.927914410  0.059112157
     0.793302855  0.927914410  0.559112157
     0.072085590  0.365388445  0.225778823
     0.072085590  0.365388445  0.725778823
     0.072085590  0.865388445  0.225778823
     0.072085590  0.865388445  0.725778823
     0.572085590  0.365388445  0.225778823
     0.572085590  0.365388445  0.725778823
     0.572085590  0.865388445  0.225778823
     0.572085590  0.865388445  0.725778823
     0.206697145  0.134611555  0.107554510
     0.206697145  0.134611555  0.607554510
     0.206697145  0.634611555  0.107554510
     0.206697145  0.634611555  0.607554510
     0.706697145  0.134611555  0.107554510
     0.706697145  0.134611555  0.607554510
     0.706697145  0.634611555  0.107554510
     0.706697145  0.634611555  0.607554510
     0.365388445  0.072085590  0.274221177
     0.365388445  0.072085590  0.774221177
     0.365388445  0.572085590  0.274221177
     0.365388445  0.572085590  0.774221177
     0.865388445  0.072085590  0.274221177
     0.865388445  0.072085590  0.774221177
     0.865388445  0.572085590  0.274221177
     0.865388445  0.572085590  0.774221177
     0.427914410  0.293302855  0.440887843
     0.427914410  0.293302855  0.940887843
     0.427914410  0.793302855  0.440887843
     0.427914410  0.793302855  0.940887843
     0.927914410  0.293302855  0.440887843
     0.927914410  0.293302855  0.940887843
     0.927914410  0.793302855  0.440887843
     0.927914410  0.793302855  0.940887843
     0.500000000  0.696834352  0.083333333

  ion indices of the primitive-cell ions
   primitive index   ion index
                 1           1
                 2           2
                 3           3
                 4           4
                 5           5
                 6           6
                 7           7
                 8           8
                 9           9
                10          10
                11          11
                12          12
                13          13
                14          14
                15          15
                16          16
                17          17
                18          18
                19          19
                20          20
                21          21
                22          22
                23          23
                24          24
                25          25
                26          26
                27          27
                28          28
                29          29
                30          30
                31          31
                32          32
                33          33
                34          34
                35          35
                36          36
                37          37
                38          38
                39          39
                40          40
                41          41
                42          42
                43          43
                44          44
                45          45
                46          46
                47          47
                48          48
                49          49
                50          50
                51          51
                52          52
                53          53
                54          54
                55          55
                56          56
                57          57
                58          58
                59          59
                60          60
                61          61
                62          62
                63          63
                64          64
                65          65
                66          66
                67          67
                68          68
                69          69
                70          70
                71          71
                72          72
                73          73

----------------------------------------------------------------------------------------

 
 
 KPOINTS: pymatgen with grid density = 1000 / numb

Automatic generation of k-mesh.
 Grid dimensions read from file:
 generate k-points for:    2    2    2

 Generating k-lattice:

  Cartesian coordinates                     Fractional coordinates (reciprocal lattice)
     0.050865050 -0.029366950  0.000000000     0.500000000 -0.000000000  0.000000000
     0.050865050  0.029366950  0.000000000    -0.000000000  0.500000000  0.000000000
     0.000000000  0.000000000  0.046029486     0.000000000  0.000000000  0.500000000

  Length of vectors
     0.058733901  0.058733901  0.046029486

  Shift w.r.t. Gamma in fractional coordinates (k-lattice)
     0.000000000  0.000000000  0.000000000

 
 Subroutine IBZKPT returns following result:
 ===========================================
 
 Found      6 irreducible k-points:
 
 Following reciprocal coordinates:
            Coordinates               Weight
  0.000000  0.000000  0.000000      1.000000
  0.500000  0.000000  0.000000      1.000000
  0.000000  0.500000  0.000000      2.000000
  0.000000  0.000000  0.500000      1.000000
  0.500000  0.000000  0.500000      1.000000
  0.000000  0.500000  0.500000      2.000000
 
 Following cartesian coordinates:
            Coordinates               Weight
  0.000000  0.000000  0.000000      1.000000
  0.050865 -0.029367  0.000000      1.000000
  0.050865  0.029367  0.000000      2.000000
  0.000000  0.000000  0.046029      1.000000
  0.050865 -0.029367  0.046029      1.000000
  0.050865  0.029367  0.046029      2.000000
 


--------------------------------------------------------------------------------------------------------




 Dimension of arrays:
   k-points           NKPTS =      6   k-points in BZ     NKDIM =      6   number of bands    NBANDS=    256
   number of dos      NEDOS =    301   number of ions     NIONS =     73
   non local maximal  LDIM  =      4   non local SUM 2l+1 LMDIM =      8
   total plane-waves  NPLWV = 200704
   max r-space proj   IRMAX =      1   max aug-charges    IRDMAX=   7581
   dimension x,y,z NGX =    56 NGY =   56 NGZ =   64
   dimension x,y,z NGXF=   112 NGYF=  112 NGZF=  128
   support grid    NGXF=   112 NGYF=  112 NGZF=  128
   ions per type =              24  49
   NGX,Y,Z   is equivalent  to a cutoff of   9.47,  9.47,  9.79 a.u.
   NGXF,Y,Z  is equivalent  to a cutoff of  18.94, 18.94, 19.59 a.u.

 SYSTEM =  SiO2                                    
 POSCAR =  Si24 O49                                

 Startparameter for this run:
   NWRITE =      2    write-flag & timer
   PREC   = normal    normal or accurate (medium, high low for compatibility)
   ISTART =      0    job   : 0-new  1-cont  2-samecut
   ICHARG =      2    charge: 1-file 2-atom 10-const
   ISPIN  =      1    spin polarized calculation?
   LNONCOLLINEAR =      F non collinear calculations
   LSORBIT =      F    spin-orbit coupling
   INIWAV =      1    electr: 0-lowe 1-rand  2-diag
   LASPH  =      F    aspherical Exc in radial PAW
 Electronic Relaxation 1
   ENCUT  =  550.0 eV  40.42 Ry    6.36 a.u.  18.80 18.80 20.77*2*pi/ulx,y,z
   ENINI  =  550.0     initial cutoff
   ENAUG  =  605.4 eV  augmentation charge cutoff
   NELM   =    200;   NELMIN=  2; NELMDL= -5     # of ELM steps 
   EDIFF  = 0.1E-04   stopping-criterion for ELM
   LREAL  =      F    real-space projection
   NLSPLINE    = F    spline interpolate recip. space projectors
   LCOMPAT=      F    compatible to vasp.4.4
   GGA_COMPAT  = T    GGA compatible to vasp.4.4-vasp.4.6
   LMAXPAW     = -100 max onsite density
   LMAXMIX     =    2 max onsite mixed and CHGCAR
   VOSKOWN=      0    Vosko Wilk Nusair interpolation
   ROPT   =    0.00000   0.00000
 Ionic relaxation
   EDIFFG = -.5E-01   stopping-criterion for IOM
   NSW    =    100    number of steps for IOM
   NBLOCK =      1;   KBLOCK =    100    inner block; outer block 
   IBRION =      2    ionic relax: 0-MD 1-quasi-New 2-CG
   NFREE  =      1    steps in history (QN), initial steepest desc. (CG)
   ISIF   =      2    stress and relaxation
   IWAVPR =     11    prediction:  0-non 1-charg 2-wave 3-comb
   ISYM   =      2    0-nonsym 1-usesym 2-fastsym
   LCORR  =      T    Harris-Foulkes like correction to forces

   POTIM  = 0.5000    time-step for ionic-motion
   TEIN   =    0.0    initial temperature
   TEBEG  =    0.0;   TEEND  =   0.0 temperature during run
   SMASS  =  -3.00    Nose mass-parameter (am)
   estimated Nose-frequenzy (Omega)   =  0.10E-29 period in steps = 0.13E+47 mass=  -0.221E-26a.u.
   SCALEE = 1.0000    scale energy and forces
   NPACO  =    256;   APACO  = 10.0  distance and # of slots for P.C.
   PSTRESS=    0.0 pullay stress

  Mass of Ions in am
   POMASS =  28.09 16.00
  Ionic Valenz
   ZVAL   =   4.00  6.00
  Atomic Wigner-Seitz radii
   RWIGS  =  -1.00 -1.00
  virtual crystal weights 
   VCA    =   1.00  1.00
   NELECT =     390.0000    total number of electrons
   NUPDOWN=      -1.0000    fix difference up-down

 DOS related values:
   EMIN   =  10.00;   EMAX   =-10.00  energy-range for DOS
   EFERMI =   0.00
   ISMEAR =     0;   SIGMA  =   0.05  broadening in eV -4-tet -1-fermi 0-gaus

 Electronic relaxation 2 (details)
   IALGO  =     38    algorithm
   LDIAG  =      T    sub-space diagonalisation (order eigenvalues)
   LSUBROT=      F    optimize rotation matrix (better conditioning)
   TURBO    =      0    0=normal 1=particle mesh
   IRESTART =      0    0=no restart 2=restart with 2 vectors
   NREBOOT  =      0    no. of reboots
   NMIN     =      0    reboot dimension
   EREF     =   0.00    reference energy to select bands
   IMIX   =      4    mixing-type and parameters
     AMIX     =   0.20;   BMIX     =  1.00
     AMIX_MAG =   0.80;   BMIX_MAG =  1.00
     AMIN     =   0.10
     WC   =   100.;   INIMIX=   1;  MIXPRE=   1;  MAXMIX= -45

 Intra band minimization:
   WEIMIN = 0.0010     energy-eigenvalue tresh-hold
   EBREAK =  0.98E-08  absolut break condition
   DEPER  =   0.30     relativ break condition  

   TIME   =   0.40     timestep for ELM

  volume/ion in A,a.u.               =      12.45        84.03
  Fermi-wavevector in a.u.,A,eV,Ry     =   1.234737  2.333315 20.743113  1.524576
  Thomas-Fermi vector in A             =   2.369415
 
 Write flags
   LWAVE        =      F    write WAVECAR
   LDOWNSAMPLE  =      F    k-point downsampling of WAVECAR
   LCHARG       =      F    write CHGCAR
   LVTOT        =      T    write LOCPOT, total local potential
   LVHAR        =      F    write LOCPOT, Hartree potential only
   LELF         =      F    write electronic localiz. function (ELF)
   LORBIT       =     11    0 simple, 1 ext, 2 COOP (PROOUT), +10 PAW based schemes


 Dipole corrections
   LMONO  =      F    monopole corrections only (constant potential shift)
   LDIPOL =      F    correct potential (dipole corrections)
   IDIPOL =      0    1-x, 2-y, 3-z, 4-all directions 
   EPSILON=  1.0000000 bulk dielectric constant

 Exchange correlation treatment:
   GGA     =    --    GGA type
   LEXCH   =     8    internal setting for exchange type
   LIBXC   =     F    Libxc                    
   VOSKOWN =     0    Vosko Wilk Nusair interpolation
   LHFCALC =     F    Hartree Fock is set to
   LHFONE  =     F    Hartree Fock one center treatment
   AEXX    =    0.0000 exact exchange contribution

 Linear response parameters
   LEPSILON=     F    determine dielectric tensor
   LRPA    =     F    only Hartree local field effects (RPA)
   LNABLA  =     F    use nabla operator in PAW spheres
   LVEL    =     F    velocity operator in full k-point grid
   CSHIFT  =0.1000    complex shift for real part using Kramers Kronig
   OMEGAMAX=  -1.0    maximum frequency
   DEG_THRESHOLD= 0.2000000E-02 threshold for treating states as degnerate
   RTIME   =   -0.100 relaxation time in fs
  (WPLASMAI=    0.000 imaginary part of plasma frequency in eV, 0.658/RTIME)
   DFIELD  = 0.0000000 0.0000000 0.0000000 field for delta impulse in time
 
  Optional k-point grid parameters
   LKPOINTS_OPT  =     F    use optional k-point grid
   KPOINTS_OPT_MODE=     1    mode for optional k-point grid
 
 Orbital magnetization related:
   ORBITALMAG=     F  switch on orbital magnetization
   LCHIMAG   =     F  perturbation theory with respect to B field
   DQ        =  0.001000  dq finite difference perturbation B field
   LLRAUG    =     F  two centre corrections for induced B field



--------------------------------------------------------------------------------------------------------


 conjugate gradient relaxation of ions
 charge density and potential will be updated during run
 non-spin polarized calculation
 Variant of blocked Davidson
 Davidson routine will perform the subspace rotation
 perform sub-space diagonalisation
    after iterative eigenvector-optimisation
 modified Broyden-mixing scheme, WC =      100.0
 initial mixing is a Kerker type mixing with AMIX =  0.2000 and BMIX =      1.0000
 Hartree-type preconditioning will be used
 using additional bands           61
 reciprocal scheme for non local part
 use partial core corrections
 calculate Harris-corrections to forces 
   (improved forces if not selfconsistent)
 use gradient corrections 
 use of overlap-Matrix (Vanderbilt PP)
 Gauss-broadening in eV      SIGMA  =   0.05


--------------------------------------------------------------------------------------------------------


  energy-cutoff  :      550.00
  volume of cell :      909.00
      direct lattice vectors                 reciprocal lattice vectors
     4.914966177 -8.512971136  0.000000000     0.101730100 -0.058733901  0.000000000
     4.914966177  8.512971136  0.000000000     0.101730100  0.058733901  0.000000000
     0.000000000  0.000000000 10.862602280     0.000000000  0.000000000  0.092058972

  length of vectors
     9.829932353  9.829932353 10.862602280     0.117467801  0.117467801  0.092058972


 
 k-points in units of 2pi/SCALE and weight: pymatgen with grid density = 1000 / numb
   0.00000000  0.00000000  0.00000000       0.125
   0.05086505 -0.02936695  0.00000000       0.125
   0.05086505  0.02936695  0.00000000       0.250
   0.00000000  0.00000000  0.04602949       0.125
   0.05086505 -0.02936695  0.04602949       0.125
   0.05086505  0.02936695  0.04602949       0.250
 
 k-points in reciprocal lattice and weights: pymatgen with grid density = 1000 / numb
   0.00000000  0.00000000  0.00000000       0.125
   0.50000000  0.00000000  0.00000000       0.125
   0.00000000  0.50000000  0.00000000       0.250
   0.00000000  0.00000000  0.50000000       0.125
   0.50000000  0.00000000  0.50000000       0.125
   0.00000000  0.50000000  0.50000000       0.250
 
 position of ions in fractional coordinates (direct lattice) 
   0.26554429  0.26554429  0.00000000
   0.26554429  0.26554429  0.50000000
   0.26554429  0.76554429  0.00000000
   0.26554429  0.76554429  0.50000000
   0.76554429  0.26554429  0.00000000
   0.76554429  0.26554429  0.50000000
   0.76554429  0.76554429  0.00000000
   0.76554429  0.76554429  0.50000000
   0.00000000  0.23445571  0.33333333
   0.00000000  0.23445571  0.83333333
   0.00000000  0.73445571  0.33333333
   0.00000000  0.73445571  0.83333333
   0.50000000  0.23445571  0.33333333
   0.50000000  0.23445571  0.83333333
   0.50000000  0.73445571  0.33333333
   0.50000000  0.73445571  0.83333333
   0.23445571  0.00000000  0.16666667
   0.23445571  0.00000000  0.66666667
   0.23445571  0.50000000  0.16666667
   0.23445571  0.50000000  0.66666667
   0.73445571  0.00000000  0.16666667
   0.73445571  0.00000000  0.66666667
   0.73445571  0.50000000  0.16666667
   0.73445571  0.50000000  0.66666667
   0.13461155  0.20669714  0.39244549
   0.13461155  0.20669714  0.89244549
   0.13461155  0.70669714  0.39244549
   0.13461155  0.70669714  0.89244549
   0.63461155  0.20669714  0.39244549
   0.63461155  0.20669714  0.89244549
   0.63461155  0.70669714  0.39244549
   0.63461155  0.70669714  0.89244549
   0.29330286  0.42791441  0.05911216
   0.29330286  0.42791441  0.55911216
   0.29330286  0.92791441  0.05911216
   0.29330286  0.92791441  0.55911216
   0.79330286  0.42791441  0.05911216
   0.79330286  0.42791441  0.55911216
   0.79330286  0.92791441  0.05911216
   0.79330286  0.92791441  0.55911216
   0.07208559  0.36538845  0.22577882
   0.07208559  0.36538845  0.72577882
   0.07208559  0.86538845  0.22577882
   0.07208559  0.86538845  0.72577882
   0.57208559  0.36538845  0.22577882
   0.57208559  0.36538845  0.72577882
   0.57208559  0.86538845  0.22577882
   0.57208559  0.86538845  0.72577882
   0.20669714  0.13461155  0.10755451
   0.20669714  0.13461155  0.60755451
   0.20669714  0.63461155  0.10755451
   0.20669714  0.63461155  0.60755451
   0.70669714  0.13461155  0.10755451
   0.70669714  0.13461155  0.60755451
   0.70669714  0.63461155  0.10755451
   0.70669714  0.63461155  0.60755451
   0.36538845  0.07208559  0.27422118
   0.36538845  0.07208559  0.77422118
   0.36538845  0.57208559  0.27422118
   0.36538845  0.57208559  0.77422118
   0.86538845  0.07208559  0.27422118
   0.86538845  0.07208559  0.77422118
   0.86538845  0.57208559  0.27422118
   0.86538845  0.57208559  0.77422118
   0.42791441  0.29330286  0.44088784
   0.42791441  0.29330286  0.94088784
   0.42791441  0.79330286  0.44088784
   0.42791441  0.79330286  0.94088784
   0.92791441  0.29330286  0.44088784
   0.92791441  0.29330286  0.94088784
   0.92791441  0.79330286  0.44088784
   0.92791441  0.79330286  0.94088784
   0.50000000  0.69683435  0.08333333
 
 position of ions in cartesian coordinates  (Angst):
   2.61028246 -0.00000000  0.00000000
   2.61028246 -0.00000000  5.43130114
   5.06776555  4.25648557  0.00000000
   5.06776555  4.25648557  5.43130114
   5.06776555 -4.25648557  0.00000000
   5.06776555 -4.25648557  5.43130114
   7.52524863  0.00000000  0.00000000
   7.52524863  0.00000000  5.43130114
   1.15234186  1.99591465  3.62086743
   1.15234186  1.99591465  9.05216857
   3.60982495  6.25240022  3.62086743
   3.60982495  6.25240022  9.05216857
   3.60982495 -2.26057092  3.62086743
   3.60982495 -2.26057092  9.05216857
   6.06730804  1.99591465  3.62086743
   6.06730804  1.99591465  9.05216857
   1.15234186 -1.99591465  1.81043371
   1.15234186 -1.99591465  7.24173485
   3.60982495  2.26057092  1.81043371
   3.60982495  2.26057092  7.24173485
   3.60982495 -6.25240022  1.81043371
   3.60982495 -6.25240022  7.24173485
   6.06730804 -1.99591465  1.81043371
   6.06730804 -1.99591465  7.24173485
   1.67752072  0.61366255  4.26297927
   1.67752072  0.61366255  9.69428041
   4.13500380  4.87014811  4.26297927
   4.13500380  4.87014811  9.69428041
   4.13500380 -3.64282302  4.26297927
   4.13500380 -3.64282302  9.69428041
   6.59248689  0.61366255  4.26297927
   6.59248689  0.61366255  9.69428041
   3.54475846  1.14594428  0.64211185
   3.54475846  1.14594428  6.07341299
   6.00224155  5.40242985  0.64211185
   6.00224155  5.40242985  6.07341299
   6.00224155 -3.11054129  0.64211185
   6.00224155 -3.11054129  6.07341299
   8.45972464  1.14594428  0.64211185
   8.45972464  1.14594428  6.07341299
   2.15017009  2.49687874  2.45254556
   2.15017009  2.49687874  7.88384670
   4.60765317  6.75336431  2.45254556
   4.60765317  6.75336431  7.88384670
   4.60765317 -1.75960683  2.45254556
   4.60765317 -1.75960683  7.88384670
   7.06513626  2.49687874  2.45254556
   7.06513626  2.49687874  7.88384670
   1.67752072 -0.61366255  1.16832187
   1.67752072 -0.61366255  6.59962301
   4.13500380  3.64282302  1.16832187
   4.13500380  3.64282302  6.59962301
   4.13500380 -4.87014811  1.16832187
   4.13500380 -4.87014811  6.59962301
   6.59248689 -0.61366255  1.16832187
   6.59248689 -0.61366255  6.59962301
   2.15017009 -2.49687874  2.97875558
   2.15017009 -2.49687874  8.41005672
   4.60765317  1.75960683  2.97875558
   4.60765317  1.75960683  8.41005672
   4.60765317 -6.75336431  2.97875558
   4.60765317 -6.75336431  8.41005672
   7.06513626 -2.49687874  2.97875558
   7.06513626 -2.49687874  8.41005672
   3.54475846 -1.14594428  4.78918929
   3.54475846 -1.14594428 10.22049043
   6.00224155  3.11054129  4.78918929
   6.00224155  3.11054129 10.22049043
   6.00224155 -5.40242985  4.78918929
   6.00224155 -5.40242985 10.22049043
   8.45972464 -1.14594428  4.78918929
   8.45972464 -1.14594428 10.22049043
   5.88240036  1.67564515  0.90521686
 


--------------------------------------------------------------------------------------------------------


 k-point   1 :   0.0000 0.0000 0.0000  plane waves:   26579
 k-point   2 :   0.5000 0.0000 0.0000  plane waves:   26614
 k-point   3 :   0.0000 0.5000 0.0000  plane waves:   26614
 k-point   4 :   0.0000 0.0000 0.5000  plane waves:   26718
 k-point   5 :   0.5000 0.0000 0.5000  plane waves:   26636
 k-point   6 :   0.0000 0.5000 0.5000  plane waves:   26636

 maximum and minimum number of plane-waves per node :     26718    26579

 maximum number of plane-waves:     26718
 maximum index in each direction: 
   IXMAX=   18   IYMAX=   18   IZMAX=   20
   IXMIN=  -19   IYMIN=  -19   IZMIN=  -21


 serial   3D FFT for wavefunctions
 parallel 3D FFT for charge:
    minimum data exchange during FFTs selected (reduces bandwidth)


 total amount of memory used by VASP MPI-rank0   104021. kBytes
=======================================================================

   base      :      30000. kBytes
   nonl-proj :      51791. kBytes
   fftplans  :       1787. kBytes
   grid      :       9701. kBytes
   one-center:        224. kBytes
   wavefun   :      10518. kBytes
 
     INWAV:  cpu time      0.0000: real time      0.0001
 Broyden mixing: mesh for mixing (old mesh)
   NGX = 37   NGY = 37   NGZ = 41
  (NGX  =112   NGY  =112   NGZ  =128)
  gives a total of  56129 points

 initial charge density was supplied:
 charge density of overlapping atoms calculated
 number of electron     390.0000000 magnetization 
 keeping initial charge density in first step


--------------------------------------------------------------------------------------------------------


 Maximum index for augmentation-charges          412 (set IRDMAX)


--------------------------------------------------------------------------------------------------------


 First call to EWALD:  gamma=   0.183
 Maximum number of real-space cells 3x 3x 3
 Maximum number of reciprocal cells 3x 3x 3

    FEWALD:  cpu time      0.0012: real time      0.0012


--------------------------------------- Iteration      1(   1)  ---------------------------------------


    POTLOK:  cpu time      0.0194: real time      0.0199
    SETDIJ:  cpu time      0.0023: real time      0.0023
     EDDAV:  cpu time      3.1017: real time      3.1116
       DOS:  cpu time      0.0010: real time      0.0010
    --------------------------------------------
      LOOP:  cpu time      3.1245: real time      3.1349

 eigenvalue-minimisations  :  3072
 total energy-change (2. order) : 0.2351147E+04  (-0.2146688E+05)
 number of electron     390.0000000 magnetization 
 augmentation part      390.0000000 magnetization 

 Free energy of the ion-electron system (eV)
  ---------------------------------------------------
  alpha Z        PSCENC =       573.53096271
  Ewald energy   TEWEN  =    -15452.55664149
  -Hartree energ DENC   =     -7630.33392633
  -exchange      EXHF   =         0.00000000
  -V(xc)+E(xc)   XCENC  =      1159.88207255
  PAW double counting   =     19095.89555838   -18761.79165722
  entropy T*S    EENTRO =        -0.01346154
  eigenvalues    EBANDS =      -292.67300322
  atomic energy  EATOM  =     23659.20686107
  Solvation  Ediel_sol  =         0.00000000
  ---------------------------------------------------
  free energy    TOTEN  =      2351.14676492 eV

  energy without entropy =     2351.16022646  energy(sigma->0) =     2351.15349569


--------------------------------------------------------------------------------------------------------




--------------------------------------- Iteration      1(   2)  ---------------------------------------


     EDDAV:  cpu time      3.9921: real time      4.0053
       DOS:  cpu time      0.0006: real time      0.0006
    --------------------------------------------
      LOOP:  cpu time      3.9927: real time      4.0059

 eigenvalue-minimisations  :  4032
 total energy-change (2. order) :-0.2850470E+04  (-0.2788076E+04)
 number of electron     390.0000000 magnetization 
 augmentation part      390.0000000 magnetization 

 Free energy of the ion-electron system (eV)
  ---------------------------------------------------
  alpha Z        PSCENC =       573.53096271
  Ewald energy   TEWEN  =    -15452.55664149
  -Hartree energ DENC   =     -7630.33392633
  -exchange      EXHF   =         0.00000000
  -V(xc)+E(xc)   XCENC  =      1159.88207255
  PAW double counting   =     19095.89555838   -18761.79165722
  entropy T*S    EENTRO =        -0.01656336
  eigenvalues    EBANDS =     -3143.13973135
  atomic energy  EATOM  =     23659.20686107
  Solvation  Ediel_sol  =         0.00000000
  ---------------------------------------------------
  free energy    TOTEN  =      -499.32306503 eV

  energy without entropy =     -499.30650167  energy(sigma->0) =     -499.31478335


--------------------------------------------------------------------------------------------------------




--------------------------------------- Iteration      1(   3)  ---------------------------------------


     EDDAV:  cpu time      3.8356: real time      3.8482
       DOS:  cpu time      0.0006: real time      0.0006
    --------------------------------------------
      LOOP:  cpu time      3.8363: real time      3.8488

 eigenvalue-minimisations  :  3840
 total energy-change (2. order) :-0.1428557E+03  (-0.1423562E+03)
 number of electron     390.0000000 magnetization 
 augmentation part      390.0000000 magnetization 

 Free energy of the ion-electron system (eV)
  ---------------------------------------------------
  alpha Z        PSCENC =       573.53096271
  Ewald energy   TEWEN  =    -15452.55664149
  -Hartree energ DENC   =     -7630.33392633
  -exchange      EXHF   =         0.00000000
  -V(xc)+E(xc)   XCENC  =      1159.88207255
  PAW double counting   =     19095.89555838   -18761.79165722
  entropy T*S    EENTRO =        -0.00907902
  eigenvalues    EBANDS =     -3286.00292020
  atomic energy  EATOM  =     23659.20686107
  Solvation  Ediel_sol  =         0.00000000
  ---------------------------------------------------
  free energy    TOTEN  =      -642.17876955 eV

  energy without entropy =     -642.16969052  energy(sigma->0) =     -642.17423003


--------------------------------------------------------------------------------------------------------




--------------------------------------- Iteration      1(   4)  ---------------------------------------


     EDDAV:  cpu time      3.8148: real time      3.8289
       DOS:  cpu time      0.0006: real time      0.0006
    --------------------------------------------
      LOOP:  cpu time      3.8154: real time      3.8294

 eigenvalue-minimisations  :  3840
 total energy-change (2. order) :-0.1553345E+01  (-0.1551675E+01)
 number of electron     390.0000000 magnetization 
 augmentation part      390.0000000 magnetization 

 Free energy of the ion-electron system (eV)
  ---------------------------------------------------
  alpha Z        PSCENC =       573.53096271
  Ewald energy   TEWEN  =    -15452.55664149
  -Hartree energ DENC   =     -7630.33392633
  -exchange      EXHF   =         0.00000000
  -V(xc)+E(xc)   XCENC  =      1159.88207255
  PAW double counting   =     19095.89555838   -18761.79165722
  entropy T*S    EENTRO =        -0.00906345
  eigenvalues    EBANDS =     -3287.55628042
  atomic energy  EATOM  =     23659.20686107
  Solvation  Ediel_sol  =         0.00000000
  ---------------------------------------------------
  free energy    TOTEN  =      -643.73211419 eV

  energy without entropy =     -643.72305075  energy(sigma->0) =     -643.72758247


--------------------------------------------------------------------------------------------------------




--------------------------------------- Iteration      1(   5)  ---------------------------------------


     EDDAV:  cpu time      3.7789: real time      3.7933
       DOS:  cpu time      0.0007: real time      0.0008
    CHARGE:  cpu time      0.0504: real time      0.0510
    MIXING:  cpu time      0.0009: real time      0.0009
    --------------------------------------------
      LOOP:  cpu time      3.8309: real time      3.8460

 eigenvalue-minimisations  :  3712
 total energy-change (2. order) :-0.2491465E-01  (-0.2491062E-01)
 number of electron     390.0000066 magnetization 
 augmentation part       36.2281904 magnetization 

 Broyden mixing:
  rms(total) = 0.72395E+01    rms(broyden)= 0.72382E+01
  rms(prec ) = 0.83406E+01
  weight for this iteration     100.00

 Free energy of the ion-electron system (eV)
  ---------------------------------------------------
  alpha Z        PSCENC =       573.53096271
  Ewald energy   TEWEN  =    -15452.55664149
  -Hartree energ DENC   =     -7630.33392633
  -exchange      EXHF   =         0.00000000
  -V(xc)+E(xc)   XCENC  =      1159.88207255
  PAW double counting   =     19095.89555838   -18761.79165722
  entropy T*S    EENTRO =        -0.00906346
  eigenvalues    EBANDS =     -3287.58119506
  atomic energy  EATOM  =     23659.20686107
  Solvation  Ediel_sol  =         0.00000000
  ---------------------------------------------------
  free energy    TOTEN  =      -643.75702884 eV

  energy without entropy =     -643.74796539  energy(sigma->0) =     -643.75249711


--------------------------------------------------------------------------------------------------------




--------------------------------------- Iteration      1(   6)  ---------------------------------------


    POTLOK:  cpu time      0.0122: real time      0.0124
    SETDIJ:  cpu time      0.0019: real time      0.0019
     EDDAV:  cpu time      4.0882: real time      4.1021
       DOS:  cpu time      0.0009: real time      0.0009
    CHARGE:  cpu time      0.0479: real time      0.0481
    MIXING:  cpu time      0.0006: real time      0.0006
    --------------------------------------------
      LOOP:  cpu time      4.1517: real time      4.1661

 eigenvalue-minimisations  :  3840
 total energy-change (2. order) : 0.5497593E+02  (-0.7803524E+01)
 number of electron     390.0000064 magnetization 
 augmentation part       32.7960016 magnetization 

 Broyden mixing:
  rms(total) = 0.49488E+01    rms(broyden)= 0.49475E+01
  rms(prec ) = 0.54757E+01
  weight for this iteration     100.00

 eigenvalues of (default mixing * dielectric matrix)
  average eigenvalue GAMMA=   1.9781
  1.9781

 Free energy of the ion-electron system (eV)
  ---------------------------------------------------
  alpha Z        PSCENC =       573.53096271
  Ewald energy   TEWEN  =    -15452.55664149
  -Hartree energ DENC   =     -8053.05599109
  -exchange      EXHF   =         0.00000000
  -V(xc)+E(xc)   XCENC  =      1188.35476640
  PAW double counting   =     25142.09966574   -24816.50204868
  entropy T*S    EENTRO =        -0.03013795
  eigenvalues    EBANDS =     -2829.82853961
  atomic energy  EATOM  =     23659.20686107
  Solvation  Ediel_sol  =         0.00000000
  ---------------------------------------------------
  free energy    TOTEN  =      -588.78110290 eV

  energy without entropy =     -588.75096495  energy(sigma->0) =     -588.76603392


--------------------------------------------------------------------------------------------------------




--------------------------------------- Iteration      1(   7)  ---------------------------------------


    POTLOK:  cpu time      0.0118: real time      0.0121
    SETDIJ:  cpu time      0.0019: real time      0.0019
     EDDAV:  cpu time      3.9035: real time      3.9173
       DOS:  cpu time      0.0010: real time      0.0010
    CHARGE:  cpu time      0.0481: real time      0.0485
    MIXING:  cpu time      0.0006: real time      0.0006
    --------------------------------------------
      LOOP:  cpu time      3.9670: real time      3.9814

 eigenvalue-minimisations  :  3840
 total energy-change (2. order) : 0.2036017E+02  (-0.9779872E+01)
 number of electron     390.0000057 magnetization 
 augmentation part       29.0617663 magnetization 

 Broyden mixing:
  rms(total) = 0.23958E+01    rms(broyden)= 0.23933E+01
  rms(prec ) = 0.25074E+01
  weight for this iteration     100.00

 eigenvalues of (default mixing * dielectric matrix)
  average eigenvalue GAMMA=   1.6790
  0.9082  2.4498

 Free energy of the ion-electron system (eV)
  ---------------------------------------------------
  alpha Z        PSCENC =       573.53096271
  Ewald energy   TEWEN  =    -15452.55664149
  -Hartree energ DENC   =     -8540.71610334
  -exchange      EXHF   =         0.00000000
  -V(xc)+E(xc)   XCENC  =      1221.13862109
  PAW double counting   =     40370.09898117   -40053.50536797
  entropy T*S    EENTRO =        -0.00000007
  eigenvalues    EBANDS =     -2345.61824896
  atomic energy  EATOM  =     23659.20686107
  Solvation  Ediel_sol  =         0.00000000
  ---------------------------------------------------
  free energy    TOTEN  =      -568.42093579 eV

  energy without entropy =     -568.42093572  energy(sigma->0) =     -568.42093575


--------------------------------------------------------------------------------------------------------




--------------------------------------- Iteration      1(   8)  ---------------------------------------


    POTLOK:  cpu time      0.0120: real time      0.0123
    SETDIJ:  cpu time      0.0018: real time      0.0018
     EDDAV:  cpu time      4.1036: real time      4.1190
       DOS:  cpu time      0.0008: real time      0.0008
    CHARGE:  cpu time      0.0479: real time      0.0482
    MIXING:  cpu time      0.0006: real time      0.0006
    --------------------------------------------
      LOOP:  cpu time      4.1666: real time      4.1826

 eigenvalue-minimisations  :  4096
 total energy-change (2. order) : 0.2346733E+00  (-0.2874152E+00)
 number of electron     390.0000056 magnetization 
 augmentation part       28.6080943 magnetization 

 Broyden mixing:
  rms(total) = 0.15674E+01    rms(broyden)= 0.15673E+01
  rms(prec ) = 0.16677E+01
  weight for this iteration     100.00

 eigenvalues of (default mixing * dielectric matrix)
  average eigenvalue GAMMA=   1.9929
  0.9707  2.5040  2.5040

 Free energy of the ion-electron system (eV)
  ---------------------------------------------------
  alpha Z        PSCENC =       573.53096271
  Ewald energy   TEWEN  =    -15452.55664149
  -Hartree energ DENC   =     -8621.19968416
  -exchange      EXHF   =         0.00000000
  -V(xc)+E(xc)   XCENC  =      1226.65190150
  PAW double counting   =     47834.02031418   -47518.50141237
  entropy T*S    EENTRO =        -0.00648437
  eigenvalues    EBANDS =     -2269.33207951
  atomic energy  EATOM  =     23659.20686107
  Solvation  Ediel_sol  =         0.00000000
  ---------------------------------------------------
  free energy    TOTEN  =      -568.18626245 eV

  energy without entropy =     -568.17977808  energy(sigma->0) =     -568.18302026


--------------------------------------------------------------------------------------------------------




--------------------------------------- Iteration      1(   9)  ---------------------------------------


    POTLOK:  cpu time      0.0117: real time      0.0120
    SETDIJ:  cpu time      0.0017: real time      0.0017
     EDDAV:  cpu time      3.8325: real time      3.8470
       DOS:  cpu time      0.0007: real time      0.0007
    CHARGE:  cpu time      0.0472: real time      0.0477
    MIXING:  cpu time      0.0007: real time      0.0007
    --------------------------------------------
      LOOP:  cpu time      3.8945: real time      3.9098

 eigenvalue-minimisations  :  3840
 total energy-change (2. order) :-0.2972952E+00  (-0.8635470E+00)
 number of electron     390.0000058 magnetization 
 augmentation part       29.0425904 magnetization 

 Broyden mixing:
  rms(total) = 0.11783E+01    rms(broyden)= 0.11707E+01
  rms(prec ) = 0.12808E+01
  weight for this iteration     100.00

 eigenvalues of (default mixing * dielectric matrix)
  average eigenvalue GAMMA=   2.3191
  4.9011  2.1139  1.1307  1.1307

 Free energy of the ion-electron system (eV)
  ---------------------------------------------------
  alpha Z        PSCENC =       573.53096271
  Ewald energy   TEWEN  =    -15452.55664149
  -Hartree energ DENC   =     -8625.33558185
  -exchange      EXHF   =         0.00000000
  -V(xc)+E(xc)   XCENC  =      1227.18551494
  PAW double counting   =     56704.29439293   -56388.27229878
  entropy T*S    EENTRO =        -0.00000001
  eigenvalues    EBANDS =     -2266.53676716
  atomic energy  EATOM  =     23659.20686107
  Solvation  Ediel_sol  =         0.00000000
  ---------------------------------------------------
  free energy    TOTEN  =      -568.48355764 eV

  energy without entropy =     -568.48355763  energy(sigma->0) =     -568.48355763


--------------------------------------------------------------------------------------------------------




--------------------------------------- Iteration      1(  10)  ---------------------------------------


    POTLOK:  cpu time      0.0119: real time      0.0122
    SETDIJ:  cpu time      0.0018: real time      0.0018
     EDDAV:  cpu time      3.7229: real time      3.7365
       DOS:  cpu time      0.0010: real time      0.0010
    CHARGE:  cpu time      0.0476: real time      0.0481
    MIXING:  cpu time      0.0006: real time      0.0006
    --------------------------------------------
      LOOP:  cpu time      3.7858: real time      3.8002

 eigenvalue-minimisations  :  3712
 total energy-change (2. order) : 0.3470332E+00  (-0.3830006E+00)
 number of electron     390.0000057 magnetization 
 augmentation part       29.0045952 magnetization 

 Broyden mixing:
  rms(total) = 0.61443E+00    rms(broyden)= 0.60456E+00
  rms(prec ) = 0.66182E+00
  weight for this iteration     100.00

 eigenvalues of (default mixing * dielectric matrix)
  average eigenvalue GAMMA=   2.0719
  4.9573  1.9448  1.5120  0.9727  0.9727

 Free energy of the ion-electron system (eV)
  ---------------------------------------------------
  alpha Z        PSCENC =       573.53096271
  Ewald energy   TEWEN  =    -15452.55664149
  -Hartree energ DENC   =     -8673.26205761
  -exchange      EXHF   =         0.00000000
  -V(xc)+E(xc)   XCENC  =      1230.82199121
  PAW double counting   =     65459.66365674   -65144.03480788
  entropy T*S    EENTRO =        -0.00584271
  eigenvalues    EBANDS =     -2221.50064643
  atomic energy  EATOM  =     23659.20686107
  Solvation  Ediel_sol  =         0.00000000
  ---------------------------------------------------
  free energy    TOTEN  =      -568.13652439 eV

  energy without entropy =     -568.13068168  energy(sigma->0) =     -568.13360304


--------------------------------------------------------------------------------------------------------




--------------------------------------- Iteration      1(  11)  ---------------------------------------


    POTLOK:  cpu time      0.0116: real time      0.0119
    SETDIJ:  cpu time      0.0019: real time      0.0019
     EDDAV:  cpu time      3.8052: real time      3.8196
       DOS:  cpu time      0.0009: real time      0.0009
    CHARGE:  cpu time      0.0478: real time      0.0482
    MIXING:  cpu time      0.0007: real time      0.0007
    --------------------------------------------
      LOOP:  cpu time      3.8680: real time      3.8831

 eigenvalue-minimisations  :  3840
 total energy-change (2. order) : 0.5527152E-01  (-0.2574688E-01)
 number of electron     390.0000058 magnetization 
 augmentation part       28.9295286 magnetization 

 Broyden mixing:
  rms(total) = 0.21473E+00    rms(broyden)= 0.20914E+00
  rms(prec ) = 0.22446E+00
  weight for this iteration     100.00

 eigenvalues of (default mixing * dielectric matrix)
  average eigenvalue GAMMA=   1.8114
  4.9415  1.9882  1.5536  0.9721  0.9721  0.4410

 Free energy of the ion-electron system (eV)
  ---------------------------------------------------
  alpha Z        PSCENC =       573.53096271
  Ewald energy   TEWEN  =    -15452.55664149
  -Hartree energ DENC   =     -8685.38056284
  -exchange      EXHF   =         0.00000000
  -V(xc)+E(xc)   XCENC  =      1231.64808841
  PAW double counting   =     65461.15465856   -65145.77321950
  entropy T*S    EENTRO =        -0.05573302
  eigenvalues    EBANDS =     -2209.85566677
  atomic energy  EATOM  =     23659.20686107
  Solvation  Ediel_sol  =         0.00000000
  ---------------------------------------------------
  free energy    TOTEN  =      -568.08125287 eV

  energy without entropy =     -568.02551985  energy(sigma->0) =     -568.05338636


--------------------------------------------------------------------------------------------------------




--------------------------------------- Iteration      1(  12)  ---------------------------------------


    POTLOK:  cpu time      0.0123: real time      0.0126
    SETDIJ:  cpu time      0.0019: real time      0.0019
     EDDAV:  cpu time      3.7381: real time      3.7523
       DOS:  cpu time      0.0009: real time      0.0009
    CHARGE:  cpu time      0.0491: real time      0.0494
    MIXING:  cpu time      0.0007: real time      0.0007
    --------------------------------------------
      LOOP:  cpu time      3.8029: real time      3.8177

 eigenvalue-minimisations  :  3776
 total energy-change (2. order) :-0.2370035E-01  (-0.7408558E-02)
 number of electron     390.0000057 magnetization 
 augmentation part       28.9334500 magnetization 

 Broyden mixing:
  rms(total) = 0.20969E+00    rms(broyden)= 0.20826E+00
  rms(prec ) = 0.22613E+00
  weight for this iteration     100.00

 eigenvalues of (default mixing * dielectric matrix)
  average eigenvalue GAMMA=   1.9186
  5.0433  2.5423  2.0830  1.1418  1.1418  0.7390  0.7390

 Free energy of the ion-electron system (eV)
  ---------------------------------------------------
  alpha Z        PSCENC =       573.53096271
  Ewald energy   TEWEN  =    -15452.55664149
  -Hartree energ DENC   =     -8684.15282834
  -exchange      EXHF   =         0.00000000
  -V(xc)+E(xc)   XCENC  =      1231.55043702
  PAW double counting   =     65255.33163431   -64939.91472922
  entropy T*S    EENTRO =        -0.04789814
  eigenvalues    EBANDS =     -2211.05275114
  atomic energy  EATOM  =     23659.20686107
  Solvation  Ediel_sol  =         0.00000000
  ---------------------------------------------------
  free energy    TOTEN  =      -568.10495322 eV

  energy without entropy =     -568.05705508  energy(sigma->0) =     -568.08100415


--------------------------------------------------------------------------------------------------------




--------------------------------------- Iteration      1(  13)  ---------------------------------------


    POTLOK:  cpu time      0.0118: real time      0.0121
    SETDIJ:  cpu time      0.0018: real time      0.0018
     EDDAV:  cpu time      3.9620: real time      3.9769
       DOS:  cpu time      0.0008: real time      0.0008
    CHARGE:  cpu time      0.0476: real time      0.0481
    MIXING:  cpu time      0.0007: real time      0.0007
    --------------------------------------------
      LOOP:  cpu time      4.0247: real time      4.0404

 eigenvalue-minimisations  :  4032
 total energy-change (2. order) :-0.8648852E-01  (-0.9165919E-01)
 number of electron     390.0000058 magnetization 
 augmentation part       28.9408334 magnetization 

 Broyden mixing:
  rms(total) = 0.74569E+00    rms(broyden)= 0.74097E+00
  rms(prec ) = 0.80926E+00
  weight for this iteration     100.00

 eigenvalues of (default mixing * dielectric matrix)
  average eigenvalue GAMMA=   1.9496
  5.0483  3.9704  2.0010  1.0465  1.0465  1.0203  1.0203  0.4433

 Free energy of the ion-electron system (eV)
  ---------------------------------------------------
  alpha Z        PSCENC =       573.53096271
  Ewald energy   TEWEN  =    -15452.55664149
  -Hartree energ DENC   =     -8687.02444384
  -exchange      EXHF   =         0.00000000
  -V(xc)+E(xc)   XCENC  =      1231.74739455
  PAW double counting   =     64620.04746117   -64304.67526040
  entropy T*S    EENTRO =        -0.01800306
  eigenvalues    EBANDS =     -2208.44977244
  atomic energy  EATOM  =     23659.20686107
  Solvation  Ediel_sol  =         0.00000000
  ---------------------------------------------------
  free energy    TOTEN  =      -568.19144174 eV

  energy without entropy =     -568.17343868  energy(sigma->0) =     -568.18244021


--------------------------------------------------------------------------------------------------------




--------------------------------------- Iteration      1(  14)  ---------------------------------------


    POTLOK:  cpu time      0.0120: real time      0.0123
    SETDIJ:  cpu time      0.0017: real time      0.0017
     EDDAV:  cpu time      3.7360: real time      3.7504
       DOS:  cpu time      0.0008: real time      0.0008
    CHARGE:  cpu time      0.0474: real time      0.0478
    MIXING:  cpu time      0.0008: real time      0.0008
    --------------------------------------------
      LOOP:  cpu time      3.7987: real time      3.8138

 eigenvalue-minimisations  :  3712
 total energy-change (2. order) : 0.1207531E+00  (-0.5000310E-01)
 number of electron     390.0000057 magnetization 
 augmentation part       28.9390431 magnetization 

 Broyden mixing:
  rms(total) = 0.11160E+00    rms(broyden)= 0.92163E-01
  rms(prec ) = 0.10124E+00
  weight for this iteration     100.00
  WARNING: grid for Broyden might be to small

 eigenvalues of (default mixing * dielectric matrix)
  average eigenvalue GAMMA=   1.9500
  5.2306  4.2532  2.0390  1.3161  1.3161  0.9769  0.9769  0.9953  0.4458

 Free energy of the ion-electron system (eV)
  ---------------------------------------------------
  alpha Z        PSCENC =       573.53096271
  Ewald energy   TEWEN  =    -15452.55664149
  -Hartree energ DENC   =     -8687.08353601
  -exchange      EXHF   =         0.00000000
  -V(xc)+E(xc)   XCENC  =      1231.76336727
  PAW double counting   =     64219.55796652   -63904.15322701
  entropy T*S    EENTRO =        -0.05215219
  eigenvalues    EBANDS =     -2208.28428954
  atomic energy  EATOM  =     23659.20686107
  Solvation  Ediel_sol  =         0.00000000
  ---------------------------------------------------
  free energy    TOTEN  =      -568.07068867 eV

  energy without entropy =     -568.01853648  energy(sigma->0) =     -568.04461257


--------------------------------------------------------------------------------------------------------




--------------------------------------- Iteration      1(  15)  ---------------------------------------


    POTLOK:  cpu time      0.0119: real time      0.0121
    SETDIJ:  cpu time      0.0018: real time      0.0018
     EDDAV:  cpu time      3.7708: real time      3.7851
       DOS:  cpu time      0.0009: real time      0.0009
    CHARGE:  cpu time      0.0476: real time      0.0480
    MIXING:  cpu time      0.0008: real time      0.0008
    --------------------------------------------
      LOOP:  cpu time      3.8337: real time      3.8488

 eigenvalue-minimisations  :  3712
 total energy-change (2. order) :-0.5571833E-01  (-0.1838203E-01)
 number of electron     390.0000058 magnetization 
 augmentation part       28.9408767 magnetization 

 Broyden mixing:
  rms(total) = 0.34261E+00    rms(broyden)= 0.34131E+00
  rms(prec ) = 0.37286E+00
  weight for this iteration     100.00

 eigenvalues of (default mixing * dielectric matrix)
  average eigenvalue GAMMA=   1.9415
  5.3446  4.6893  1.9231  1.9231  1.0683  1.0683  1.0294  1.0294  0.9100  0.4294

 Free energy of the ion-electron system (eV)
  ---------------------------------------------------
  alpha Z        PSCENC =       573.53096271
  Ewald energy   TEWEN  =    -15452.55664149
  -Hartree energ DENC   =     -8688.03092053
  -exchange      EXHF   =         0.00000000
  -V(xc)+E(xc)   XCENC  =      1231.80016687
  PAW double counting   =     64027.60661946   -63712.21457794
  entropy T*S    EENTRO =        -0.05132770
  eigenvalues    EBANDS =     -2207.41754944
  atomic energy  EATOM  =     23659.20686107
  Solvation  Ediel_sol  =         0.00000000
  ---------------------------------------------------
  free energy    TOTEN  =      -568.12640699 eV

  energy without entropy =     -568.07507929  energy(sigma->0) =     -568.10074314


--------------------------------------------------------------------------------------------------------




--------------------------------------- Iteration      1(  16)  ---------------------------------------


    POTLOK:  cpu time      0.0127: real time      0.0129
    SETDIJ:  cpu time      0.0019: real time      0.0019
     EDDAV:  cpu time      3.7415: real time      3.7559
       DOS:  cpu time      0.0007: real time      0.0007
    CHARGE:  cpu time      0.0471: real time      0.0474
    MIXING:  cpu time      0.0007: real time      0.0007
    --------------------------------------------
      LOOP:  cpu time      3.8046: real time      3.8196

 eigenvalue-minimisations  :  3712
 total energy-change (2. order) : 0.2577106E-01  (-0.1619955E-01)
 number of electron     390.0000057 magnetization 
 augmentation part       28.9384780 magnetization 

 Broyden mixing:
  rms(total) = 0.84607E-01    rms(broyden)= 0.76975E-01
  rms(prec ) = 0.84166E-01
  weight for this iteration     100.00

 eigenvalues of (default mixing * dielectric matrix)
  average eigenvalue GAMMA=   1.8892
  5.2271  4.7841  1.8817  1.7300  1.5595  1.5595  0.9953  0.9953  0.9156  0.7101
  0.4235

 Free energy of the ion-electron system (eV)
  ---------------------------------------------------
  alpha Z        PSCENC =       573.53096271
  Ewald energy   TEWEN  =    -15452.55664149
  -Hartree energ DENC   =     -8688.22887979
  -exchange      EXHF   =         0.00000000
  -V(xc)+E(xc)   XCENC  =      1231.81433568
  PAW double counting   =     63946.64005227   -63631.23383408
  entropy T*S    EENTRO =        -0.05271241
  eigenvalues    EBANDS =     -2207.22077989
  atomic energy  EATOM  =     23659.20686107
  Solvation  Ediel_sol  =         0.00000000
  ---------------------------------------------------
  free energy    TOTEN  =      -568.10063594 eV

  energy without entropy =     -568.04792353  energy(sigma->0) =     -568.07427973


--------------------------------------------------------------------------------------------------------




--------------------------------------- Iteration      1(  17)  ---------------------------------------


    POTLOK:  cpu time      0.0118: real time      0.0121
    SETDIJ:  cpu time      0.0018: real time      0.0018
     EDDAV:  cpu time      3.7174: real time      3.7315
       DOS:  cpu time      0.0008: real time      0.0008
    CHARGE:  cpu time      0.0477: real time      0.0482
    MIXING:  cpu time      0.0008: real time      0.0008
    --------------------------------------------
      LOOP:  cpu time      3.7804: real time      3.7952

 eigenvalue-minimisations  :  3712
 total energy-change (2. order) :-0.1807645E-01  (-0.5528795E-03)
 number of electron     390.0000057 magnetization 
 augmentation part       28.9370322 magnetization 

 Broyden mixing:
  rms(total) = 0.10370E+00    rms(broyden)= 0.10325E+00
  rms(prec ) = 0.11292E+00
  weight for this iteration     100.00

 eigenvalues of (default mixing * dielectric matrix)
  average eigenvalue GAMMA=   1.7901
  5.2796  4.6835  1.9531  1.8769  1.8769  1.3336  1.0120  1.0120  0.8992  0.6625
  0.4463  0.4463

 Free energy of the ion-electron system (eV)
  ---------------------------------------------------
  alpha Z        PSCENC =       573.53096271
  Ewald energy   TEWEN  =    -15452.55664149
  -Hartree energ DENC   =     -8688.47619202
  -exchange      EXHF   =         0.00000000
  -V(xc)+E(xc)   XCENC  =      1231.82202863
  PAW double counting   =     63951.47376358   -63636.06785252
  entropy T*S    EENTRO =        -0.05175976
  eigenvalues    EBANDS =     -2206.99988259
  atomic energy  EATOM  =     23659.20686107
  Solvation  Ediel_sol  =         0.00000000
  ---------------------------------------------------
  free energy    TOTEN  =      -568.11871238 eV

  energy without entropy =     -568.06695263  energy(sigma->0) =     -568.09283250


--------------------------------------------------------------------------------------------------------




--------------------------------------- Iteration      1(  18)  ---------------------------------------


    POTLOK:  cpu time      0.0118: real time      0.0120
    SETDIJ:  cpu time      0.0016: real time      0.0017
     EDDAV:  cpu time      3.8563: real time      3.8711
       DOS:  cpu time      0.0009: real time      0.0009
    CHARGE:  cpu time      0.0473: real time      0.0476
    MIXING:  cpu time      0.0008: real time      0.0008
    --------------------------------------------
      LOOP:  cpu time      3.9188: real time      3.9341

 eigenvalue-minimisations  :  3840
 total energy-change (2. order) : 0.4897040E-02  (-0.8421215E-04)
 number of electron     390.0000057 magnetization 
 augmentation part       28.9375996 magnetization 

 Broyden mixing:
  rms(total) = 0.34130E-01    rms(broyden)= 0.33770E-01
  rms(prec ) = 0.37004E-01
  weight for this iteration     100.00

 eigenvalues of (default mixing * dielectric matrix)
  average eigenvalue GAMMA=   1.8946
  5.5285  4.9325  2.8334  2.1465  1.5486  1.5486  1.0322  1.0322  0.9589  0.9589
  0.9259  0.7568  0.4267

 Free energy of the ion-electron system (eV)
  ---------------------------------------------------
  alpha Z        PSCENC =       573.53096271
  Ewald energy   TEWEN  =    -15452.55664149
  -Hartree energ DENC   =     -8688.53899693
  -exchange      EXHF   =         0.00000000
  -V(xc)+E(xc)   XCENC  =      1231.82647023
  PAW double counting   =     63956.44257967   -63641.03672997
  entropy T*S    EENTRO =        -0.05409386
  eigenvalues    EBANDS =     -2206.93422677
  atomic energy  EATOM  =     23659.20686107
  Solvation  Ediel_sol  =         0.00000000
  ---------------------------------------------------
  free energy    TOTEN  =      -568.11381534 eV

  energy without entropy =     -568.05972148  energy(sigma->0) =     -568.08676841


--------------------------------------------------------------------------------------------------------




--------------------------------------- Iteration      1(  19)  ---------------------------------------


    POTLOK:  cpu time      0.0119: real time      0.0122
    SETDIJ:  cpu time      0.0017: real time      0.0017
     EDDAV:  cpu time      3.7468: real time      3.7617
       DOS:  cpu time      0.0009: real time      0.0009
    CHARGE:  cpu time      0.0467: real time      0.0472
    MIXING:  cpu time      0.0009: real time      0.0009
    --------------------------------------------
      LOOP:  cpu time      3.8089: real time      3.8245

 eigenvalue-minimisations  :  3712
 total energy-change (2. order) :-0.2730370E-02  (-0.2224526E-04)
 number of electron     390.0000057 magnetization 
 augmentation part       28.9379697 magnetization 

 Broyden mixing:
  rms(total) = 0.21496E-01    rms(broyden)= 0.21384E-01
  rms(prec ) = 0.23374E-01
  weight for this iteration     100.00

 eigenvalues of (default mixing * dielectric matrix)
  average eigenvalue GAMMA=   1.9051
  5.5327  5.0617  3.7640  2.0718  1.5729  1.5729  1.1317  1.1317  0.9278  0.9278
  0.9280  0.8105  0.8105  0.4269

 Free energy of the ion-electron system (eV)
  ---------------------------------------------------
  alpha Z        PSCENC =       573.53096271
  Ewald energy   TEWEN  =    -15452.55664149
  -Hartree energ DENC   =     -8688.67673053
  -exchange      EXHF   =         0.00000000
  -V(xc)+E(xc)   XCENC  =      1231.83207223
  PAW double counting   =     63944.58698736   -63629.17718991
  entropy T*S    EENTRO =        -0.05441235
  eigenvalues    EBANDS =     -2206.80845480
  atomic energy  EATOM  =     23659.20686107
  Solvation  Ediel_sol  =         0.00000000
  ---------------------------------------------------
  free energy    TOTEN  =      -568.11654571 eV

  energy without entropy =     -568.06213336  energy(sigma->0) =     -568.08933954


--------------------------------------------------------------------------------------------------------




--------------------------------------- Iteration      1(  20)  ---------------------------------------


    POTLOK:  cpu time      0.0113: real time      0.0116
    SETDIJ:  cpu time      0.0017: real time      0.0017
     EDDAV:  cpu time      3.7216: real time      3.7362
       DOS:  cpu time      0.0007: real time      0.0007
    CHARGE:  cpu time      0.0822: real time      0.0827
    MIXING:  cpu time      0.0009: real time      0.0009
    --------------------------------------------
      LOOP:  cpu time      3.8185: real time      3.8339

 eigenvalue-minimisations  :  3840
 total energy-change (2. order) :-0.8797583E-03  (-0.8529148E-05)
 number of electron     390.0000057 magnetization 
 augmentation part       28.9373478 magnetization 

 Broyden mixing:
  rms(total) = 0.43835E-01    rms(broyden)= 0.43798E-01
  rms(prec ) = 0.47845E-01
  weight for this iteration     100.00

 eigenvalues of (default mixing * dielectric matrix)
  average eigenvalue GAMMA=   1.9196
  5.5991  5.0459  3.8480  2.0125  1.8766  1.8766  1.2108  1.2108  0.9818  0.9818
  1.0089  1.0089  0.8527  0.8527  0.4268

 Free energy of the ion-electron system (eV)
  ---------------------------------------------------
  alpha Z        PSCENC =       573.53096271
  Ewald energy   TEWEN  =    -15452.55664149
  -Hartree energ DENC   =     -8688.85070997
  -exchange      EXHF   =         0.00000000
  -V(xc)+E(xc)   XCENC  =      1231.84146653
[...]
   0.796E+01 -.441E+01 0.155E+01   -.773E+01 0.407E+01 -.164E+01   -.221E+00 0.336E+00 0.922E-01   -.792E-03 -.685E-03 -.803E-03
   -.174E+02 -.470E+01 -.823E+01   0.196E+02 0.419E+01 0.757E+01   -.219E+01 0.520E+00 0.668E+00   -.614E-03 0.788E-03 -.956E-03
   -.402E+01 -.391E+01 0.369E+01   0.444E+01 0.374E+01 -.375E+01   -.442E+00 0.163E+00 0.601E-01   0.814E-03 -.172E-02 0.232E-03
   0.272E+01 0.978E+01 -.380E+01   -.250E+01 -.972E+01 0.348E+01   -.246E+00 -.776E-01 0.334E+00   -.524E-03 -.675E-03 0.190E-03
   0.370E+01 0.259E+01 0.206E+01   -.327E+01 -.285E+01 -.180E+01   -.460E+00 0.254E+00 -.261E+00   0.215E-03 0.963E-03 -.365E-03
   0.484E+02 0.629E+02 0.282E+02   -.580E+02 -.799E+02 -.395E+02   0.963E+01 0.170E+02 0.114E+02   0.439E-02 -.264E-02 0.507E-02
   0.419E+02 0.588E+02 0.401E+02   -.502E+02 -.763E+02 -.520E+02   0.831E+01 0.175E+02 0.119E+02   -.333E-02 0.313E-02 -.196E-02
   0.384E+02 0.493E+02 0.267E+02   -.459E+02 -.666E+02 -.386E+02   0.750E+01 0.173E+02 0.120E+02   -.335E-02 -.936E-03 0.787E-03
   0.482E+02 0.479E+02 0.432E+02   -.567E+02 -.639E+02 -.552E+02   0.855E+01 0.160E+02 0.120E+02   -.132E-02 0.315E-02 -.311E-02
   0.404E+02 0.544E+02 0.257E+02   -.489E+02 -.716E+02 -.369E+02   0.850E+01 0.172E+02 0.112E+02   0.289E-02 -.328E-02 0.260E-02
   0.324E+02 0.519E+02 0.409E+02   -.402E+02 -.686E+02 -.524E+02   0.777E+01 0.167E+02 0.116E+02   0.815E-03 0.473E-03 0.204E-02
   0.355E+02 0.705E+02 0.187E+02   -.439E+02 -.885E+02 -.307E+02   0.847E+01 0.181E+02 0.119E+02   0.254E-02 -.656E-02 0.457E-02
   0.209E+02 0.829E+02 0.778E+02   -.254E+02 -.102E+03 -.909E+02   0.451E+01 0.189E+02 0.131E+02   -.321E-03 -.340E-02 -.512E-03
   -.856E+01 0.187E+02 0.386E+02   0.238E+02 -.162E+02 -.494E+02   -.153E+02 -.254E+01 0.109E+02   0.191E-02 -.116E-02 0.130E-02
   -.648E+02 0.938E+01 0.301E+02   0.841E+02 -.802E+01 -.417E+02   -.193E+02 -.136E+01 0.116E+02   -.156E-02 -.255E-02 -.680E-03
   -.753E+02 -.934E+01 0.305E+02   0.958E+02 0.977E+01 -.409E+02   -.205E+02 -.439E+00 0.104E+02   0.460E-02 0.383E-02 0.343E-02
   -.694E+02 -.332E+00 0.334E+02   0.882E+02 0.208E+01 -.446E+02   -.188E+02 -.175E+01 0.112E+02   -.272E-02 -.312E-03 0.323E-02
   -.691E+02 0.102E+02 0.365E+02   0.886E+02 -.922E+01 -.475E+02   -.195E+02 -.945E+00 0.110E+02   -.965E-03 -.212E-02 -.122E-02
   -.676E+02 0.687E+01 0.283E+02   0.863E+02 -.522E+01 -.394E+02   -.186E+02 -.166E+01 0.112E+02   0.223E-03 0.217E-02 0.228E-02
   -.115E+03 0.213E+02 0.348E+02   0.136E+03 -.234E+02 -.461E+02   -.211E+02 0.215E+01 0.112E+02   -.106E-02 -.588E-02 -.730E-03
   -.800E+02 0.858E+01 0.353E+02   0.993E+02 -.731E+01 -.468E+02   -.193E+02 -.128E+01 0.115E+02   0.122E-02 -.317E-02 0.104E-02
   0.457E+02 -.632E+02 0.253E+02   -.539E+02 0.784E+02 -.376E+02   0.817E+01 -.152E+02 0.123E+02   0.611E-02 0.127E-02 -.290E-03
   0.320E+02 -.669E+02 0.361E+02   -.428E+02 0.825E+02 -.471E+02   0.108E+02 -.156E+02 0.110E+02   0.537E-03 -.373E-02 -.354E-03
   0.268E+02 -.658E+02 0.271E+02   -.377E+02 0.813E+02 -.388E+02   0.109E+02 -.155E+02 0.117E+02   -.215E-02 -.170E-02 0.311E-02
   0.277E+02 -.619E+02 0.388E+02   -.381E+02 0.776E+02 -.497E+02   0.103E+02 -.157E+02 0.109E+02   0.155E-02 0.442E-02 -.204E-02
   0.366E+02 -.566E+02 0.288E+02   -.470E+02 0.727E+02 -.406E+02   0.104E+02 -.160E+02 0.118E+02   0.694E-03 0.968E-03 -.971E-03
   0.314E+02 -.580E+02 0.376E+02   -.422E+02 0.737E+02 -.491E+02   0.107E+02 -.157E+02 0.115E+02   0.556E-02 0.260E-02 -.402E-02
   -.194E+02 -.960E+02 -.341E+02   0.122E+02 0.114E+03 0.273E+02   0.717E+01 -.178E+02 0.683E+01   0.370E-02 0.275E-02 0.442E-02
   0.235E+02 -.694E+02 0.467E+02   -.341E+02 0.857E+02 -.591E+02   0.105E+02 -.163E+02 0.124E+02   0.425E-02 -.267E-02 -.400E-02
   0.434E+02 -.547E+02 -.365E+02   -.523E+02 0.721E+02 0.475E+02   0.893E+01 -.174E+02 -.110E+02   -.135E-02 -.189E-02 0.122E-02
   0.398E+02 -.551E+02 -.283E+02   -.477E+02 0.721E+02 0.394E+02   0.788E+01 -.170E+02 -.112E+02   0.177E-02 0.128E-02 -.228E-02
   0.760E+02 -.890E+02 -.348E+02   -.884E+02 0.106E+03 0.461E+02   0.124E+02 -.172E+02 -.112E+02   -.456E-02 -.386E-02 0.731E-03
   0.474E+02 -.650E+02 -.353E+02   -.560E+02 0.824E+02 0.468E+02   0.853E+01 -.173E+02 -.115E+02   -.336E-02 -.526E-03 -.104E-02
   0.295E+02 -.699E+02 -.305E+02   -.394E+02 0.878E+02 0.409E+02   0.986E+01 -.180E+02 -.104E+02   0.102E-02 0.590E-02 -.343E-02
   0.344E+02 -.603E+02 -.334E+02   -.423E+02 0.774E+02 0.446E+02   0.786E+01 -.171E+02 -.112E+02   0.109E-02 -.251E-02 -.323E-02
   0.205E+02 0.196E+01 -.386E+02   -.259E+02 0.125E+02 0.494E+02   0.543E+01 -.145E+02 -.109E+02   -.196E-02 0.107E-02 -.130E-02
   0.405E+02 -.515E+02 -.301E+02   -.490E+02 0.689E+02 0.417E+02   0.847E+01 -.174E+02 -.116E+02   -.143E-02 -.263E-02 0.680E-03
   0.287E+02 0.540E+02 -.409E+02   -.393E+02 -.691E+02 0.524E+02   0.106E+02 0.151E+02 -.116E+02   0.187E-05 0.942E-03 -.204E-02
   0.269E+02 0.622E+02 -.257E+02   -.375E+02 -.781E+02 0.369E+02   0.107E+02 0.160E+02 -.112E+02   -.428E-02 0.861E-03 -.260E-02
   0.614E+02 0.595E+02 -.778E+02   -.754E+02 -.729E+02 0.909E+02   0.141E+02 0.133E+02 -.131E+02   -.278E-02 -.198E-02 0.513E-03
   0.433E+02 0.660E+02 -.187E+02   -.547E+02 -.823E+02 0.307E+02   0.114E+02 0.164E+02 -.119E+02   -.695E-02 -.108E-02 -.457E-02
   0.174E+02 0.657E+02 -.432E+02   -.270E+02 -.811E+02 0.552E+02   0.960E+01 0.154E+02 -.120E+02   0.339E-02 0.428E-03 0.311E-02
   0.235E+02 0.579E+02 -.267E+02   -.347E+02 -.731E+02 0.386E+02   0.112E+02 0.151E+02 -.120E+02   0.864E-03 -.337E-02 -.786E-03
   0.300E+02 0.657E+02 -.401E+02   -.410E+02 -.816E+02 0.520E+02   0.110E+02 0.159E+02 -.119E+02   0.438E-02 -.132E-02 0.196E-02
   0.303E+02 0.734E+02 -.282E+02   -.401E+02 -.902E+02 0.395E+02   0.989E+01 0.168E+02 -.114E+02   -.448E-02 0.249E-02 -.507E-02
   -.659E+02 -.180E+01 -.376E+02   0.849E+02 0.318E+00 0.491E+02   -.189E+02 0.147E+01 -.115E+02   -.524E-03 0.611E-02 0.402E-02
   -.673E+02 0.337E+01 -.288E+02   0.864E+02 -.437E+01 0.406E+02   -.191E+02 0.100E+01 -.118E+02   0.492E-03 0.108E-02 0.971E-03
   -.718E+02 -.143E+02 -.467E+02   0.912E+02 0.134E+02 0.591E+02   -.194E+02 0.940E+00 -.124E+02   -.444E-02 0.235E-02 0.400E-02
   -.735E+02 -.648E+02 0.341E+02   0.924E+02 0.675E+02 -.273E+02   -.190E+02 -.267E+01 -.683E+01   0.531E-03 0.458E-02 -.442E-02
   -.674E+02 -.695E+01 -.388E+02   0.862E+02 0.585E+01 0.497E+02   -.188E+02 0.110E+01 -.109E+02   0.305E-02 0.356E-02 0.204E-02
   -.704E+02 -.969E+01 -.271E+02   0.893E+02 0.797E+01 0.388E+02   -.189E+02 0.172E+01 -.117E+02   -.398E-03 -.271E-02 -.311E-02
   -.740E+02 -.571E+01 -.361E+02   0.929E+02 0.420E+01 0.471E+02   -.189E+02 0.151E+01 -.110E+02   -.350E-02 -.140E-02 0.353E-03
   -.776E+02 0.801E+01 -.253E+02   0.949E+02 -.746E+01 0.376E+02   -.172E+02 -.525E+00 -.123E+02   -.196E-02 0.592E-02 0.289E-03
   0.169E+02 0.292E+02 0.673E-04   -.169E+02 -.292E+02 -.110E-10   0.746E-02 0.129E-01 -.254E-17   0.498E-03 0.861E-03 0.683E-06
 -----------------------------------------------------------------------------------------------
   0.279E+01 0.483E+01 0.813E-03   -.711E-13 -.746E-13 -.231E-13   -.279E+01 -.483E+01 0.160E-13   0.110E-02 0.191E-02 0.395E-06
 
 
 POSITION                                       TOTAL-FORCE (eV/Angst)
 -----------------------------------------------------------------------------------
      2.57720     -0.02075     -0.01425        -0.002792     -0.032716     -0.007196
      2.63172     -0.00587      5.43111         0.009091     -0.027733     -0.002154
      5.05442      4.29512     -0.01496         0.012766     -0.011764     -0.002566
      5.08232      4.25632      5.46132        -0.002975     -0.016981      0.000818
      5.07658     -4.27377     -0.00943         0.000047      0.013668     -0.014641
      5.10452     -4.25857      5.41452        -0.010037      0.014396      0.002859
      7.47875      0.07624      0.02790        -0.019623     -0.005063      0.033386
      7.54869     -0.02174      5.43747        -0.009801      0.003945      0.002577
      1.21637      1.99473      3.60656         0.040500      0.019670     -0.006636
      1.11862      1.96274      9.04297        -0.006235      0.007639     -0.006621
      3.59795      6.20661      3.63007         0.009733     -0.001580      0.006621
      3.57679      6.30726      9.06648        -0.003215      0.044909      0.006636
      3.60326     -2.28068      3.62334         0.009489     -0.001800      0.005707
      3.59569     -2.27631      9.04969        -0.006303      0.007318     -0.005707
      6.06433      1.97903      3.68951        -0.010077      0.013449     -0.011068
      6.05418      1.98490      8.98353         0.016686     -0.002002      0.011068
      1.13296     -1.99693      1.81986         0.011813      0.006874      0.014641
      1.13216     -1.96513      7.25852         0.017485     -0.001495     -0.002859
      3.69910      2.25842      1.78253         0.005427     -0.019526     -0.033386
      3.57928      2.27001      7.23556         0.008317     -0.006515     -0.002577
      3.64996     -6.24464      1.82539        -0.016571      0.005174      0.002566
      3.60241     -6.23988      7.21171        -0.013218     -0.011067     -0.000818
      6.06588     -2.03494      1.82468        -0.026937     -0.018776      0.007196
      6.05150     -1.98028      7.24192        -0.028563     -0.005994      0.002154
      1.69664      0.57685      4.23766         0.000803      0.010300      0.000595
      1.64567      0.54851      9.64000         0.003978      0.002491      0.022000
      4.16019      4.81478      4.24455        -0.017482     -0.022370      0.000543
      4.12614      4.90275      9.66973        -0.003721     -0.012717     -0.011077
      4.14544     -3.68521      4.23010        -0.009532     -0.005418     -0.005030
      4.14673     -3.67697      9.65812        -0.010289      0.020824     -0.001060
      6.59547      0.55787      4.24935         0.014020     -0.001988      0.001120
      6.63342      0.59394      9.58279        -0.012585      0.027770      0.009249
      3.49760      1.15543      0.60062        -0.002453     -0.014620     -0.006929
      3.57431      1.16791      6.04038        -0.008621     -0.011046     -0.001608
      6.04165      5.40405      0.63014         0.020122     -0.006841     -0.003190
      6.01068      5.43560      6.07042        -0.020482     -0.004700      0.006288
      6.03406     -3.13397      0.62896         0.008116      0.004368     -0.026459
      6.02779     -3.08065      6.04273         0.005239     -0.001920      0.002095
      8.53468      1.14739      0.65488        -0.004598     -0.018520     -0.021128
      8.49658      1.15380      6.03073         0.014128     -0.015283     -0.009453
      2.19962      2.49452      2.42229         0.029897      0.007826     -0.005200
      2.09763      2.49288      7.85395         0.004965     -0.002794     -0.016439
      4.56260      6.73193      2.43166        -0.008660      0.014145     -0.012834
      4.56965      6.81075      7.87405        -0.009332      0.030561     -0.024094
      4.58062     -1.76987      2.42641        -0.005926      0.011870     -0.006977
      4.56463     -1.74714      7.85232        -0.003196      0.007736      0.011053
      7.11429      2.54725      2.55352        -0.007813     -0.001184      0.025366
      7.01829      2.52388      7.79182        -0.005914     -0.005236     -0.022334
      1.64132     -0.59782      1.18148        -0.000275      0.009212      0.026459
      1.69063     -0.57659      6.63031        -0.004282      0.003577     -0.002095
      4.09878      3.70845      1.15555        -0.013740     -0.013242      0.021128
      4.12338      3.67867      6.64230        -0.020299      0.004593      0.009453
      4.11670     -4.83521      1.18029        -0.015986      0.014006      0.003190
      4.15951     -4.84626      6.60261         0.006170     -0.020088     -0.006288
      6.62428     -0.64976      1.20982        -0.011435     -0.009435      0.006929
      6.59673     -0.57708      6.63266        -0.005255     -0.012989      0.001608
      2.11473     -2.50380      3.01492         0.023179      0.001501      0.001060
      2.10825     -2.50904      8.44293         0.000074     -0.010964      0.005030
      4.57011      1.78519      3.09025         0.030342      0.002987     -0.009249
      4.55784      1.73429      8.42369        -0.008731      0.011148     -0.001120
      4.64032     -6.74474      3.00331        -0.009153     -0.009581      0.011077
      4.54711     -6.75923      8.42849        -0.010632     -0.026325     -0.000543
      7.02464     -2.55704      3.03303         0.000168      0.004691     -0.022000
      7.02370     -2.49873      8.43538         0.008519      0.005846     -0.000595
      3.57706     -1.17697      4.82072         0.008298      0.001100     -0.011053
      3.54939     -1.17449     10.24663         0.013242      0.000803      0.006977
      6.04905      3.08347      4.88121        -0.001578     -0.007740      0.022334
      6.02129      3.17830     10.11951         0.002882     -0.007358     -0.025366
      6.07094     -5.40665      4.79899         0.031133      0.007199      0.024094
      6.00620     -5.45216     10.24138         0.016580     -0.000427      0.012834
      8.48253     -1.19344      4.81909        -0.004902      0.002903      0.016439
      8.43296     -1.10430     10.25075        -0.008171      0.029805      0.005200
      5.90364      1.71243      0.90522         0.018181      0.031490     -0.000000
 -----------------------------------------------------------------------------------
    total drift:                                0.000743      0.001074      0.000813


--------------------------------------------------------------------------------------------------------



  FREE ENERGIE OF THE ION-ELECTRON SYSTEM (eV)
  ---------------------------------------------------
  free  energy   TOTEN  =      -568.84527140 eV

  energy  without entropy=     -568.79097728  energy(sigma->0) =     -568.81812434
 
 d Force = 0.1036701E-02[ 0.772E-03, 0.130E-02]  d Energy = 0.1050161E-02-0.135E-04
 d Force =-0.3446214E+00[-0.345E+00,-0.345E+00]  d Ewald  =-0.3446226E+00 0.126E-05


--------------------------------------------------------------------------------------------------------


    POTLOK:  cpu time      0.0145: real time      0.0146


--------------------------------------------------------------------------------------------------------


 stress matrix after NEB project (eV)
     13.42625      1.66420      2.48803
      1.66420     15.34790     -1.43646
      2.48803     -1.43646     15.51093
  FORCES: max atom, RMS     0.045511    0.023729
  FORCE total and by dimension    0.202738    0.044909
  Stress total and by dimension   26.047219   15.510929
 Conjugate gradient step on ions:
 trial-energy change:   -0.001050  1 .order   -0.001037   -0.001301   -0.000772
  (g-gl).g = 0.383E-02      g.g   = 0.387E-02  gl.gl    = 0.538E-02
 g(Force)  = 0.387E-02   g(Stress)= 0.000E+00 ortho     = 0.165E-03
 gamma     =   0.71072
 trial     =   0.32632
 opt step  =   0.80257  (harmonic =   0.80257) maximal distance =0.00403921
 next E    =  -568.845821   (d E  =  -0.00160)


--------------------------------------------------------------------------------------------------------


  
 reached required accuracy - stopping structural energy minimisation
     LOOP+:  cpu time     30.6092: real time     30.7166
    4ORBIT:  cpu time      0.0000: real time      0.0000



 total charge

# of ion       s       p       d       tot
------------------------------------------
    1        0.643   0.989   0.000   1.632
    2        0.643   0.987   0.000   1.630
    3        0.644   0.985   0.000   1.629
    4        0.643   0.987   0.000   1.630
    5        0.643   0.988   0.000   1.631
    6        0.642   0.985   0.000   1.627
    7        0.631   0.954   0.000   1.585
    8        0.643   0.988   0.000   1.631
    9        0.643   0.987   0.000   1.630
   10        0.643   0.986   0.000   1.629
   11        0.643   0.986   0.000   1.629
   12        0.643   0.987   0.000   1.630
   13        0.642   0.985   0.000   1.627
   14        0.642   0.985   0.000   1.627
   15        0.643   0.983   0.000   1.626
   16        0.643   0.983   0.000   1.626
   17        0.643   0.988   0.000   1.631
   18        0.642   0.985   0.000   1.627
   19        0.631   0.954   0.000   1.585
   20        0.643   0.988   0.000   1.631
   21        0.644   0.985   0.000   1.629
   22        0.643   0.987   0.000   1.630
   23        0.643   0.989   0.000   1.632
   24        0.643   0.987   0.000   1.630
   25        1.549   3.688   0.000   5.237
   26        1.548   3.686   0.000   5.234
   27        1.548   3.690   0.000   5.238
   28        1.549   3.692   0.000   5.241
   29        1.548   3.688   0.000   5.236
   30        1.548   3.688   0.000   5.236
   31        1.549   3.688   0.000   5.237
   32        1.552   3.671   0.000   5.223
   33        1.549   3.687   0.000   5.236
   34        1.549   3.688   0.000   5.237
   35        1.549   3.688   0.000   5.238
   36        1.548   3.690   0.000   5.238
   37        1.549   3.690   0.000   5.239
   38        1.548   3.689   0.000   5.236
   39        1.550   3.683   0.000   5.234
   40        1.548   3.688   0.000   5.236
   41        1.547   3.683   0.000   5.230
   42        1.548   3.689   0.000   5.236
   43        1.548   3.690   0.000   5.238
   44        1.547   3.687   0.000   5.234
   45        1.548   3.687   0.000   5.235
   46        1.548   3.687   0.000   5.234
   47        1.556   3.625   0.000   5.182
   48        1.549   3.685   0.000   5.234
   49        1.549   3.690   0.000   5.239
   50        1.548   3.689   0.000   5.236
   51        1.550   3.683   0.000   5.234
   52        1.548   3.688   0.000   5.236
   53        1.549   3.688   0.000   5.238
   54        1.548   3.690   0.000   5.238
   55        1.549   3.687   0.000   5.236
   56        1.549   3.688   0.000   5.237
   57        1.548   3.688   0.000   5.236
   58        1.548   3.688   0.000   5.236
   59        1.552   3.671   0.000   5.223
   60        1.549   3.688   0.000   5.237
   61        1.549   3.692   0.000   5.241
   62        1.548   3.690   0.000   5.238
   63        1.548   3.686   0.000   5.234
   64        1.549   3.688   0.000   5.237
   65        1.548   3.687   0.000   5.234
   66        1.548   3.687   0.000   5.235
   67        1.549   3.685   0.000   5.234
   68        1.556   3.625   0.000   5.182
   69        1.547   3.687   0.000   5.234
   70        1.548   3.690   0.000   5.238
   71        1.548   3.689   0.000   5.236
   72        1.547   3.683   0.000   5.230
   73        1.622   3.103   0.000   4.725
--------------------------------------------------
tot         91.376 203.564   0.000 294.941
 

 total amount of memory used by VASP MPI-rank0   104021. kBytes
=======================================================================

   base      :      30000. kBytes
   nonl-proj :      51791. kBytes
   fftplans  :       1787. kBytes
   grid      :       9701. kBytes
   one-center:        224. kBytes
   wavefun   :      10518. kBytes
 
  
  
 General timing and accounting informations for this job:
 ========================================================
  
                  Total CPU time used (sec):     1106.514
                            User time (sec):     1103.546
                          System time (sec):        2.968
                         Elapsed time (sec):     1111.746
  
                   Maximum memory used (kb):      309936.
                   Average memory used (kb):          N/A
  
                          Minor page faults:       749828
                          Major page faults:           27
                 Voluntary context switches:         5077
