LAMMPS (8 Feb 2023)
  using 1 OpenMP thread(s) per MPI task
# LAMMPS input generated from LammpsInputFile with pymatgen v2024.10.3

units metal
boundary p p p
atom_style atomic
box tilt large

The 'box' command has been removed and will be ignored

read_data structure.data
Reading data file ...
  triclinic box = (0 0 0) to (7.84919 7.935562 7.922427) with tilt (0.03932 0.064437 -0.034254)
  4 by 4 by 4 MPI processor grid
  reading atoms ...
  40 atoms
  read_data CPU = 0.034 seconds
pair_style pace/extrapolation
ACE/AL version: 2022.6.27
pair_coeff * * ../../output_potential4.yaml ../../output_potential4.asi Na Ti Bi O
Loading ../../output_potential4.yaml
Total number of basis functions
	Bi: 39 (r=1) 558 (r>1)
	Na: 39 (r=1) 558 (r>1)
	O: 39 (r=1) 558 (r>1)
	Ti: 39 (r=1) 558 (r>1)
Mapping LAMMPS atom type #1(Na) -> ACE species type #1
Mapping LAMMPS atom type #2(Ti) -> ACE species type #3
Mapping LAMMPS atom type #3(Bi) -> ACE species type #0
Mapping LAMMPS atom type #4(O) -> ACE species type #2
Loading ASI ../../output_potential4.asi
LINEAR ASI is loaded
# compute per-atom extrapolation grade every 10 steps
fix pace_gamma all pair 10 pace/extrapolation gamma 1
# compute maximum extrapolation grade over complete structure
compute max_pace_gamma all reduce max f_pace_gamma
# dump extrapolative structures if c_max_pace_gamma > 5, skip otherwise, check every 20 steps
variable dump_skip equal "c_max_pace_gamma < 5"
dump pace_dump all custom 20 extrapolative_structures.dump id type x y z f_pace_gamma
dump_modify pace_dump skip v_dump_skip
# stop simulation if maximum extrapolation grade exceeds 25
variable max_pace_gamma equal c_max_pace_gamma
fix extreme_extrapolation all halt 10 v_max_pace_gamma > 25
# Starting simulation
thermo 500
timestep 0.001
# dump myDump all atom 500 dump.lammpstrj
velocity all create 100.0 42
fix 1 all nvt temp 50 300 0.1
run 10000
Neighbor list info ...
  update: every = 1 steps, delay = 0 steps, check = yes
  max neighbors/atom: 2000, page size: 100000
  master list distance cutoff = 8.5
  ghost atom cutoff = 8.5
  binsize = 4.25, bins = 2 2 2
  1 neighbor lists, perpetual/occasional/extra = 1 0 0
  (1) pair pace/extrapolation, perpetual
      attributes: full, newton on
      pair build: full/bin/atomonly
      stencil: full/bin/3d
      bin: standard
WARNING: Proc sub-domain size < neighbor skin, could lead to lost atoms (src/domain.cpp:966)
Per MPI rank memory allocation (min/avg/max) = 3.406 | 3.874 | 4.406 Mbytes
   Step          Temp          E_pair         E_mol          TotEng         Press     
         0   100           -262.76149      0             -262.25738      197729.09    
       500   43.652601     -308.09752      0             -307.87746     -12753.048    
      1000   84.889106     -307.97143      0             -307.54349     -10182.21     
      1500   64.178405     -308.26546      0             -307.94193     -11545.155    
      2000   105.69726     -307.92113      0             -307.38829      3040.6702    
      2500   116.92555     -307.96835      0             -307.37892      262.58396    
      3000   126.25478     -308.23463      0             -307.59816     -5985.1543    
      3500   130.48702     -308.12381      0             -307.46601     -2819.9953    
      4000   179.12422     -307.87622      0             -306.97323     -1469.4209    
      4500   181.10227     -307.66718      0             -306.75421      3349.1822    
      5000   153.03097     -307.76471      0             -306.99326      3682.7156    
      5500   151.47478     -307.78513      0             -307.02152     -1938.489     
      6000   214.70747     -307.67261      0             -306.59024     -1936.9188    
      6500   207.58836     -307.27956      0             -306.23307      5925.7796    
      7000   199.07314     -307.33643      0             -306.33288      3053.6216    
      7500   207.76567     -307.51284      0             -306.46546     -1894.2216    
      8000   263.76773     -307.55163      0             -306.22194      3512.6351    
      8500   278.1183      -307.22984      0             -305.8278      -7460.1791    
      9000   339.85668     -307.40868      0             -305.69542      2059.4164    
      9500   244.26389     -307.06612      0             -305.83475     -2540.1972    
     10000   305.29935     -307.27121      0             -305.73216      12050.977    
Loop time of 6.22367 on 64 procs for 10000 steps with 40 atoms

Performance: 138.825 ns/day, 0.173 hours/ns, 1606.768 timesteps/s, 64.271 katom-step/s
99.2% CPU use with 64 MPI tasks x 1 OpenMP threads

MPI task timing breakdown:
Section |  min time  |  avg time  |  max time  |%varavg| %total
---------------------------------------------------------------
Pair    | 0.001183   | 1.408      | 4.5546     | 125.8 | 22.62
Neigh   | 4.2737e-05 | 6.745e-05  | 0.00010058 |   0.0 |  0.00
Comm    | 1.2686     | 4.3612     | 5.8473     |  69.2 | 70.07
Output  | 0.0073466  | 0.0081936  | 0.01296    |   0.7 |  0.13
Modify  | 0.1838     | 0.30714    | 0.82968    |  26.0 |  4.94
Other   |            | 0.1391     |            |       |  2.23

Nlocal:          0.625 ave           2 max           0 min
Histogram: 31 0 0 0 0 26 0 0 0 7
Nghost:        624.375 ave         625 max         623 min
Histogram: 7 0 0 0 0 26 0 0 0 31
Neighs:              0 ave           0 max           0 min
Histogram: 64 0 0 0 0 0 0 0 0 0
FullNghs:      129.969 ave         426 max           0 min
Histogram: 31 0 0 0 20 6 0 0 0 7

Total # of neighbors = 8318
Ave neighs/atom = 207.95
Neighbor list builds = 3
Dangerous builds = 0
unfix 1
fix 1 all npt temp 300 300 0.1 aniso 0 10000 1
run 20000
WARNING: Proc sub-domain size < neighbor skin, could lead to lost atoms (src/domain.cpp:966)
Per MPI rank memory allocation (min/avg/max) = 3.422 | 3.984 | 4.422 Mbytes
   Step          Temp          E_pair         E_mol          TotEng         Press          Volume    
     10000   305.29935     -307.27121      0             -305.73216      12050.977      493.47002    
     10500   351.72198     -307.2806       0             -305.50751      12096.877      491.72314    
     11000   318.25146     -306.82175      0             -305.2174      -7256.9329      495.97907    
     11500   300.16365     -307.03589      0             -305.52272      78.012307      495.56727    
     12000   233.67821     -307.01178      0             -305.83378      35152.821      483.86033    
     12500   290.18373     -307.57899      0             -306.11613      5162.6484      495.6984     
     13000   288.91664     -306.8477       0             -305.39123     -564.30291      492.58031    
     13500   286.65578     -307.13451      0             -305.68943      1655.6547      494.02486    
     14000   322.01882     -307.24926      0             -305.62592      29388.078      485.74624    
     14500   212.28872     -306.98206      0             -305.91188     -1293.1852      497.70713    
     15000   252.08798     -307.41253      0             -306.14172      18969.69       486.71841    
     15500   353.89554     -307.23939      0             -305.45535      110.35331      491.19274    
     16000   344.54312     -306.98502      0             -305.24813      3400.4008      494.32847    
     16500   279.53086     -306.6976       0             -305.28845     -11710.186      507.06516    
     17000   338.26984     -306.8497       0             -305.14444      2477.7535      498.27448    
     17500   289.10767     -307.01112      0             -305.55368     -10694.285      495.04806    
     18000   295.72153     -307.12182      0             -305.63105     -6353.8139      493.47547    
     18500   279.89408     -306.85824      0             -305.44725     -15758.196      494.62655    
     19000   251.15403     -307.20588      0             -305.93978      1411.1236      498.99008    
     19500   294.51376     -307.18781      0             -305.70313     -2169.7425      488.57075    
     20000   313.58714     -307.35942      0             -305.77858      11466.758      489.36662    
     20500   323.30241     -306.9461       0             -305.31628      2475.2233      492.80815    
     21000   318.34237     -307.27406      0             -305.66925      11282.112      492.42145    
     21500   278.88877     -306.97107      0             -305.56515      21487.582      482.74621    
     22000   333.81272     -307.15422      0             -305.47142      12523.702      485.7601     
     22500   289.24781     -306.76906      0             -305.31092     -7123.8385      501.59081    
     23000   292.21187     -306.79816      0             -305.32507     -11759.115      497.56478    
     23500   238.29638     -307.19699      0             -305.99571      6354.2665      488.25957    
     24000   292.73394     -307.33559      0             -305.85988      8128.9241      488.65011    
     24500   357.20194     -306.87617      0             -305.07546     -8453.3363      496.86478    
     25000   348.48417     -306.7719       0             -305.01514      20214.906      491.97742    
     25500   376.97263     -307.01122      0             -305.11084      22154.861      491.47694    
     26000   246.69668     -307.13575      0             -305.89211     -1236.6666      496.57033    
     26500   320.37403     -307.32397      0             -305.70892      136.64701      492.35178    
     27000   326.40137     -307.05357      0             -305.40814      10608.529      487.945      
     27500   283.32388     -307.10842      0             -305.68014     -6634.6994      494.09592    
     28000   271.60057     -307.22496      0             -305.85578      20011.542      488.17073    
     28500   339.38039     -307.13161      0             -305.42074      19316.858      490.04091    
     29000   323.99296     -307.13099      0             -305.4977       3336.5844      492.80463    
     29500   293.5746      -307.2675       0             -305.78755      6903.1437      487.07018    
     30000   311.49603     -307.13192      0             -305.56163      12654.928      494.11005    
Loop time of 13.7699 on 64 procs for 20000 steps with 40 atoms

Performance: 125.491 ns/day, 0.191 hours/ns, 1452.439 timesteps/s, 58.098 katom-step/s
99.2% CPU use with 64 MPI tasks x 1 OpenMP threads

MPI task timing breakdown:
Section |  min time  |  avg time  |  max time  |%varavg| %total
---------------------------------------------------------------
Pair    | 0.27442    | 2.9087     | 7.1689     |  91.1 | 21.12
Neigh   | 0.00011302 | 0.00014608 | 0.00018547 |   0.0 |  0.00
Comm    | 4.5267     | 8.7646     | 11.356     |  52.3 | 63.65
Output  | 0.015387   | 0.01809    | 0.028382   |   1.0 |  0.13
Modify  | 1.7027     | 1.764      | 1.9606     |   3.3 | 12.81
Other   |            | 0.3144     |            |       |  2.28

Nlocal:          0.625 ave           2 max           0 min
Histogram: 31 0 0 0 0 26 0 0 0 7
Nghost:        613.438 ave         625 max         597 min
Histogram: 4 14 2 11 1 0 0 0 0 32
Neighs:              0 ave           0 max           0 min
Histogram: 64 0 0 0 0 0 0 0 0 0
FullNghs:      129.281 ave         416 max           0 min
Histogram: 31 0 0 0 10 16 0 0 0 7

Total # of neighbors = 8274
Ave neighs/atom = 206.85
Neighbor list builds = 7
Dangerous builds = 0
unfix 1
fix 1 all npt temp 300 300 0.1 aniso 10000 0 1
run 20000
WARNING: Proc sub-domain size < neighbor skin, could lead to lost atoms (src/domain.cpp:966)
Per MPI rank memory allocation (min/avg/max) = 3.422 | 3.984 | 4.422 Mbytes
   Step          Temp          E_pair         E_mol          TotEng         Press          Volume    
     30000   311.49603     -307.13192      0             -305.56163      12654.928      494.11005    
     30500   339.70744     -307.0865       0             -305.37399     -146.20734      487.7727     
     31000   263.38355     -307.1934       0             -305.86564      21857.704      486.81397    
     31500   268.05985     -307.53019      0             -306.17886      17162.542      485.53271    
     32000   297.96097     -307.06701      0             -305.56494     -1822.8322      489.50538    
     32500   362.16102     -307.17116      0             -305.34545      24941.481      487.43269    
     33000   334.48442     -306.90264      0             -305.21646     -9405.3518      496.68262    
     33500   296.74899     -306.78163      0             -305.28568      10540.702      480.22997    
     34000   255.68584     -307.0669       0             -305.77795      13910.593      487.94831    
     34500   258.29062     -306.79347      0             -305.49139     -3203.2111      493.18464    
     35000   337.15735     -307.01156      0             -305.3119       5612.7353      488.7444     
     35500   332.22357     -307.07549      0             -305.40071      20705.648      488.29394    
     36000   295.45826     -307.17582      0             -305.68638     -1425.5816      494.53983    
     36500   270.84126     -307.19108      0             -305.82573      4926.2176      497.04093    
     37000   269.77141     -307.28536      0             -305.92541      20815.106      486.23703    
     37500   353.85033     -307.10295      0             -305.31914      11874.133      496.01703    
     38000   301.02358     -307.04079      0             -305.52329      5071.2402      482.26801    
     38500   370.94634     -307.18223      0             -305.31223     -12680.156      500.18188    
     39000   378.42131     -306.84478      0             -304.9371       26433.608      485.17861    
     39500   352.36776     -307.33605      0             -305.55972     -1649.2537      496.79844    
     40000   274.26606     -307.31052      0             -305.9279      -2683.8012      495.69352    
     40500   334.76484     -307.18514      0             -305.49754      472.72755      492.98755    
     41000   318.01046     -306.75873      0             -305.1556      -34091.965      506.80182    
     41500   343.69759     -307.24257      0             -305.50994      21483.355      484.02384    
     42000   270.96471     -307.25425      0             -305.88828      21780.807      489.11442    
     42500   309.35693     -307.18553      0             -305.62602      15385.602      489.72865    
     43000   314.1688      -307.13748      0             -305.55371     -28599.43       503.17987    
     43500   265.97464     -307.26311      0             -305.92229     -689.24958      497.21564    
     44000   254.45616     -307.02224      0             -305.73949      5257.6351      487.1199     
     44500   287.28135     -307.10521      0             -305.65698      25345.464      486.06856    
     45000   241.00131     -306.82455      0             -305.60963      10296.261      494.95276    
     45500   277.64524     -307.17814      0             -305.77849     -4449.5975      496.91235    
     46000   297.37041     -307.10181      0             -305.60272      7959.7762      495.00053    
     46500   303.70937     -306.83028      0             -305.29924     -5968.3421      500.39488    
     47000   381.36847     -307.44329      0             -305.52075     -7983.023       497.2477     
     47500   240.47956     -307.08815      0             -305.87586      6898.6164      492.30661    
     48000   277.47252     -307.43021      0             -306.03143      7905.5502      496.89565    
     48500   298.59206     -306.97927      0             -305.47402     -142.78468      496.31786    
     49000   258.01012     -306.79871      0             -305.49805     -14785.089      493.4308     
     49500   266.12099     -307.0663       0             -305.72474      11986.998      494.28682    
     50000   230.38135     -307.23486      0             -306.07348      8396.5773      493.68819    
Loop time of 13.2771 on 64 procs for 20000 steps with 40 atoms

Performance: 130.149 ns/day, 0.184 hours/ns, 1506.355 timesteps/s, 60.254 katom-step/s
99.3% CPU use with 64 MPI tasks x 1 OpenMP threads

MPI task timing breakdown:
Section |  min time  |  avg time  |  max time  |%varavg| %total
---------------------------------------------------------------
Pair    | 0.05559    | 2.9323     | 9.3291     | 161.1 | 22.09
Neigh   | 0          | 0          | 0          |   0.0 |  0.00
Comm    | 2.288      | 8.5755     | 11.673     |  92.0 | 64.59
Output  | 0.015558   | 0.016498   | 0.027131   |   1.1 |  0.12
Modify  | 1.2638     | 1.5261     | 6.4893     |  51.9 | 11.49
Other   |            | 0.2266     |            |       |  1.71

Nlocal:          0.625 ave           2 max           0 min
Histogram: 28 0 0 0 0 32 0 0 0 4
Nghost:         621.25 ave         625 max         607 min
Histogram: 1 4 3 5 2 1 0 0 4 44
Neighs:              0 ave           0 max           0 min
Histogram: 64 0 0 0 0 0 0 0 0 0
FullNghs:      128.438 ave         409 max           0 min
Histogram: 28 0 0 0 12 20 0 0 0 4

Total # of neighbors = 8220
Ave neighs/atom = 205.5
Neighbor list builds = 0
Dangerous builds = 0
unfix 1
fix 1 all nvt temp 300 2000 0.1 #aniso 0 0 1
run 68000
WARNING: Proc sub-domain size < neighbor skin, could lead to lost atoms (src/domain.cpp:966)
Per MPI rank memory allocation (min/avg/max) = 3.406 | 3.968 | 4.406 Mbytes
   Step          Temp          E_pair         E_mol          TotEng         Press     
     50000   230.38135     -307.23486      0             -306.07348      8396.5773    
     50500   394.55507     -307.01997      0             -305.03096      31444.308    
     51000   299.03716     -306.65764      0             -305.15015      14459.817    
     51500   387.96212     -307.08647      0             -305.1307       314.76695    
     52000   332.87618     -306.73276      0             -305.05468     -7844.0231    
     52500   360.4122      -306.71054      0             -304.89365      17317.918    
     53000   370.7132      -306.57427      0             -304.70545      9043.1835    
     53500   392.51068     -306.26925      0             -304.29055     -1642.6442    
     54000   446.71225     -306.24436      0             -303.99242      7911.8001    
     54500   305.58676     -306.93769      0             -305.39718     -3845.2158    
     55000   463.74539     -306.4249       0             -304.0871       17429.413    
     55500   481.78158     -306.14198      0             -303.71325      25951.485    
     56000   391.26335     -306.02703      0             -304.05461      8219.1499    
     56500   386.52083     -306.46009      0             -304.51158      14711.476    
     57000   478.42909     -306.20255      0             -303.79072     -1239.7126    
     57500   624.63045     -306.04578      0             -302.89693      3069.52      
     58000   554.88077     -305.4835       0             -302.68627      23711.008    
     58500   449.52178     -305.82074      0             -303.55463      7440.5538    
     59000   514.81055     -305.53558      0             -302.94034      7960.287     
     59500   634.24082     -305.35861      0             -302.16131     -9303.207     
     60000   624.64315     -306.17183      0             -303.02291      17520.398    
     60500   472.06173     -305.941        0             -303.56127      19804.746    
     61000   527.87953     -304.91107      0             -302.24995     -6127.4461    
     61500   485.77383     -305.35903      0             -302.91018      12651.9      
     62000   585.25947     -305.11757      0             -302.16719      19712.83     
     62500   732.82713     -304.50419      0             -300.8099       19646.823    
     63000   611.88437     -304.66086      0             -301.57626      35938.611    
     63500   669.08564     -305.1682       0             -301.79524     -5220.2353    
     64000   574.71643     -305.16975      0             -302.27252      12190.536    
     64500   503.85564     -304.89108      0             -302.35108      16376.542    
     65000   677.844       -304.98046      0             -301.56335     -14044.434    
     65500   640.20265     -305.02061      0             -301.79326      17118.56     
     66000   647.50142     -304.94649      0             -301.68234      10745.53     
     66500   638.56657     -303.77296      0             -300.55385      3781.4459    
     67000   743.33646     -305.31321      0             -301.56594      14656.519    
     67500   543.9272      -304.37424      0             -301.63222      1753.962     
     68000   667.64026     -303.72944      0             -300.36377      12559.886    
     68500   870.75417     -304.56384      0             -300.17425      22287.668    
     69000   617.16175     -303.74887      0             -300.63766     -7467.1206    
     69500   632.80671     -304.4047       0             -301.21463     -1563.4474    
     70000   668.20733     -303.92716      0             -300.55863      24666.131    
     70500   914.80028     -304.40473      0             -299.79309      15596.627    
     71000   938.84521     -303.88034      0             -299.14749      30898.829    
     71500   921.1047      -304.72349      0             -300.08007      32059.342    
     72000   823.749       -304.87347      0             -300.72083      11010.9      
     72500   777.23712     -303.66844      0             -299.75027      16371.493    
     73000   1044.4386     -304.67014      0             -299.40497      31564.494    
     73500   1016.5219     -304.09519      0             -298.97075      11095.076    
     74000   797.92416     -303.88429      0             -299.86184      22628.44     
     74500   803.85656     -304.00181      0             -299.94945      30033.798    
     75000   911.80204     -303.46439      0             -298.86786      30346.179    
     75500   803.74951     -303.53697      0             -299.48515      14641.19     
     76000   905.39626     -304.27192      0             -299.70768     -4565.3127    
     76500   986.49916     -303.85193      0             -298.87884     -8307.068     
     77000   901.46849     -303.42837      0             -298.88394      4261.0745    
     77500   994.45158     -304.59753      0             -299.58436      42665.241    
     78000   924.10394     -304.05102      0             -299.39248      4634.7265    
     78500   710.9725      -300.98288      0             -297.39876      13256.066    
     79000   1218.2623     -303.31839      0             -297.17695      10901.75     
     79500   1026.7343     -303.62195      0             -298.44603      40303.535    
     80000   831.86254     -303.90202      0             -299.70848      38700.803    
     80500   929.07837     -303.42934      0             -298.74572      16317.569    
     81000   1064.0758     -302.94123      0             -297.57707      21010.598    
     81500   1112.2338     -302.37924      0             -296.77231      18348.664    
     82000   1151.9097     -301.9044       0             -296.09746      38595.034    
     82500   1324.1391     -302.88155      0             -296.20637      42801.389    
     83000   1117.7765     -303.32207      0             -297.6872       25528.777    
     83500   1029.2245     -302.38165      0             -297.19318      40607.785    
     84000   1029.1702     -302.70964      0             -297.52144      20123.274    
     84500   1144.3819     -302.62291      0             -296.85392      30398.165    
     85000   1202.5636     -302.53968      0             -296.47738      42476.975    
     85500   1278.3849     -300.72683      0             -294.2823       36275.46     
     86000   1188.9279     -302.34106      0             -296.3475       28360.028    
     86500   1007.188      -302.49908      0             -297.4217       30361.186    
     87000   1327.7703     -303.37585      0             -296.68237      19861.922    
     87500   1077.81       -301.14289      0             -295.70949      54168.477    
     88000   1059.4697     -302.22982      0             -296.88887      38602.666    
     88500   1295.8245     -301.65823      0             -295.12579      27473.962    
     89000   1296.6278     -300.638        0             -294.10151      26622.148    
     89500   1010.2518     -302.8398       0             -297.74697      11266.278    
     90000   1212.1914     -302.3382       0             -296.22737      19974.002    
     90500   1185.8383     -301.51005      0             -295.53207      49002.877    
     91000   1500.1622     -301.96802      0             -294.40549      14796.577    
     91500   1206.2551     -300.89897      0             -294.81806      40363.212    
     92000   1136.9223     -301.32302      0             -295.59162      28254.939    
     92500   1535.5308     -302.66994      0             -294.9291       45781.475    
     93000   1100.1638     -301.32216      0             -295.77607      34600.558    
     93500   1038.4459     -300.14036      0             -294.9054       44445.796    
     94000   1474.9089     -302.41136      0             -294.97613      16701.137    
     94500   1641.0882     -300.19744      0             -291.92447      43151.644    
     95000   1782.7097     -300.56319      0             -291.57629      28379.32     
     95500   1613.7697     -300.66319      0             -292.52794      43389.318    
     96000   1528.2799     -301.21837      0             -293.51409      13298.689    
     96500   1243.2528     -301.17413      0             -294.90671      45001.044    
     97000   1486.8785     -302.05485      0             -294.55928      38963.162    
     97500   1456.6155     -301.90239      0             -294.55938      59149.322    
     98000   1638.4222     -301.32051      0             -293.06098      49536.959    
     98500   1872.9235     -301.07418      0             -291.6325       53923.069    
     99000   1376.6159     -301.10067      0             -294.16095      20274.617    
     99500   1402.2122     -301.12755      0             -294.0588       43331.011    
    100000   1884.3479     -299.83264      0             -290.33337      41675.173    
    100500   1604.0282     -299.59783      0             -291.51169      54337.438    
    101000   1372.6396     -300.21618      0             -293.29651      32580.962    
    101500   1319.4129     -300.83634      0             -294.18499      45572.845    
    102000   1297.9786     -301.24487      0             -294.70158      10984.173    
    102500   1406.4157     -300.3161       0             -293.22616      34061.766    
    103000   1922.3571     -301.06195      0             -291.37106      13595.847    
    103500   1581.0458     -300.76711      0             -292.79683      45676.873    
    104000   1211.6434     -300.33708      0             -294.22901      34450.707    
    104500   1663.1589     -301.37964      0             -292.99542      39121.42     
    105000   1673.7409     -300.31728      0             -291.8797       28380.216    
    105500   1833.1868     -299.3534       0             -290.11204      50580.29     
    106000   1758.6038     -300.2903       0             -291.42492      65878.733    
    106500   1230.3857     -300.85426      0             -294.65171      35731.502    
    107000   1800.871      -300.6765       0             -291.59805      55091.564    
    107500   1572.8414     -298.46027      0             -290.53135      60700.895    
    108000   1320.32       -298.95022      0             -292.2943       68758.068    
    108500   1482.6659     -301.17049      0             -293.69615      51607.928    
    109000   1678.8257     -300.2066       0             -291.74339      63275.991    
    109500   2082.035      -300.302        0             -289.80616      50669.282    
    110000   1897.6084     -299.49971      0             -289.93359      39053.041    
    110500   1505.3048     -298.93461      0             -291.34615      44811.092    
    111000   1659.2401     -299.81214      0             -291.44767      67517.547    
    111500   1794.7408     -299.56163      0             -290.51408      57777.389    
    112000   2245.2739     -298.48939      0             -287.17064      82790.359    
    112500   2082.0079     -299.27762      0             -288.78191      56105.828    
    113000   1757.7647     -300.24955      0             -291.3884       60596.484    
    113500   2102.8566     -298.98353      0             -288.38272      52835.672    
    114000   2054.38       -299.12358      0             -288.76715      57668.879    
    114500   1797.582      -299.95913      0             -290.89726      37407.668    
    115000   1652.737      -300.29853      0             -291.96684      54241.731    
    115500   1893.2267     -299.37095      0             -289.82692      39763.125    
    116000   2140.2245     -299.02956      0             -288.24038      48977.043    
    116500   1828.2831     -296.83484      0             -287.6182       110460.82    
    117000   2168.159      -296.46978      0             -285.53977      43649.907    
    117500   2466.9995     -297.33541      0             -284.89891      87985.493    
    118000   2026.9531     -297.3109       0             -287.09274      69144.606    
Loop time of 57.0648 on 64 procs for 68000 steps with 40 atoms

Performance: 102.957 ns/day, 0.233 hours/ns, 1191.628 timesteps/s, 47.665 katom-step/s
98.9% CPU use with 64 MPI tasks x 1 OpenMP threads

MPI task timing breakdown:
Section |  min time  |  avg time  |  max time  |%varavg| %total
---------------------------------------------------------------
Pair    | 7.5963     | 10.756     | 14.742     |  51.8 | 18.85
Neigh   | 0.011244   | 0.012439   | 0.013574   |   0.5 |  0.02
Comm    | 35.274     | 39.02      | 42.298     |  26.7 | 68.38
Output  | 0.13932    | 0.16016    | 0.22351    |   2.9 |  0.28
Modify  | 3.1156     | 4.1157     | 4.6188     |  15.3 |  7.21
Other   |            | 3          |            |       |  5.26

Nlocal:          0.625 ave           2 max           0 min
Histogram: 30 0 0 0 0 28 0 0 0 6
Nghost:        610.312 ave         621 max         595 min
Histogram: 2 3 2 5 3 16 14 7 8 4
Neighs:              0 ave           0 max           0 min
Histogram: 64 0 0 0 0 0 0 0 0 0
FullNghs:      129.656 ave         423 max           0 min
Histogram: 30 0 0 0 24 4 0 0 0 6

Total # of neighbors = 8298
Ave neighs/atom = 207.45
Neighbor list builds = 632
Dangerous builds = 0
unfix 1
fix 1 all nvt temp 2000 300 0.1 #aniso 0 0 1
run 68000
WARNING: Proc sub-domain size < neighbor skin, could lead to lost atoms (src/domain.cpp:966)
Per MPI rank memory allocation (min/avg/max) = 4.406 | 4.406 | 4.406 Mbytes
   Step          Temp          E_pair         E_mol          TotEng         Press     
    118000   2026.9531     -297.3109       0             -287.09274      69144.606    
    118500   1883.9059     -298.56761      0             -289.07057      75373.202    
    119000   1823.0252     -300.20203      0             -291.01189      62240.129    
    119500   1705.0422     -300.69799      0             -292.10263      42497.092    
    120000   1526.2214     -299.94151      0             -292.24761      28445.808    
    120500   2400.8762     -299.43525      0             -287.33208      61217.766    
    121000   2319.8545     -300.77495      0             -289.08023      19118.371    
    121500   1925.6388     -299.30709      0             -289.59966      57773.789    
    122000   1976.4212     -297.71746      0             -287.75403      94790.492    
    122500   1891.1518     -298.31791      0             -288.78434      41319.503    
    123000   1397.0027     -299.47746      0             -292.43496      44082.772    
    123500   1868.143      -301.95892      0             -292.54134      31734.222    
    124000   1975.9708     -298.93852      0             -288.97737      42570.259    
    124500   1672.6959     -298.62792      0             -290.19562      69586.179    
    125000   1809.7778     -299.67463      0             -290.55127      37534.642    
    125500   1518.2095     -300.12967      0             -292.47615      69433.78     
    126000   1358.9188     -297.97782      0             -291.12731      65159.709    
    126500   1962.1507     -299.42338      0             -289.53189      57189.836    
    127000   1565.3974     -296.05561      0             -288.16422      95051.252    
    127500   1657.1857     -297.86818      0             -289.51407      80811.279    
    128000   2013.785      -300.41895      0             -290.26717      46390.271    
    128500   1340.7857     -300.89689      0             -294.13779      37528.111    
    129000   1761.0616     -299.74851      0             -290.87075      56846.113    
    129500   1923.6468     -299.71654      0             -290.01916      89530.954    
    130000   2044.8723     -298.83935      0             -288.53085      83344.677    
    130500   2099.4004     -298.90292      0             -288.31953      85085.576    
    131000   1584.1808     -300.90572      0             -292.91963      53590.31     
    131500   2027.7396     -303.04832      0             -292.82619      31763.983    
    132000   1528.8311     -300.10294      0             -292.39588      38741.553    
    132500   2047.8266     -301.02677      0             -290.70338      18144.184    
    133000   2099.5854     -301.12132      0             -290.53701      60248.026    
    133500   1783.0588     -301.75397      0             -292.76531      48551.992    
    134000   1440.3956     -300.61859      0             -293.35734      33039.855    
    134500   1316.6703     -302.13054      0             -295.49301      63729.879    
    135000   1490.5941     -300.33289      0             -292.81858      22306        
    135500   1510.6965     -299.87638      0             -292.26074      51427.008    
    136000   1658.5928     -301.62901      0             -293.26781      14071.197    
    136500   1316.341      -300.92692      0             -294.29105      26165.32     
    137000   1308.0206     -302.10833      0             -295.51441      38944.217    
    137500   1228.7274     -300.29302      0             -294.09882      65651.232    
    138000   1387.2181     -300.08947      0             -293.0963       20707.151    
    138500   1429.7912     -301.87016      0             -294.66238      48615.561    
    139000   1465.2771     -301.65463      0             -294.26795      33250.797    
    139500   1345.8732     -300.94484      0             -294.1601       34784.406    
    140000   1358.9707     -301.31039      0             -294.45962      46043.086    
    140500   1625.1976     -301.55958      0             -293.36672      27593.458    
    141000   1668.5034     -302.83691      0             -294.42574      42619.604    
    141500   1419.5942     -302.48454      0             -295.32815      42217.205    
    142000   1552.9688     -302.369        0             -294.54025      31965.182    
    142500   1505.8856     -301.34733      0             -293.75594      41950.751    
    143000   1618.2066     -299.75292      0             -291.5953       53945.921    
    143500   1444.0031     -301.14496      0             -293.86553      42337.489    
    144000   1262.2251     -301.00432      0             -294.64126      28151.259    
    144500   1310.4573     -301.44927      0             -294.84306      9962.2253    
    145000   1180.6347     -301.13201      0             -295.18026      31892.794    
    145500   1227.6772     -302.63228      0             -296.44338      43819.524    
    146000   1241.5279     -301.92437      0             -295.66565      31567.662    
    146500   1373.9118     -302.5415       0             -295.61541      27443.631    
    147000   1242.03       -301.1728       0             -294.91154      36578.421    
    147500   1337.6853     -302.53219      0             -295.78872      36253.927    
    148000   1171.7478     -303.55885      0             -297.6519       22922.087    
    148500   1186.2182     -302.94728      0             -296.96739      50157.892    
    149000   1156.0074     -301.53166      0             -295.70406      27127.484    
    149500   1251.741      -301.09246      0             -294.78225      29850.034    
    150000   1120.407      -299.54961      0             -293.90147      37191.245    
    150500   1095.05       -302.42086      0             -296.90056      19006.325    
    151000   1063.0392     -302.16162      0             -296.80268      20874.933    
    151500   1219.2956     -303.61028      0             -297.46363      13891.956    
    152000   1202.6644     -302.19951      0             -296.1367       36472.091    
    152500   1247.3325     -301.61971      0             -295.33173      34831.012    
    153000   1052.5075     -301.20053      0             -295.89468      20866.989    
    153500   1187.374      -303.22022      0             -297.2345       25280.923    
    154000   1128.221      -303.37742      0             -297.68989      28774.279    
    154500   1160.1974     -302.83974      0             -296.99102      29048.081    
    155000   1290.0684     -301.79593      0             -295.2925       32934.219    
    155500   1206.3896     -302.40234      0             -296.32075      25752.991    
    156000   1089.123      -302.26535      0             -296.77492      31461.832    
    156500   941.96601     -303.26367      0             -298.51508      11079.761    
    157000   1076.5306     -303.32252      0             -297.89557      14098.282    
    157500   1199.6896     -303.36695      0             -297.31914      24837.462    
    158000   865.65898     -300.95698      0             -296.59307      36649.514    
    158500   976.35125     -302.41074      0             -297.48881      5444.9426    
    159000   829.58652     -302.85506      0             -298.67299      29990.679    
    159500   943.88238     -303.82605      0             -299.0678       26701.228    
    160000   945.93201     -303.55814      0             -298.78956      21093.608    
    160500   886.75934     -303.2505       0             -298.78022      6152.8186    
    161000   926.94683     -302.94043      0             -298.26756      1978.8538    
    161500   1034.1565     -302.92356      0             -297.71023      56732.387    
    162000   921.65937     -302.81433      0             -298.16811      11503.073    
    162500   904.21966     -303.93749      0             -299.37919      33612.745    
    163000   717.06317     -303.61658      0             -300.00176      12856.13     
    163500   1034.564      -302.53867      0             -297.32328      36225.473    
    164000   1112.7037     -304.52472      0             -298.91542      11694.683    
    164500   809.95257     -303.43436      0             -299.35127      10332.278    
    165000   796.97973     -303.86105      0             -299.84336      7454.5007    
    165500   847.84289     -304.58131      0             -300.30721      29892.362    
    166000   829.53971     -303.90108      0             -299.71924      26981.121    
    166500   813.45076     -303.91297      0             -299.81225      2162.4561    
    167000   806.58075     -304.77717      0             -300.71108      14190.441    
    167500   671.12223     -304.00716      0             -300.62394      16435.741    
    168000   764.8348      -303.97683      0             -300.12119      32280.136    
    168500   803.55261     -305.42883      0             -301.378        2411.169     
    169000   895.36604     -304.45933      0             -299.94566      11162.595    
    169500   891.72502     -304.41651      0             -299.9212       7282.2529    
    170000   873.36022     -305.42947      0             -301.02674     -2136.5748    
    170500   608.53004     -304.78074      0             -301.71305      2561.4103    
    171000   732.37035     -305.04525      0             -301.35326      4014.3131    
    171500   788.17142     -304.66397      0             -300.69068     -12448.607    
    172000   840.01107     -304.16343      0             -299.92881     -5709.0256    
    172500   670.46731     -304.3232       0             -300.94328      4745.3525    
    173000   704.33301     -305.1102       0             -301.55956      12409.984    
    173500   715.26605     -305.31881      0             -301.71305      2742.7296    
    174000   630.93598     -305.66849      0             -302.48784      7950.8964    
    174500   541.51751     -305.41447      0             -302.6846       13926.908    
    175000   488.87647     -305.60819      0             -303.14369      2444.0482    
    175500   723.92973     -305.94757      0             -302.29813      32700.396    
    176000   506.74925     -305.45868      0             -302.90408      10774.551    
    176500   482.91345     -305.70948      0             -303.27504      7118.9521    
    177000   393.77044     -305.91553      0             -303.93047      29859.78     
    177500   506.27596     -305.65118      0             -303.09897      10747.585    
    178000   592.51255     -305.91078      0             -302.92383      10118.68     
    178500   593.48273     -305.79062      0             -302.79879      6809.5747    
    179000   431.68976     -305.63542      0             -303.45921      19573.783    
    179500   379.59793     -306.39421      0             -304.4806       5057.5062    
    180000   479.36686     -306.1421       0             -303.72554      14080.676    
    180500   454.43053     -306.0452       0             -303.75434     -162.5862     
    181000   388.08898     -305.37965      0             -303.42323      19927.467    
    181500   432.81431     -306.48716      0             -304.30528      3559.3229    
    182000   427.70135     -307.09009      0             -304.93399      8438.0983    
    182500   357.43376     -306.43509      0             -304.63321      18205.301    
    183000   259.75548     -306.15911      0             -304.84964     -3726.1509    
    183500   398.12516     -307.09788      0             -305.09087      151.22413    
    184000   318.7247      -306.71124      0             -305.1045       13060.531    
    184500   347.32791     -306.3925       0             -304.64157      1944.6502    
    185000   378.56668     -306.61433      0             -304.70592      17566.2      
    185500   340.33068     -307.14163      0             -305.42597      1967.7627    
    186000   360.80609     -307.04982      0             -305.23095     -2644.3969    
Loop time of 50.1884 on 64 procs for 68000 steps with 40 atoms

Performance: 117.063 ns/day, 0.205 hours/ns, 1354.894 timesteps/s, 54.196 katom-step/s
99.0% CPU use with 64 MPI tasks x 1 OpenMP threads

MPI task timing breakdown:
Section |  min time  |  avg time  |  max time  |%varavg| %total
---------------------------------------------------------------
Pair    | 7.6109     | 11.008     | 15.13      |  54.0 | 21.93
Neigh   | 0.01242    | 0.013634   | 0.014679   |   0.5 |  0.03
Comm    | 31.574     | 35.77      | 39.098     |  29.4 | 71.27
Output  | 0.07207    | 0.080226   | 0.13499    |   2.7 |  0.16
Modify  | 1.911      | 2.1799     | 2.552      |  11.0 |  4.34
Other   |            | 1.136      |            |       |  2.26

Nlocal:          0.625 ave           2 max           0 min
Histogram: 27 0 0 0 0 34 0 0 0 3
Nghost:            615 ave         621 max         600 min
Histogram: 3 3 4 3 2 1 1 11 16 20
Neighs:              0 ave           0 max           0 min
Histogram: 64 0 0 0 0 0 0 0 0 0
FullNghs:      129.688 ave         418 max           0 min
Histogram: 27 0 0 0 14 20 0 0 0 3

Total # of neighbors = 8300
Ave neighs/atom = 207.5
Neighbor list builds = 691
Dangerous builds = 0
unfix 1
fix 1 all box/relax aniso 0.0
minimize 0 1.0e-8 10000 1000000
WARNING: Proc sub-domain size < neighbor skin, could lead to lost atoms (src/domain.cpp:966)
WARNING: Energy due to 3 extra global DOFs will be included in minimizer energies
 (src/min.cpp:225)
Per MPI rank memory allocation (min/avg/max) = 5.531 | 5.531 | 5.531 Mbytes
   Step          Temp          E_pair         E_mol          TotEng         Press          Volume    
    186000   360.80609     -307.04982      0             -305.23095     -2644.3969      493.68819    
    186500   360.80609     -308.62512      0             -306.80625      3686.6474      489.93474    
    186909   360.80609     -308.68013      0             -306.86125      3973.0904      489.81098    
Loop time of 4.01156 on 64 procs for 909 steps with 40 atoms

97.9% CPU use with 64 MPI tasks x 1 OpenMP threads

Minimization stats:
  Stopping criterion = linesearch alpha is zero
  Energy initial, next-to-last, final = 
     -307.049822911269  -308.680129561907  -308.680129561907
  Force two-norm initial, final = 9.0037368 0.035535085
  Force max component initial, final = 5.4985346 0.015565485
  Final line search alpha, max atom move = 6.273897e-06 9.765625e-08
  Iterations, force evaluations = 909 951

MPI task timing breakdown:
Section |  min time  |  avg time  |  max time  |%varavg| %total
---------------------------------------------------------------
Pair    | 0.002668   | 0.13394    | 0.51232    |  35.1 |  3.34
Neigh   | 0          | 0          | 0          |   0.0 |  0.00
Comm    | 0.75561    | 1.1094     | 1.2845     |  13.3 | 27.66
Output  | 0.00077101 | 0.00084706 | 0.0012186  |   0.0 |  0.02
Modify  | 0.014669   | 0.026694   | 0.027905   |   1.6 |  0.67
Other   |            | 2.741      |            |       | 68.32

Nlocal:          0.625 ave           2 max           0 min
Histogram: 28 0 0 0 0 32 0 0 0 4
Nghost:        618.125 ave         625 max         606 min
Histogram: 2 6 6 8 8 2 0 0 1 31
Neighs:              0 ave           0 max           0 min
Histogram: 64 0 0 0 0 0 0 0 0 0
FullNghs:      129.344 ave         417 max           0 min
Histogram: 28 0 0 0 13 19 0 0 0 4

Total # of neighbors = 8278
Ave neighs/atom = 206.95
Neighbor list builds = 0
Dangerous builds = 0
unfix 1
write_data out.data
System init for write_data ...
WARNING: Proc sub-domain size < neighbor skin, could lead to lost atoms (src/domain.cpp:966)
Total wall time: 0:02:26
