LAMMPS data file via write_data, version 8 Feb 2023, timestep = 186909

40 atoms
4 atom types

-0.029509542673764155 7.878699542673815 xlo xhi
0.03443894575384978 7.90112305424266 ylo yhi
0.024546653998687815 7.8978803460043006 zlo zhi
0.03897871620761253 0.06403769995123752 -0.034041736488813035 xy xz yz

Masses

1 22.989769
2 47.867
3 208.9804
4 15.9994

Atoms # atomic

33 4 0.040499974562769395 1.9766500949853687 2.373159602851643 1 0 0
26 4 1.877754419658756 0.2522173520364008 6.3735349348462265 0 0 0
17 4 1.7540044851204109 2.5032744019887088 0.16195675692553224 0 0 0
5 2 1.85862938402709 2.0964882440749633 1.9835418076468772 0 0 0
34 4 0.07924756383064088 2.508249855803272 5.899470809034426 1 0 0
6 2 1.9322423956686685 2.118552230809114 5.961721414688104 0 0 0
27 4 1.8649020200270037 4.205343456049379 2.4366263770652097 0 0 0
36 4 0.08973866772687819 5.896336639216838 6.331637660041929 1 0 0
35 4 0.06936376671096316 6.465909697763177 1.9551983900278864 1 0 0
7 2 1.9210535773010302 6.071583403026976 2.023558844134645 0 0 0
20 4 1.7909967876842527 6.419594026770517 4.102642821116446 0 0 0
8 2 1.9033019347131488 6.015190102180163 5.925407925432395 0 0 0
25 4 2.267184253587364 0.26837189297197417 1.8746168641413605 0 0 0
3 1 3.7781654397786064 0.06241653816654606 3.9027010413373953 0 1 0
16 3 3.7003530813433434 3.908566322946859 3.809140307489288 0 0 0
18 4 2.3252787165336457 2.056969977010401 4.099871923918795 0 0 0
28 4 2.3066038042326884 4.186066525811647 5.810049132053087 0 0 0
4 1 3.8362703639579276 3.977006361966809 7.832655373674777 0 0 -1
19 4 2.3275836031513126 6.008013209522701 0.16531874316305878 0 0 0
15 3 3.7605913118750984 7.823287502193452 7.738967540375489 0 0 0
29 4 5.797733823468179 0.27087701175097545 2.4400565807036867 0 0 0
38 4 4.025200075442136 1.9633472203611257 6.309532117913622 0 0 0
37 4 4.002189612084724 2.5310229399465722 1.9632363797233638 0 0 0
9 2 5.85379878683984 2.1368123991473245 2.02609309432774 0 0 0
22 4 5.740302180708853 2.49153778568832 4.09824690763374 0 0 0
10 2 5.842847580345877 2.081832002858912 5.91914684715598 0 0 0
39 4 4.01371778881651 5.909109289024069 2.3937491977581904 0 0 0
32 4 5.8534481917065815 4.187710343193816 6.3753619015705 0 0 0
23 4 5.7124431832285145 6.439226109460377 0.16629859642701084 0 0 1
11 2 5.827570859107414 6.0319993601081965 1.988257884202028 0 0 0
40 4 4.055164741703534 6.4428877291193185 5.8921835438351 0 0 0
12 2 5.9082040812392504 6.053127088633632 5.95999736313441 0 0 0
30 4 6.245829519659 0.25213974620445 5.809045419482424 0 1 0
1 1 7.762806881813136 0.049071922957315904 7.836035081506083 -1 0 -1
21 4 6.246975845227873 2.0737537891663993 0.16416999378216313 0 0 0
14 3 7.689372729912778 3.887662798362103 7.746194978785224 0 0 -1
31 4 6.235693402894081 4.204202187283637 1.8708572398382344 0 0 0
2 1 7.760968523840915 3.9925521567907456 3.8964968769465846 0 0 0
13 3 7.680636715102547 7.842181298497281 3.803725518003636 0 -1 0
24 4 6.3144450035449005 5.989517150009052 4.101721068910004 0 0 0

Velocities

33 -0.045427956743842486 -0.396307702693337 -8.153863730462236
26 6.731787729076674 -8.132963822971401 -3.87203531929699
17 -5.041146131154359 -2.7195364831184525 -0.49461955424209925
5 -1.7990029814701645 0.2851664502535724 -0.9975129072766924
34 3.215061166316645 -4.632252748271976 -0.3914233317120922
6 3.447401487530685 0.5190529944503844 -2.627952978014509
27 -3.7799512095628334 1.0681490317510454 -2.208728637665909
36 -0.8640981266612411 -4.391486892428112 -2.807824634030277
35 -5.428052222798342 -3.1315274165153215 5.799207015683389
7 5.019616673849853 -4.100893642195158 1.5051811244357094
20 -0.8076963976129268 -4.962902949513283 2.8330848209299804
8 -1.576709907063844 -3.1972755377810844 0.9429315755652155
25 6.173470738932725 11.145753383932556 -0.9625272922092788
3 4.725395098423229 0.8451925930131092 -0.4605036801569919
16 -0.5342901494839196 2.2778120475210173 -0.9246368346457408
18 -4.0933168302157945 4.419767052542167 3.301200693936096
28 6.3422630962140385 -2.038717720858162 -3.2249764794188414
4 0.09227386597179449 3.444429172770433 -0.5155908241126973
19 8.603097052366204 1.0643414627301322 0.22626264496768436
15 -0.7222064619512718 -1.694282984028587 0.9946139961885899
29 11.789344427921277 3.8245634847078125 -3.634066899324943
38 3.066832408858009 1.9090769577486093 5.112163448829784
37 -2.794041760980183 2.1692979648169906 -0.5042883455713895
9 1.9892922812987666 -4.005226958229023 -0.5269404619017495
22 -0.9677908151019636 6.802022183552523 -4.0704588727343145
10 -2.9483417002702903 2.438384094850241 0.4320461547883645
39 -2.622161268948691 -3.6299581724372905 5.012955997114697
32 2.3918910699507125 1.8606594786408985 -0.8343208165963957
23 -3.756485624053243 -3.4289123943482145 -6.868575357324613
11 0.05352216439959459 -2.1561280623853523 1.2833868550272567
40 -2.9262619578880695 2.020472744417164 5.686044923192117
12 -1.4568763006523617 -1.473843476008406 4.513583780399804
30 -5.4653980493145955 -1.2647863094324197 -0.7296773850347231
1 -1.8868651156142746 2.8210000714452663 1.9816598057272035
21 2.147312395122015 -0.020800597009993937 -4.8523192321389415
14 -0.6396044770599044 -0.6987949863978355 0.433721485960999
31 2.635628711352102 3.634934997852729 -3.866027423989241
2 -2.696771864212468 -1.8972931944788296 2.992849775700673
13 -0.668790110689506 1.7223282646156006 -0.24940463689306944
24 10.496533918514256 5.325361422073686 -3.09916049019537
